
 Primary working directories    : /scratch/sirous/42998/molpro.8wv6tjiHOa
 Secondary working directories  : /scratch/sirous/42998/molpro.8wv6tjiHOa
 Wavefunction directory         : /scratch/sirous/42998/
 Main file repository           : /scratch/sirous/42998/molpro.8wv6tjiHOa/

 id        : karlovklimes

 Nodes                      nprocs
 nc-20.cc.karlov.mff.cuni.cz    4

 Using customized tuning parameters: mindgm=1; mindgv=20; mindgc=4; mindgr=1; noblas=0; minvec=7
 default implementation of scratch files=sf  


 Variables initialized (934), CPU time= 0.00 sec
 ***,CH3C6H4CN+CF3CN+BF3
 memory,500,m
 gdirect
 gthresh,energy=1.d-8,twoint=1.d-15,oneint=1.d-15,zero=1.d-15,orbital=1.d-8,grid=1.d-8
 symmetry,nosym
 geomtyp=xyz
                                                                                 ! Geometry
 geometry={
 O1        -0.702196054    -0.056060256     0.009942262
 H1        -1.022193224    0.846775782     -0.011488714
 H2        0.257521062    0.042121496     0.005218999
 O2        2.8722887006036286    0.02160568319588036     -0.0009052627818144195
 H3        3.248910315603629    -0.41677438280411966     0.7652191192181856
 H4        3.244553017603629    -0.45460729180411963     -0.7463077647818144
 }
 
 
 
 basis=avqz
 
 
 
                                                                                 ! Dimer Calculation
 {rhf,accu=1.d-8;orbital,2101.2}
 eab_HF=energy
 
 
                                                                                 !monomer A
 dummy,4,5,6;                                                                    ! NOW MONOMER B IS DUMMY
 {rhf,accu=1.d-8;orbital,2201.2}
 ea_HF=energy
                                                                                 !monomer B
 dummy,1,2,3;                                                                    !NOW MONOMER A IS DUMMY
 {rhf,accu=1.d-8;orbital,2301.2}
 eb_HF=energy
 
 E_AB_int=eab_HF-ea_HF-eb_HF
 
 
 text,results in hartree
 show,E_AB_int
 
 Commands  initialized (763), CPU time= 0.02 sec, 617 directives.
 Default parameters read. Elapsed time= 0.21 sec

 Checking input...
 Passed
1


                                         ***  PROGRAM SYSTEM MOLPRO  ***
                                       Copyright, TTI GmbH Stuttgart, 2015
                                    Version 2019.2 linked Jun  8 2019 11:26:33


 **********************************************************************************************************************************
 LABEL *   CH3C6H4CN+CF3CN+BF3                                                           
  64 bit mpp version                                                                     DATE: 06-Oct-19          TIME: 17:19:22  
 **********************************************************************************************************************************

 SHA1:             8135a10abc80eafa5b3ae28ffc55be4890dc4c84
 **********************************************************************************************************************************

 THRESHOLDS:

 ZERO    =  1.00D-15  ONEINT  =  1.00D-15  TWOINT  =  1.00D-15  PREFAC  =  1.00D-14  XXXXXX  =  1.00D-09  EORDER  =  1.00D-04
 ENERGY  =  1.00D-08  ETEST   =  0.00D+00  EDENS   =  0.00D+00  THRDEDEF=  1.00D-06  GRADIENT=  1.00D-02  STEP    =  1.00D-03
 ORBITAL =  1.00D-08  CIVEC   =  1.00D-05  COEFF   =  1.00D-04  PRINTCI =  5.00D-02  PUNCHCI =  9.90D+01  OPTGRAD =  3.00D-04
 OPTENERG=  1.00D-06  OPTSTEP =  3.00D-04  THRGRAD =  1.00D-10  COMPRESS=  1.00D-11  VARMIN  =  1.00D-07  VARMAX  =  1.00D-03
 THRDOUB =  0.00D+00  THRDIV  =  1.00D-05  THRRED  =  1.00D-07  THRPSP  =  1.00D+00  THRDC   =  1.00D-10  THRCS   =  1.00D-10
 THRNRM  =  1.00D-08  THREQ   =  0.00D+00  THRDE   =  1.00D+00  THRREF  =  1.00D-05  SPARFAC =  1.00D+00  THRDLP  =  1.00D-07
 THRDIA  =  1.00D-10  THRDLS  =  1.00D-07  THRGPS  =  0.00D+00  THRKEX  =  0.00D+00  THRDIS  =  2.00D-01  THRVAR  =  1.00D-10
 THRLOC  =  1.00D-06  THRGAP  =  1.00D-06  THRLOCT = -1.00D+00  THRGAPT = -1.00D+00  THRORB  =  1.00D-06  THRMLTP =  0.00D+00
 THRCPQCI=  1.00D-10  KEXTA   =  0.00D+00  THRCOARS=  0.00D+00  SYMTOL  =  1.00D-06  GRADTOL =  1.00D-06  THROVL  =  1.00D-08
 THRORTH =  1.00D-08  GRID    =  1.00D-08  GRIDMAX =  1.00D-03  DTMAX   =  0.00D+00  THROCCDE=  1.00D-01  THROCCDE=  1.00D-01
 THRPRINT=  2.50D-01


 Variable memory set to  500000000 words,  buffer space 

 SETTING GEOMTYP        =    XYZ
 ZSYMEL=NOSYM

 SETTING BASIS          =    AVQZ


 Recomputing integrals since basis changed


 Using spherical harmonics

 Library entry O      S aug-cc-pVQZ          selected for orbital group  1
 Library entry O      P aug-cc-pVQZ          selected for orbital group  1
 Library entry O      D aug-cc-pVQZ          selected for orbital group  1
 Library entry O      F aug-cc-pVQZ          selected for orbital group  1
 Library entry O      G aug-cc-pVQZ          selected for orbital group  1
 Library entry H      S aug-cc-pVQZ          selected for orbital group  2
 Library entry H      P aug-cc-pVQZ          selected for orbital group  2
 Library entry H      D aug-cc-pVQZ          selected for orbital group  2
 Library entry H      F aug-cc-pVQZ          selected for orbital group  2


 PROGRAM * SEWARD (Integral evaluation for generally contracted gaussian basis sets)     Author: Roland Lindh, 1990

 Geometry written to block  1 of record 700


 Point group  C1  



 ATOMIC COORDINATES

 NR  ATOM    CHARGE       X              Y              Z

   1  O1      8.00   -1.326958228   -0.105938530    0.018788152
   2  H1      1.00   -1.931665240    1.600174317   -0.021710523
   3  H2      1.00    0.486644278    0.079598091    0.009862479
   4  O2      8.00    5.427838995    0.040828824   -0.001710699
   5  H3      1.00    6.139550700   -0.787589439    1.446054561
   6  H4      1.00    6.131316600   -0.859083276   -1.410317280

 Bond lengths in Bohr (Angstrom)

 1-2  1.810561173  1-3  1.823090112  4-5  1.813514438  4-6  1.813531094
     ( 0.958107712)     ( 0.964737741)     ( 0.959670512)     ( 0.959679326)

 Bond angles

  2-1-3  103.66482512   5-4-6  103.95523303

 NUCLEAR CHARGE:                   20
 NUMBER OF PRIMITIVE AOS:         464
 NUMBER OF SYMMETRY AOS:          378
 NUMBER OF CONTRACTIONS:          344   (  344A   )
 NUMBER OF CORE ORBITALS:           2   (    2A   )
 NUMBER OF VALENCE ORBITALS:       12   (   12A   )


 NUCLEAR REPULSION ENERGY   33.15398822


 Eigenvalues of metric

         1 0.467E-04 0.722E-04 0.837E-04 0.934E-04 0.189E-03 0.313E-03 0.334E-03 0.459E-03


 OPERATOR DM      FOR CENTER  0  COORDINATES:    0.000000    0.000000    0.000000


 **********************************************************************************************************************************
 DATASETS  * FILE   NREC   LENGTH (MB)   RECORD NAMES
              1      18       34.41       500      610      700      900      950      970     1000      129      960     1100   
                                          VAR    BASINP    GEOM    SYMINP    ZMAT    AOBASIS   BASIS     P2S    ABASIS      S 
                                         1400     1410     1200     1210     1080     1600     1650     1700   
                                           T        V       H0       H01     AOSYM     SMH    MOLCAS    OPER   

 PROGRAMS   *        TOTAL       INT
 CPU TIMES  *         0.55      0.36
 REAL TIME  *         1.72 SEC
 DISK USED  *        34.87 MB (local),      139.46 MB (total)
 GA USED    *         0.00 MB       (max)       0.00 MB       (current)
 **********************************************************************************************************************************


 PROGRAM * RHF-SCF (CLOSED SHELL)       Authors: W. Meyer, H.-J. Werner


 NUMBER OF ELECTRONS:      10+   10-    SPACE SYMMETRY=1    SPIN SYMMETRY: Singlet 
 CONVERGENCE THRESHOLDS:    1.00E-04 (Density)    1.00E-09 (Energy)
 INTEGRAL THRESHOLDS:       1.00E-11 (Initial)    1.00E-11 (Final)
 MAX. NUMBER OF ITERATIONS:       60
 INTERPOLATION TYPE:            DIIS
 INTERPOLATION STEPS:              2 (START)      1 (STEP)
 LEVEL SHIFTS:                  0.00 (CLOSED)  0.00 (OPEN) 



 Orbital guess generated from atomic densities. Full valence occupancy:   14

 Molecular orbital dump at record        2101.2

 Initial occupancy:  10

 Direct Fock-matrix evaluation.        Authors: Roland Lindh & Martin Schuetz (1993/96)

 Integral Threshold:                  0.1D-10
 Threshold for writing integrals:     0.1D-06
 Prescreening on density matrix:        ON 
 Calculation will be performed fully direct        

 ITERATION   DDIFF            GRAD            ENERGY        2-EL.EN.            DIPOLE MOMENTS         DIIS   CPU(IT)  CPU(TOT)
    1      0.000D+00      0.000D+00      -152.06344166    184.860970    1.37296    0.08209   -0.00530    0     22.6     25.6     start
    2      0.000D+00      0.520D-02      -152.11510269    177.871215    0.91993    0.03347   -0.00303    1     20.7     46.3     diag
    3      0.391D-02      0.320D-02      -152.13551398    180.926257    1.02809    0.04799   -0.00364    2     20.1     66.4     diag
    4      0.144D-02      0.309D-03      -152.13587292    180.749330    1.02274    0.04759   -0.00361    3     19.3     85.7     diag
    5      0.186D-03      0.810D-04      -152.13590718    180.775355    1.02110    0.04770   -0.00361    4     18.6    104.3     diag
    6      0.543D-04      0.157D-04      -152.13590920    180.773770    1.02073    0.04761   -0.00361    5     17.5    121.8     diag
    7      0.131D-04      0.337D-05      -152.13590929    180.773924    1.02062    0.04772   -0.00361    6     16.1    137.8     diag
    8      0.350D-05      0.149D-05      -152.13590930    180.773909    1.02058    0.04762   -0.00361    0     14.3    152.1     orth

 Final occupancy:  10

 !RHF STATE  1.1 Energy              -152.135909298916
 Nuclear energy                        33.15398822
 One-electron energy                 -275.67685219
 Two-electron energy                   90.38695467
 Virial quotient                       -1.00114737
 !RHF STATE  1.1 Dipole moment          1.02058460     0.04762155    -0.00360881
 Dipole moment /Debye                   2.59389740     0.12103397    -0.00917207

 Orbital energies:

         1.1          2.1          3.1          4.1          5.1          6.1          7.1          8.1          9.1         10.1
    -20.580290   -20.548551    -1.367230    -1.334657    -0.730173    -0.697609    -0.602941    -0.569804    -0.526084    -0.494134

        11.1         12.1
      0.021458     0.040554


 HOMO     10.1    -0.494134 =     -13.4461eV
 LUMO     11.1     0.021458 =       0.5839eV
 LUMO-HOMO         0.515591 =      14.0300eV


 **********************************************************************************************************************************
 DATASETS  * FILE   NREC   LENGTH (MB)   RECORD NAMES
              1      18       34.41       500      610      700      900      950      970     1000      129      960     1100   
                                          VAR    BASINP    GEOM    SYMINP    ZMAT    AOBASIS   BASIS     P2S    ABASIS      S 
                                         1400     1410     1200     1210     1080     1600     1650     1700   
                                           T        V       H0       H01     AOSYM     SMH    MOLCAS    OPER   

              2       4        5.26       700     1000      520     2101   
                                         GEOM     BASIS   MCVARS     RHF  

 PROGRAMS   *        TOTAL   RHF-SCF       INT
 CPU TIMES  *       152.76    152.20      0.36
 REAL TIME  *       155.64 SEC
 DISK USED  *        46.88 MB (local),      187.53 MB (total)
 SF USED    *         1.42 MB
 GA USED    *         0.00 MB       (max)       0.00 MB       (current)
 **********************************************************************************************************************************
 SETTING EAB_HF         =      -152.13590930  AU                              

 Dummy atoms: O2  H3  H4


 Recomputing one-electron integrals since nuclear charges changed


 PROGRAM * SEWARD (Integral evaluation for generally contracted gaussian basis sets)     Author: Roland Lindh, 1990

 Geometry written to block  1 of record 700


 Point group  C1  



 ATOMIC COORDINATES

 NR  ATOM    CHARGE       X              Y              Z

   1  O1      8.00   -1.326958228   -0.105938530    0.018788152
   2  H1      1.00   -1.931665240    1.600174317   -0.021710523
   3  H2      1.00    0.486644278    0.079598091    0.009862479
   4  O2      0.00    5.427838995    0.040828824   -0.001710699
   5  H3      0.00    6.139550700   -0.787589439    1.446054561
   6  H4      0.00    6.131316600   -0.859083276   -1.410317280

 Bond lengths in Bohr (Angstrom)

 1-2  1.810561173  1-3  1.823090112  4-5  1.813514438  4-6  1.813531094
     ( 0.958107712)     ( 0.964737741)     ( 0.959670512)     ( 0.959679326)

 Bond angles

  2-1-3  103.66482512   5-4-6  103.95523303

 NUCLEAR CHARGE:                   10
 NUMBER OF PRIMITIVE AOS:         464
 NUMBER OF SYMMETRY AOS:          378
 NUMBER OF CONTRACTIONS:          344   (  344A   )
 NUMBER OF CORE ORBITALS:           1   (    1A   )
 NUMBER OF VALENCE ORBITALS:        6   (    6A   )

 MOLECULE CHANGED: INITIALIZING OCCUPATION AND DUMP RECORDS


 NUCLEAR REPULSION ENERGY    9.15671413


 Eigenvalues of metric

         1 0.467E-04 0.722E-04 0.837E-04 0.934E-04 0.189E-03 0.313E-03 0.334E-03 0.459E-03


 OPERATOR DM      FOR CENTER  0  COORDINATES:    0.000000    0.000000    0.000000


 **********************************************************************************************************************************
 DATASETS  * FILE   NREC   LENGTH (MB)   RECORD NAMES
              1      18       34.41       500      610      700      900      950      970     1000      129      960     1100   
                                          VAR    BASINP    GEOM    SYMINP    ZMAT    AOBASIS   BASIS     P2S    ABASIS      S 
                                         1400     1410     1200     1210     1080     1600     1650     1700   
                                           T        V       H0       H01     AOSYM     SMH    MOLCAS    OPER   

              2       4        5.26       700     1000      520     2101   
                                         GEOM     BASIS   MCVARS     RHF  

 PROGRAMS   *        TOTAL       INT   RHF-SCF       INT
 CPU TIMES  *       152.90      0.13    152.20      0.36
 REAL TIME  *       155.86 SEC
 DISK USED  *        46.88 MB (local),      187.53 MB (total)
 SF USED    *         1.42 MB
 GA USED    *         0.00 MB       (max)       0.00 MB       (current)
 **********************************************************************************************************************************


 PROGRAM * RHF-SCF (CLOSED SHELL)       Authors: W. Meyer, H.-J. Werner


 NUMBER OF ELECTRONS:       5+    5-    SPACE SYMMETRY=1    SPIN SYMMETRY: Singlet 
 CONVERGENCE THRESHOLDS:    1.00E-04 (Density)    1.00E-09 (Energy)
 INTEGRAL THRESHOLDS:       1.00E-11 (Initial)    1.00E-11 (Final)
 MAX. NUMBER OF ITERATIONS:       60
 INTERPOLATION TYPE:            DIIS
 INTERPOLATION STEPS:              2 (START)      1 (STEP)
 LEVEL SHIFTS:                  0.00 (CLOSED)  0.00 (OPEN) 



 Orbital guess generated from atomic densities. Full valence occupancy:    7

 Molecular orbital dump at record        2201.2

 Initial occupancy:   5

 Direct Fock-matrix evaluation.        Authors: Roland Lindh & Martin Schuetz (1993/96)

 Integral Threshold:                  0.1D-10
 Threshold for writing integrals:     0.1D-06
 Prescreening on density matrix:        ON 
 Calculation will be performed fully direct        

 ITERATION   DDIFF            GRAD            ENERGY        2-EL.EN.            DIPOLE MOMENTS         DIIS   CPU(IT)  CPU(TOT)
    1      0.000D+00      0.000D+00       -76.02725813     77.623123    0.61887    0.96447   -0.02521    0     21.9     25.2     start
    2      0.000D+00      0.528D-02       -76.05424556     74.025761    0.36204    0.56807   -0.01484    1     19.9     45.0     diag
    3      0.282D-02      0.330D-02       -76.06538532     75.612545    0.42572    0.66716   -0.01743    2     18.9     63.9     diag
    4      0.105D-02      0.311D-03       -76.06557055     75.522219    0.42331    0.66411   -0.01735    3     17.9     81.8     diag
    5      0.132D-03      0.846D-04       -76.06558945     75.536228    0.42245    0.66306   -0.01732    4     16.8     98.6     diag
    6      0.406D-04      0.163D-04       -76.06559058     75.535332    0.42228    0.66289   -0.01732    5     15.4    114.0     diag
    7      0.992D-05      0.323D-05       -76.06559064     75.535469    0.42223    0.66283   -0.01731    6     14.1    128.1     diag
    8      0.276D-05      0.617D-06       -76.06559064     75.535404    0.42221    0.66281   -0.01731    0     11.5    139.6     orth

 Final occupancy:   5

 !RHF STATE  1.1 Energy               -76.065590640026
 Nuclear energy                         9.15671413
 One-electron energy                 -122.99000691
 Two-electron energy                   37.76770214
 Virial quotient                       -1.00114719
 !RHF STATE  1.1 Dipole moment          0.42221134     0.66280623    -0.01731421
 Dipole moment /Debye                   1.07308390     1.68457505    -0.04400545

 Orbital energies:

         1.1          2.1          3.1          4.1          5.1          6.1          7.1
    -20.565847    -1.351337    -0.713875    -0.585847    -0.510395     0.019421     0.037620


 HOMO      5.1    -0.510395 =     -13.8886eV
 LUMO      6.1     0.019421 =       0.5285eV
 LUMO-HOMO         0.529816 =      14.4170eV


 **********************************************************************************************************************************
 DATASETS  * FILE   NREC   LENGTH (MB)   RECORD NAMES
              1      18       34.41       500      610      700      900      950      970     1000      129      960     1100   
                                          VAR    BASINP    GEOM    SYMINP    ZMAT    AOBASIS   BASIS     P2S    ABASIS      S 
                                         1400     1410     1200     1210     1080     1600     1650     1700   
                                           T        V       H0       H01     AOSYM     SMH    MOLCAS    OPER   

              2       5       12.50       700     1000      520     2101     2201   
                                         GEOM     BASIS   MCVARS     RHF      RHF  

 PROGRAMS   *        TOTAL   RHF-SCF       INT   RHF-SCF       INT
 CPU TIMES  *       292.59    139.68      0.13    152.20      0.36
 REAL TIME  *       296.26 SEC
 DISK USED  *        54.12 MB (local),      216.50 MB (total)
 SF USED    *         1.42 MB
 GA USED    *         0.00 MB       (max)       0.00 MB       (current)
 **********************************************************************************************************************************
 SETTING EA_HF          =       -76.06559064  AU                              

 Dummy atoms: O1  H1  H2


 Recomputing one-electron integrals since nuclear charges changed


 PROGRAM * SEWARD (Integral evaluation for generally contracted gaussian basis sets)     Author: Roland Lindh, 1990

 Geometry written to block  1 of record 700


 Point group  C1  



 ATOMIC COORDINATES

 NR  ATOM    CHARGE       X              Y              Z

   1  O1      0.00   -1.326958228   -0.105938530    0.018788152
   2  H1      0.00   -1.931665240    1.600174317   -0.021710523
   3  H2      0.00    0.486644278    0.079598091    0.009862479
   4  O2      8.00    5.427838995    0.040828824   -0.001710699
   5  H3      1.00    6.139550700   -0.787589439    1.446054561
   6  H4      1.00    6.131316600   -0.859083276   -1.410317280

 Bond lengths in Bohr (Angstrom)

 1-2  1.810561173  1-3  1.823090112  4-5  1.813514438  4-6  1.813531094
     ( 0.958107712)     ( 0.964737741)     ( 0.959670512)     ( 0.959679326)

 Bond angles

  2-1-3  103.66482512   5-4-6  103.95523303

 NUCLEAR CHARGE:                   10
 NUMBER OF PRIMITIVE AOS:         464
 NUMBER OF SYMMETRY AOS:          378
 NUMBER OF CONTRACTIONS:          344   (  344A   )
 NUMBER OF CORE ORBITALS:           1   (    1A   )
 NUMBER OF VALENCE ORBITALS:        6   (    6A   )

 MOLECULE CHANGED: INITIALIZING OCCUPATION AND DUMP RECORDS


 NUCLEAR REPULSION ENERGY    9.17259115


 Eigenvalues of metric

         1 0.467E-04 0.722E-04 0.837E-04 0.934E-04 0.189E-03 0.313E-03 0.334E-03 0.459E-03


 OPERATOR DM      FOR CENTER  0  COORDINATES:    0.000000    0.000000    0.000000


 **********************************************************************************************************************************
 DATASETS  * FILE   NREC   LENGTH (MB)   RECORD NAMES
              1      18       34.41       500      610      700      900      950      970     1000      129      960     1100   
                                          VAR    BASINP    GEOM    SYMINP    ZMAT    AOBASIS   BASIS     P2S    ABASIS      S 
                                         1400     1410     1200     1210     1080     1600     1650     1700   
                                           T        V       H0       H01     AOSYM     SMH    MOLCAS    OPER   

              2       5       12.50       700     1000      520     2101     2201   
                                         GEOM     BASIS   MCVARS     RHF      RHF  

 PROGRAMS   *        TOTAL       INT   RHF-SCF       INT   RHF-SCF       INT
 CPU TIMES  *       292.73      0.14    139.68      0.13    152.20      0.36
 REAL TIME  *       296.47 SEC
 DISK USED  *        54.12 MB (local),      216.50 MB (total)
 SF USED    *         1.42 MB
 GA USED    *         0.00 MB       (max)       0.00 MB       (current)
 **********************************************************************************************************************************


 PROGRAM * RHF-SCF (CLOSED SHELL)       Authors: W. Meyer, H.-J. Werner


 NUMBER OF ELECTRONS:       5+    5-    SPACE SYMMETRY=1    SPIN SYMMETRY: Singlet 
 CONVERGENCE THRESHOLDS:    1.00E-04 (Density)    1.00E-09 (Energy)
 INTEGRAL THRESHOLDS:       1.00E-11 (Initial)    1.00E-11 (Final)
 MAX. NUMBER OF ITERATIONS:       60
 INTERPOLATION TYPE:            DIIS
 INTERPOLATION STEPS:              2 (START)      1 (STEP)
 LEVEL SHIFTS:                  0.00 (CLOSED)  0.00 (OPEN) 



 Orbital guess generated from atomic densities. Full valence occupancy:    7

 Molecular orbital dump at record        2301.2

 Initial occupancy:   5

 Direct Fock-matrix evaluation.        Authors: Roland Lindh & Martin Schuetz (1993/96)

 Integral Threshold:                  0.1D-10
 Threshold for writing integrals:     0.1D-06
 Prescreening on density matrix:        ON 
 Calculation will be performed fully direct        

 ITERATION   DDIFF            GRAD            ENERGY        2-EL.EN.            DIPOLE MOMENTS         DIIS   CPU(IT)  CPU(TOT)
    1      0.000D+00      0.000D+00       -76.02754824     77.648435    0.72260   -0.88239    0.01999    0     21.8     24.9     start
    2      0.000D+00      0.528D-02       -76.05451235     74.056010    0.42586   -0.51979    0.01178    1     20.1     45.0     diag
    3      0.283D-02      0.330D-02       -76.06558983     75.638559    0.49975   -0.61010    0.01382    2     19.4     64.4     diag
    4      0.105D-02      0.311D-03       -76.06577408     75.548453    0.49738   -0.60720    0.01376    3     18.1     82.5     diag
    5      0.132D-03      0.841D-04       -76.06579268     75.562342    0.49654   -0.60618    0.01374    4     17.2     99.7     diag
    6      0.401D-04      0.161D-04       -76.06579379     75.561462    0.49640   -0.60601    0.01373    5     16.2    115.9     diag
    7      0.963D-05      0.318D-05       -76.06579384     75.561598    0.49635   -0.60594    0.01373    6     14.8    130.8     diag
    8      0.262D-05      0.613D-06       -76.06579384     75.561535    0.49633   -0.60592    0.01373    0     12.5    143.2     orth

 Final occupancy:   5

 !RHF STATE  1.1 Energy               -76.065793841378
 Nuclear energy                         9.17259115
 One-electron energy                 -123.01915237
 Two-electron energy                   37.78076737
 Virial quotient                       -1.00106779
 !RHF STATE  1.1 Dipole moment          0.49633379    -0.60592333     0.01372937
 Dipole moment /Debye                   1.26147205    -1.54000263     0.03489429

 Orbital energies:

         1.1          2.1          3.1          4.1          5.1          6.1          7.1
    -20.565395    -1.351997    -0.715368    -0.585601    -0.510448     0.024349     0.039674


 HOMO      5.1    -0.510448 =     -13.8900eV
 LUMO      6.1     0.024349 =       0.6626eV
 LUMO-HOMO         0.534797 =      14.5526eV


 **********************************************************************************************************************************
 DATASETS  * FILE   NREC   LENGTH (MB)   RECORD NAMES
              1      18       34.41       500      610      700      900      950      970     1000      129      960     1100   
                                          VAR    BASINP    GEOM    SYMINP    ZMAT    AOBASIS   BASIS     P2S    ABASIS      S 
                                         1400     1410     1200     1210     1080     1600     1650     1700   
                                           T        V       H0       H01     AOSYM     SMH    MOLCAS    OPER   

              2       6       19.74       700     1000      520     2101     2201     2301   
                                         GEOM     BASIS   MCVARS     RHF      RHF      RHF  

 PROGRAMS   *        TOTAL   RHF-SCF       INT   RHF-SCF       INT   RHF-SCF       INT
 CPU TIMES  *       436.07    143.34      0.14    139.68      0.13    152.20      0.36
 REAL TIME  *       440.54 SEC
 DISK USED  *        61.36 MB (local),      245.46 MB (total)
 SF USED    *         1.42 MB
 GA USED    *         0.00 MB       (max)       0.00 MB       (current)
 **********************************************************************************************************************************
 SETTING EB_HF          =       -76.06579384  AU                              
 SETTING E_AB_INT       =        -0.00452482  AU                              

 *** results in hartree
 E_AB_INT         =        -0.00452482 AU
 Molecular orbitals read from record     2301.2  Type=RHF/CANONICAL (state 1.1)
 Occupation numbers read from record     2301.2  Type=RHF/RHF (state 1.1)
 Orbital energies read from record       2301.2  Type=RHF/CANONICAL (state 1.1)
 Redundancy group numbers read from rec  2301.2  Type=RHF/RHF (state 1.1)

 RHF/aug-cc-pVQZ energy=    -76.065793841378

         RHF-SCF         RHF-SCF         RHF-SCF
    -76.06579384    -76.06559064   -152.13590930
 **********************************************************************************************************************************
 Molpro calculation terminated
