
 Primary working directories    : /scratch/sirous/43007/molpro.S6psgzw5MQ
 Secondary working directories  : /scratch/sirous/43007/molpro.S6psgzw5MQ
 Wavefunction directory         : /scratch/sirous/43007/
 Main file repository           : /scratch/sirous/43007/molpro.S6psgzw5MQ/

 id        : karlovklimes

 Nodes                      nprocs
 nc-20.cc.karlov.mff.cuni.cz    4

 Using customized tuning parameters: mindgm=1; mindgv=20; mindgc=4; mindgr=1; noblas=0; minvec=7
 default implementation of scratch files=sf  


 Variables initialized (934), CPU time= 0.00 sec
 ***,CH3C6H4CN+CF3CN+BF3
 memory,500,m
 gdirect
 gthresh,energy=1.d-8,twoint=1.d-15,oneint=1.d-15,zero=1.d-15,orbital=1.d-8,grid=1.d-8
 symmetry,nosym
 geomtyp=xyz
                                                                                 ! Geometry
 geometry={
 O1        -0.702196054    -0.056060256     0.009942262
 H1        -1.022193224    0.846775782     -0.011488714
 H2        0.257521062    0.042121496     0.005218999
 O2        4.6825124504145155    0.007402429783521427     -0.0051451381272576814
 H3        5.059134065414517    -0.43097763621647855     0.7609792438727423
 H4        5.054776767414516    -0.4688105452164786     -0.7505476401272577
 }
 
 
 
 basis=avqz
 
 
 
                                                                                 ! Dimer Calculation
 {rhf,accu=1.d-8;orbital,2101.2}
 eab_HF=energy
 
 
                                                                                 !monomer A
 dummy,4,5,6;                                                                    ! NOW MONOMER B IS DUMMY
 {rhf,accu=1.d-8;orbital,2201.2}
 ea_HF=energy
                                                                                 !monomer B
 dummy,1,2,3;                                                                    !NOW MONOMER A IS DUMMY
 {rhf,accu=1.d-8;orbital,2301.2}
 eb_HF=energy
 
 E_AB_int=eab_HF-ea_HF-eb_HF
 
 
 text,results in hartree
 show,E_AB_int
 
 Commands  initialized (763), CPU time= 0.02 sec, 617 directives.
 Default parameters read. Elapsed time= 0.21 sec

 Checking input...
 Passed
1


                                         ***  PROGRAM SYSTEM MOLPRO  ***
                                       Copyright, TTI GmbH Stuttgart, 2015
                                    Version 2019.2 linked Jun  8 2019 11:26:33


 **********************************************************************************************************************************
 LABEL *   CH3C6H4CN+CF3CN+BF3                                                           
  64 bit mpp version                                                                     DATE: 06-Oct-19          TIME: 17:26:49  
 **********************************************************************************************************************************

 SHA1:             8135a10abc80eafa5b3ae28ffc55be4890dc4c84
 **********************************************************************************************************************************

 THRESHOLDS:

 ZERO    =  1.00D-15  ONEINT  =  1.00D-15  TWOINT  =  1.00D-15  PREFAC  =  1.00D-14  XXXXXX  =  1.00D-09  EORDER  =  1.00D-04
 ENERGY  =  1.00D-08  ETEST   =  0.00D+00  EDENS   =  0.00D+00  THRDEDEF=  1.00D-06  GRADIENT=  1.00D-02  STEP    =  1.00D-03
 ORBITAL =  1.00D-08  CIVEC   =  1.00D-05  COEFF   =  1.00D-04  PRINTCI =  5.00D-02  PUNCHCI =  9.90D+01  OPTGRAD =  3.00D-04
 OPTENERG=  1.00D-06  OPTSTEP =  3.00D-04  THRGRAD =  1.00D-10  COMPRESS=  1.00D-11  VARMIN  =  1.00D-07  VARMAX  =  1.00D-03
 THRDOUB =  0.00D+00  THRDIV  =  1.00D-05  THRRED  =  1.00D-07  THRPSP  =  1.00D+00  THRDC   =  1.00D-10  THRCS   =  1.00D-10
 THRNRM  =  1.00D-08  THREQ   =  0.00D+00  THRDE   =  1.00D+00  THRREF  =  1.00D-05  SPARFAC =  1.00D+00  THRDLP  =  1.00D-07
 THRDIA  =  1.00D-10  THRDLS  =  1.00D-07  THRGPS  =  0.00D+00  THRKEX  =  0.00D+00  THRDIS  =  2.00D-01  THRVAR  =  1.00D-10
 THRLOC  =  1.00D-06  THRGAP  =  1.00D-06  THRLOCT = -1.00D+00  THRGAPT = -1.00D+00  THRORB  =  1.00D-06  THRMLTP =  0.00D+00
 THRCPQCI=  1.00D-10  KEXTA   =  0.00D+00  THRCOARS=  0.00D+00  SYMTOL  =  1.00D-06  GRADTOL =  1.00D-06  THROVL  =  1.00D-08
 THRORTH =  1.00D-08  GRID    =  1.00D-08  GRIDMAX =  1.00D-03  DTMAX   =  0.00D+00  THROCCDE=  1.00D-01  THROCCDE=  1.00D-01
 THRPRINT=  2.50D-01


 Variable memory set to  500000000 words,  buffer space 

 SETTING GEOMTYP        =    XYZ
 ZSYMEL=NOSYM

 SETTING BASIS          =    AVQZ


 Recomputing integrals since basis changed


 Using spherical harmonics

 Library entry O      S aug-cc-pVQZ          selected for orbital group  1
 Library entry O      P aug-cc-pVQZ          selected for orbital group  1
 Library entry O      D aug-cc-pVQZ          selected for orbital group  1
 Library entry O      F aug-cc-pVQZ          selected for orbital group  1
 Library entry O      G aug-cc-pVQZ          selected for orbital group  1
 Library entry H      S aug-cc-pVQZ          selected for orbital group  2
 Library entry H      P aug-cc-pVQZ          selected for orbital group  2
 Library entry H      D aug-cc-pVQZ          selected for orbital group  2
 Library entry H      F aug-cc-pVQZ          selected for orbital group  2


 PROGRAM * SEWARD (Integral evaluation for generally contracted gaussian basis sets)     Author: Roland Lindh, 1990

 Geometry written to block  1 of record 700


 Point group  C1  



 ATOMIC COORDINATES

 NR  ATOM    CHARGE       X              Y              Z

   1  O1      8.00   -1.326958228   -0.105938530    0.018788152
   2  H1      1.00   -1.931665240    1.600174317   -0.021710523
   3  H2      1.00    0.486644278    0.079598091    0.009862479
   4  O2      8.00    8.848666106    0.013988565   -0.009722902
   5  H3      1.00    9.560377811   -0.814429698    1.438042357
   6  H4      1.00    9.552143711   -0.885923535   -1.418329483

 Bond lengths in Bohr (Angstrom)

 1-2  1.810561173  1-3  1.823090112  4-5  1.813514438  4-6  1.813531094
     ( 0.958107712)     ( 0.964737741)     ( 0.959670512)     ( 0.959679326)

 Bond angles

  2-1-3  103.66482512   5-4-6  103.95523303

 NUCLEAR CHARGE:                   20
 NUMBER OF PRIMITIVE AOS:         464
 NUMBER OF SYMMETRY AOS:          378
 NUMBER OF CONTRACTIONS:          344   (  344A   )
 NUMBER OF CORE ORBITALS:           2   (    2A   )
 NUMBER OF VALENCE ORBITALS:       12   (   12A   )


 NUCLEAR REPULSION ENERGY   28.14929583


 Eigenvalues of metric

         1 0.742E-04 0.753E-04 0.959E-04 0.104E-03 0.334E-03 0.353E-03 0.426E-03 0.585E-03


 OPERATOR DM      FOR CENTER  0  COORDINATES:    0.000000    0.000000    0.000000


 **********************************************************************************************************************************
 DATASETS  * FILE   NREC   LENGTH (MB)   RECORD NAMES
              1      18       34.41       500      610      700      900      950      970     1000      129      960     1100   
                                          VAR    BASINP    GEOM    SYMINP    ZMAT    AOBASIS   BASIS     P2S    ABASIS      S 
                                         1400     1410     1200     1210     1080     1600     1650     1700   
                                           T        V       H0       H01     AOSYM     SMH    MOLCAS    OPER   

 PROGRAMS   *        TOTAL       INT
 CPU TIMES  *         0.59      0.41
 REAL TIME  *         1.76 SEC
 DISK USED  *        34.87 MB (local),      139.46 MB (total)
 GA USED    *         0.00 MB       (max)       0.00 MB       (current)
 **********************************************************************************************************************************


 PROGRAM * RHF-SCF (CLOSED SHELL)       Authors: W. Meyer, H.-J. Werner


 NUMBER OF ELECTRONS:      10+   10-    SPACE SYMMETRY=1    SPIN SYMMETRY: Singlet 
 CONVERGENCE THRESHOLDS:    1.00E-04 (Density)    1.00E-09 (Energy)
 INTEGRAL THRESHOLDS:       1.00E-11 (Initial)    1.00E-11 (Final)
 MAX. NUMBER OF ITERATIONS:       60
 INTERPOLATION TYPE:            DIIS
 INTERPOLATION STEPS:              2 (START)      1 (STEP)
 LEVEL SHIFTS:                  0.00 (CLOSED)  0.00 (OPEN) 



 Orbital guess generated from atomic densities. Full valence occupancy:   14

 Molecular orbital dump at record        2101.2

 Initial occupancy:  10

 Direct Fock-matrix evaluation.        Authors: Roland Lindh & Martin Schuetz (1993/96)

 Integral Threshold:                  0.1D-10
 Threshold for writing integrals:     0.1D-06
 Prescreening on density matrix:        ON 
 Calculation will be performed fully direct        

 ITERATION   DDIFF            GRAD            ENERGY        2-EL.EN.            DIPOLE MOMENTS         DIIS   CPU(IT)  CPU(TOT)
    1      0.000D+00      0.000D+00      -152.05686368    174.917847    1.34177    0.08196   -0.00521    0     15.6     18.4     start
    2      0.000D+00      0.529D-02      -152.11022832    167.757320    0.81757    0.04558   -0.00307    1     13.9     32.4     diag
    3      0.397D-02      0.330D-02      -152.13204609    170.904062    0.94792    0.05511   -0.00361    2     13.4     45.7     diag
    4      0.148D-02      0.311D-03      -152.13241192    170.725255    0.94367    0.05485   -0.00360    3     12.6     58.3     diag
    5      0.186D-03      0.840D-04      -152.13244856    170.752921    0.94230    0.05487   -0.00359    4     12.1     70.4     diag
    6      0.562D-04      0.161D-04      -152.13245071    170.751234    0.94205    0.05481   -0.00359    5     11.4     81.8     diag
    7      0.134D-04      0.326D-05      -152.13245081    170.751480    0.94195    0.05488   -0.00359    6     10.6     92.5     diag
    8      0.362D-05      0.109D-05      -152.13245082    170.751493    0.94192    0.05483   -0.00359    7      9.4    101.9     diag
    9      0.754D-06      0.373D-06      -152.13245082    170.751417    0.94190    0.05485   -0.00359    0      8.9    110.7     orth

 Final occupancy:  10

 !RHF STATE  1.1 Energy              -152.132450817823
 Nuclear energy                        28.14929583
 One-electron energy                 -265.65745510
 Two-electron energy                   85.37570845
 Virial quotient                       -1.00112351
 !RHF STATE  1.1 Dipole moment          0.94190279     0.05484809    -0.00359309
 Dipole moment /Debye                   2.39392130     0.13940081    -0.00913212

 Orbital energies:

         1.1          2.1          3.1          4.1          5.1          6.1          7.1          8.1          9.1         10.1
    -20.570795   -20.559568    -1.357425    -1.345145    -0.720760    -0.707658    -0.591425    -0.579904    -0.516010    -0.504329

        11.1         12.1
      0.022358     0.036666


 HOMO     10.1    -0.504329 =     -13.7235eV
 LUMO     11.1     0.022358 =       0.6084eV
 LUMO-HOMO         0.526687 =      14.3319eV


 **********************************************************************************************************************************
 DATASETS  * FILE   NREC   LENGTH (MB)   RECORD NAMES
              1      18       34.41       500      610      700      900      950      970     1000      129      960     1100   
                                          VAR    BASINP    GEOM    SYMINP    ZMAT    AOBASIS   BASIS     P2S    ABASIS      S 
                                         1400     1410     1200     1210     1080     1600     1650     1700   
                                           T        V       H0       H01     AOSYM     SMH    MOLCAS    OPER   

              2       4        5.26       700     1000      520     2101   
                                         GEOM     BASIS   MCVARS     RHF  

 PROGRAMS   *        TOTAL   RHF-SCF       INT
 CPU TIMES  *       111.41    110.82      0.41
 REAL TIME  *       114.43 SEC
 DISK USED  *        47.36 MB (local),      189.43 MB (total)
 SF USED    *         1.42 MB
 GA USED    *         0.00 MB       (max)       0.00 MB       (current)
 **********************************************************************************************************************************
 SETTING EAB_HF         =      -152.13245082  AU                              

 Dummy atoms: O2  H3  H4


 Recomputing one-electron integrals since nuclear charges changed


 PROGRAM * SEWARD (Integral evaluation for generally contracted gaussian basis sets)     Author: Roland Lindh, 1990

 Geometry written to block  1 of record 700


 Point group  C1  



 ATOMIC COORDINATES

 NR  ATOM    CHARGE       X              Y              Z

   1  O1      8.00   -1.326958228   -0.105938530    0.018788152
   2  H1      1.00   -1.931665240    1.600174317   -0.021710523
   3  H2      1.00    0.486644278    0.079598091    0.009862479
   4  O2      0.00    8.848666106    0.013988565   -0.009722902
   5  H3      0.00    9.560377811   -0.814429698    1.438042357
   6  H4      0.00    9.552143711   -0.885923535   -1.418329483

 Bond lengths in Bohr (Angstrom)

 1-2  1.810561173  1-3  1.823090112  4-5  1.813514438  4-6  1.813531094
     ( 0.958107712)     ( 0.964737741)     ( 0.959670512)     ( 0.959679326)

 Bond angles

  2-1-3  103.66482512   5-4-6  103.95523303

 NUCLEAR CHARGE:                   10
 NUMBER OF PRIMITIVE AOS:         464
 NUMBER OF SYMMETRY AOS:          378
 NUMBER OF CONTRACTIONS:          344   (  344A   )
 NUMBER OF CORE ORBITALS:           1   (    1A   )
 NUMBER OF VALENCE ORBITALS:        6   (    6A   )

 MOLECULE CHANGED: INITIALIZING OCCUPATION AND DUMP RECORDS


 NUCLEAR REPULSION ENERGY    9.15671413


 Eigenvalues of metric

         1 0.742E-04 0.753E-04 0.959E-04 0.104E-03 0.334E-03 0.353E-03 0.426E-03 0.585E-03


 OPERATOR DM      FOR CENTER  0  COORDINATES:    0.000000    0.000000    0.000000


 **********************************************************************************************************************************
 DATASETS  * FILE   NREC   LENGTH (MB)   RECORD NAMES
              1      18       34.41       500      610      700      900      950      970     1000      129      960     1100   
                                          VAR    BASINP    GEOM    SYMINP    ZMAT    AOBASIS   BASIS     P2S    ABASIS      S 
                                         1400     1410     1200     1210     1080     1600     1650     1700   
                                           T        V       H0       H01     AOSYM     SMH    MOLCAS    OPER   

              2       4        5.26       700     1000      520     2101   
                                         GEOM     BASIS   MCVARS     RHF  

 PROGRAMS   *        TOTAL       INT   RHF-SCF       INT
 CPU TIMES  *       111.55      0.14    110.82      0.41
 REAL TIME  *       114.64 SEC
 DISK USED  *        47.36 MB (local),      189.43 MB (total)
 SF USED    *         1.42 MB
 GA USED    *         0.00 MB       (max)       0.00 MB       (current)
 **********************************************************************************************************************************


 PROGRAM * RHF-SCF (CLOSED SHELL)       Authors: W. Meyer, H.-J. Werner


 NUMBER OF ELECTRONS:       5+    5-    SPACE SYMMETRY=1    SPIN SYMMETRY: Singlet 
 CONVERGENCE THRESHOLDS:    1.00E-04 (Density)    1.00E-09 (Energy)
 INTEGRAL THRESHOLDS:       1.00E-11 (Initial)    1.00E-11 (Final)
 MAX. NUMBER OF ITERATIONS:       60
 INTERPOLATION TYPE:            DIIS
 INTERPOLATION STEPS:              2 (START)      1 (STEP)
 LEVEL SHIFTS:                  0.00 (CLOSED)  0.00 (OPEN) 



 Orbital guess generated from atomic densities. Full valence occupancy:    7

 Molecular orbital dump at record        2201.2

 Initial occupancy:   5

 Direct Fock-matrix evaluation.        Authors: Roland Lindh & Martin Schuetz (1993/96)

 Integral Threshold:                  0.1D-10
 Threshold for writing integrals:     0.1D-06
 Prescreening on density matrix:        ON 
 Calculation will be performed fully direct        

 ITERATION   DDIFF            GRAD            ENERGY        2-EL.EN.            DIPOLE MOMENTS         DIIS   CPU(IT)  CPU(TOT)
    1      0.000D+00      0.000D+00       -76.02725306     77.622937    0.61888    0.96450   -0.02521    0     14.4     17.4     start
    2      0.000D+00      0.528D-02       -76.05423996     74.025660    0.36201    0.56807   -0.01484    1     12.9     30.3     diag
    3      0.282D-02      0.330D-02       -76.06537930     75.612403    0.42571    0.66718   -0.01743    2     12.4     42.7     diag
    4      0.105D-02      0.311D-03       -76.06556452     75.522068    0.42330    0.66413   -0.01735    3     11.3     54.1     diag
    5      0.132D-03      0.846D-04       -76.06558342     75.536076    0.42244    0.66307   -0.01732    4     10.6     64.7     diag
    6      0.406D-04      0.163D-04       -76.06558455     75.535181    0.42227    0.66291   -0.01732    5     10.1     74.8     diag
    7      0.988D-05      0.323D-05       -76.06558461     75.535317    0.42221    0.66284   -0.01732    6      9.1     83.9     diag
    8      0.274D-05      0.616D-06       -76.06558461     75.535253    0.42220    0.66282   -0.01731    0      7.4     91.3     orth

 Final occupancy:   5

 !RHF STATE  1.1 Energy               -76.065584607182
 Nuclear energy                         9.15671413
 One-electron energy                 -122.98992510
 Two-electron energy                   37.76762636
 Virial quotient                       -1.00114741
 !RHF STATE  1.1 Dipole moment          0.42219596     0.66282218    -0.01731463
 Dipole moment /Debye                   1.07304482     1.68461559    -0.04400650

 Orbital energies:

         1.1          2.1          3.1          4.1          5.1          6.1          7.1
    -20.565857    -1.351345    -0.713882    -0.585854    -0.510398     0.018856     0.034850


 HOMO      5.1    -0.510398 =     -13.8886eV
 LUMO      6.1     0.018856 =       0.5131eV
 LUMO-HOMO         0.529254 =      14.4017eV


 **********************************************************************************************************************************
 DATASETS  * FILE   NREC   LENGTH (MB)   RECORD NAMES
              1      18       34.41       500      610      700      900      950      970     1000      129      960     1100   
                                          VAR    BASINP    GEOM    SYMINP    ZMAT    AOBASIS   BASIS     P2S    ABASIS      S 
                                         1400     1410     1200     1210     1080     1600     1650     1700   
                                           T        V       H0       H01     AOSYM     SMH    MOLCAS    OPER   

              2       5       12.50       700     1000      520     2101     2201   
                                         GEOM     BASIS   MCVARS     RHF      RHF  

 PROGRAMS   *        TOTAL   RHF-SCF       INT   RHF-SCF       INT
 CPU TIMES  *       202.92     91.37      0.14    110.82      0.41
 REAL TIME  *       206.51 SEC
 DISK USED  *        54.12 MB (local),      216.50 MB (total)
 SF USED    *         1.42 MB
 GA USED    *         0.00 MB       (max)       0.00 MB       (current)
 **********************************************************************************************************************************
 SETTING EA_HF          =       -76.06558461  AU                              

 Dummy atoms: O1  H1  H2


 Recomputing one-electron integrals since nuclear charges changed


 PROGRAM * SEWARD (Integral evaluation for generally contracted gaussian basis sets)     Author: Roland Lindh, 1990

 Geometry written to block  1 of record 700


 Point group  C1  



 ATOMIC COORDINATES

 NR  ATOM    CHARGE       X              Y              Z

   1  O1      0.00   -1.326958228   -0.105938530    0.018788152
   2  H1      0.00   -1.931665240    1.600174317   -0.021710523
   3  H2      0.00    0.486644278    0.079598091    0.009862479
   4  O2      8.00    8.848666106    0.013988565   -0.009722902
   5  H3      1.00    9.560377811   -0.814429698    1.438042357
   6  H4      1.00    9.552143711   -0.885923535   -1.418329483

 Bond lengths in Bohr (Angstrom)

 1-2  1.810561173  1-3  1.823090112  4-5  1.813514438  4-6  1.813531094
     ( 0.958107712)     ( 0.964737741)     ( 0.959670512)     ( 0.959679326)

 Bond angles

  2-1-3  103.66482512   5-4-6  103.95523303

 NUCLEAR CHARGE:                   10
 NUMBER OF PRIMITIVE AOS:         464
 NUMBER OF SYMMETRY AOS:          378
 NUMBER OF CONTRACTIONS:          344   (  344A   )
 NUMBER OF CORE ORBITALS:           1   (    1A   )
 NUMBER OF VALENCE ORBITALS:        6   (    6A   )

 MOLECULE CHANGED: INITIALIZING OCCUPATION AND DUMP RECORDS


 NUCLEAR REPULSION ENERGY    9.17259115


 Eigenvalues of metric

         1 0.742E-04 0.753E-04 0.959E-04 0.104E-03 0.334E-03 0.353E-03 0.426E-03 0.585E-03


 OPERATOR DM      FOR CENTER  0  COORDINATES:    0.000000    0.000000    0.000000


 **********************************************************************************************************************************
 DATASETS  * FILE   NREC   LENGTH (MB)   RECORD NAMES
              1      18       34.41       500      610      700      900      950      970     1000      129      960     1100   
                                          VAR    BASINP    GEOM    SYMINP    ZMAT    AOBASIS   BASIS     P2S    ABASIS      S 
                                         1400     1410     1200     1210     1080     1600     1650     1700   
                                           T        V       H0       H01     AOSYM     SMH    MOLCAS    OPER   

              2       5       12.50       700     1000      520     2101     2201   
                                         GEOM     BASIS   MCVARS     RHF      RHF  

 PROGRAMS   *        TOTAL       INT   RHF-SCF       INT   RHF-SCF       INT
 CPU TIMES  *       203.06      0.14     91.37      0.14    110.82      0.41
 REAL TIME  *       206.74 SEC
 DISK USED  *        54.12 MB (local),      216.50 MB (total)
 SF USED    *         1.42 MB
 GA USED    *         0.00 MB       (max)       0.00 MB       (current)
 **********************************************************************************************************************************


 PROGRAM * RHF-SCF (CLOSED SHELL)       Authors: W. Meyer, H.-J. Werner


 NUMBER OF ELECTRONS:       5+    5-    SPACE SYMMETRY=1    SPIN SYMMETRY: Singlet 
 CONVERGENCE THRESHOLDS:    1.00E-04 (Density)    1.00E-09 (Energy)
 INTEGRAL THRESHOLDS:       1.00E-11 (Initial)    1.00E-11 (Final)
 MAX. NUMBER OF ITERATIONS:       60
 INTERPOLATION TYPE:            DIIS
 INTERPOLATION STEPS:              2 (START)      1 (STEP)
 LEVEL SHIFTS:                  0.00 (CLOSED)  0.00 (OPEN) 



 Orbital guess generated from atomic densities. Full valence occupancy:    7

 Molecular orbital dump at record        2301.2

 Initial occupancy:   5

 Direct Fock-matrix evaluation.        Authors: Roland Lindh & Martin Schuetz (1993/96)

 Integral Threshold:                  0.1D-10
 Threshold for writing integrals:     0.1D-06
 Prescreening on density matrix:        ON 
 Calculation will be performed fully direct        

 ITERATION   DDIFF            GRAD            ENERGY        2-EL.EN.            DIPOLE MOMENTS         DIIS   CPU(IT)  CPU(TOT)
    1      0.000D+00      0.000D+00       -76.02753529     77.647690    0.72272   -0.88254    0.01999    0     14.8     17.9     start
    2      0.000D+00      0.528D-02       -76.05449733     74.055695    0.42596   -0.52002    0.01178    1     13.1     31.0     diag
    3      0.282D-02      0.330D-02       -76.06557311     75.638094    0.49986   -0.61031    0.01383    2     12.6     43.6     diag
    4      0.105D-02      0.311D-03       -76.06575734     75.547962    0.49749   -0.60741    0.01376    3     11.7     55.3     diag
    5      0.131D-03      0.841D-04       -76.06577593     75.561845    0.49666   -0.60640    0.01374    4     11.1     66.4     diag
    6      0.400D-04      0.161D-04       -76.06577704     75.560966    0.49652   -0.60623    0.01374    5     10.3     76.7     diag
    7      0.954D-05      0.318D-05       -76.06577709     75.561101    0.49647   -0.60616    0.01373    6      9.0     85.7     diag
    8      0.257D-05      0.613D-06       -76.06577709     75.561038    0.49645   -0.60614    0.01373    0      7.8     93.5     orth

 Final occupancy:   5

 !RHF STATE  1.1 Energy               -76.065777092237
 Nuclear energy                         9.17259115
 One-electron energy                 -123.01888706
 Two-electron energy                   37.78051882
 Virial quotient                       -1.00106812
 !RHF STATE  1.1 Dipole moment          0.49645119    -0.60614183     0.01373452
 Dipole moment /Debye                   1.26177041    -1.54055796     0.03490739

 Orbital energies:

         1.1          2.1          3.1          4.1          5.1          6.1          7.1
    -20.565425    -1.352024    -0.715395    -0.585627    -0.510453     0.024625     0.035696


 HOMO      5.1    -0.510453 =     -13.8901eV
 LUMO      6.1     0.024625 =       0.6701eV
 LUMO-HOMO         0.535078 =      14.5602eV


 **********************************************************************************************************************************
 DATASETS  * FILE   NREC   LENGTH (MB)   RECORD NAMES
              1      18       34.41       500      610      700      900      950      970     1000      129      960     1100   
                                          VAR    BASINP    GEOM    SYMINP    ZMAT    AOBASIS   BASIS     P2S    ABASIS      S 
                                         1400     1410     1200     1210     1080     1600     1650     1700   
                                           T        V       H0       H01     AOSYM     SMH    MOLCAS    OPER   

              2       6       19.74       700     1000      520     2101     2201     2301   
                                         GEOM     BASIS   MCVARS     RHF      RHF      RHF  

 PROGRAMS   *        TOTAL   RHF-SCF       INT   RHF-SCF       INT   RHF-SCF       INT
 CPU TIMES  *       296.60     93.54      0.14     91.37      0.14    110.82      0.41
 REAL TIME  *       300.83 SEC
 DISK USED  *        61.36 MB (local),      245.46 MB (total)
 SF USED    *         1.42 MB
 GA USED    *         0.00 MB       (max)       0.00 MB       (current)
 **********************************************************************************************************************************
 SETTING EB_HF          =       -76.06577709  AU                              
 SETTING E_AB_INT       =        -0.00108912  AU                              

 *** results in hartree
 E_AB_INT         =        -0.00108912 AU
 Molecular orbitals read from record     2301.2  Type=RHF/CANONICAL (state 1.1)
 Occupation numbers read from record     2301.2  Type=RHF/RHF (state 1.1)
 Orbital energies read from record       2301.2  Type=RHF/CANONICAL (state 1.1)
 Redundancy group numbers read from rec  2301.2  Type=RHF/RHF (state 1.1)

 RHF/aug-cc-pVQZ energy=    -76.065777092237

         RHF-SCF         RHF-SCF         RHF-SCF
    -76.06577709    -76.06558461   -152.13245082
 **********************************************************************************************************************************
 Molpro calculation terminated
