
     Program PWSCF v.7.2 starts on  6Oct2023 at 22:59:26 

     This program is part of the open-source Quantum ESPRESSO suite
     for quantum simulation of materials; please cite
         "P. Giannozzi et al., J. Phys.:Condens. Matter 21 395502 (2009);
         "P. Giannozzi et al., J. Phys.:Condens. Matter 29 465901 (2017);
         "P. Giannozzi et al., J. Chem. Phys. 152 154105 (2020);
          URL http://www.quantum-espresso.org", 
     in publications or presentations arising from this work. More details at
     http://www.quantum-espresso.org/quote

     Parallel version (MPI), running on    32 processors

     MPI processes distributed on     1 nodes
     251440 MiB available memory on the printing compute node when the environment starts

     Reading input from water_dimer_O_H_contact_45_precision_monomer_2.in
Warning: card &CELL ignored
Warning: card / ignored

     Current dimensions of program PWSCF are:
     Max number of different atomic species (ntypx) = 10
     Max number of k-points (npk) =  40000
     Max angular momentum in pseudopotentials (lmaxx) =  4
     file H.pbe-kjpaw_psl.1.0.0.UPF: wavefunction(s)  1S renormalized
     file O.pbe-n-kjpaw_psl.1.0.0.UPF: wavefunction(s)  2S 2P renormalized

     IMPORTANT: XC functional enforced from input :
     Exchange-correlation= PBE
                           (   1   4   3   4   0   0   0)
     Any further DFT definition will be discarded
     Please, verify this is what you really want


     gamma-point specific algorithms are used

     R & G space division:  proc/nbgrp/npool/nimage =      32
     Subspace diagonalization in iterative solution of the eigenvalue problem:
     a serial algorithm will be used


     Parallelization info
     --------------------
     sticks:   dense  smooth     PW     G-vecs:    dense   smooth      PW
     Min        6395    6395   1598              2177048  2177048  272114
     Max        6398    6398   1600              2177062  2177062  272124
     Sum      204693  204693  51189             69665707 69665707 8707803

     Using Slab Decomposition



     bravais-lattice index     =            0
     lattice parameter (alat)  =      66.1404  a.u.
     unit-cell volume          =  289334.8415 (a.u.)^3
     number of atoms/cell      =            3
     number of atomic types    =            2
     number of electrons       =         8.00
     number of Kohn-Sham states=            4
     kinetic-energy cutoff     =     147.0000  Ry
     charge density cutoff     =     588.0000  Ry
     scf convergence threshold =      1.0E-07
     mixing beta               =       0.7000
     number of iterations used =            8  plain     mixing
     Exchange-correlation= PBE
                           (   1   4   3   4   0   0   0)

     celldm(1)=  66.140414  celldm(2)=   0.000000  celldm(3)=   0.000000
     celldm(4)=   0.000000  celldm(5)=   0.000000  celldm(6)=   0.000000

     crystal axes: (cart. coord. in units of alat)
               a(1) = (   1.000000   0.000000   0.000000 )  
               a(2) = (   0.000000   1.000000   0.000000 )  
               a(3) = (   0.000000   0.000000   1.000000 )  

     reciprocal axes: (cart. coord. in units 2 pi/alat)
               b(1) = (  1.000000  0.000000  0.000000 )  
               b(2) = (  0.000000  1.000000  0.000000 )  
               b(3) = (  0.000000  0.000000  1.000000 )  


     PseudoPot. # 1 for H  read from file:
     /home/users/klimj2am/src/pslibrary.1.0.0/pbe/PSEUDOPOTENTIALS/H.pbe-kjpaw_psl.1.0.0.UPF
     MD5 check sum: 220281c0717fd894cece6904c624ceaa
     Pseudo is Projector augmented-wave, Zval =  1.0
     Generated using 'atomic' code by A. Dal Corso  v.7.2
     Shape of augmentation charge: PSQ
     Using radial grid of  929 points,  2 beta functions with: 
                l(1) =   0
                l(2) =   0
     Q(r) pseudized with 0 coefficients 


     PseudoPot. # 2 for O  read from file:
     /home/users/klimj2am/src/pslibrary.1.0.0/pbe/PSEUDOPOTENTIALS/O.pbe-n-kjpaw_psl.1.0.0.UPF
     MD5 check sum: 48e285564fec6dca10ec424bc53b541b
     Pseudo is Projector augmented-wave + core cor, Zval =  6.0
     Generated using 'atomic' code by A. Dal Corso  v.7.2
     Shape of augmentation charge: PSQ
     Using radial grid of 1095 points,  4 beta functions with: 
                l(1) =   0
                l(2) =   0
                l(3) =   1
                l(4) =   1
     Q(r) pseudized with 0 coefficients 


     atomic species   valence    mass     pseudopotential
        H              1.00     1.00800     H ( 1.00)
        O              6.00    15.99900     O ( 1.00)

     No symmetry found



   Cartesian axes

     site n.     atom                  positions (alat units)
         1           H   tau(   1) = (   0.0006882   0.1636261   0.0000369  )
         2           H   tau(   2) = (   0.0281370   0.1971379  -0.0004668  )
         3           O   tau(   3) = (   0.0013498   0.1910859   0.0000724  )

     number of k points=     1
                       cart. coord. in units 2pi/alat
        k(    1) = (   0.0000000   0.0000000   0.0000000), wk =   2.0000000

     Dense  grid: 34832854 G-vectors     FFT dimensions: ( 512, 512, 512)

     Estimated max dynamical RAM per process >       1.52 GB

     Estimated total dynamical RAM >      48.61 GB

     Initial potential from superposition of free atoms

     starting charge       8.0000, renormalised to       8.0000

     negative rho (up, down):  6.416E-04 0.000E+00
     Starting wfcs are    6 randomized atomic wfcs
     Checking if some PAW data can be deallocated... 

     total cpu time spent up to now is       36.6 secs

     Self-consistent Calculation

     iteration #  1     ecut=   147.00 Ry     beta= 0.70
     Davidson diagonalization with overlap
     ethr =  1.00E-02,  avg # of iterations =  3.0

     negative rho (up, down):  8.561E-04 0.000E+00

     total cpu time spent up to now is       45.4 secs

     total energy              =     -43.78031512 Ry
     estimated scf accuracy    <       0.49722162 Ry

     iteration #  2     ecut=   147.00 Ry     beta= 0.70
     Davidson diagonalization with overlap
     ethr =  6.22E-03,  avg # of iterations =  5.0

     negative rho (up, down):  9.123E-04 0.000E+00

     total cpu time spent up to now is       54.8 secs

     total energy              =     -43.97470748 Ry
     estimated scf accuracy    <       0.17300566 Ry

     iteration #  3     ecut=   147.00 Ry     beta= 0.70
     Davidson diagonalization with overlap
     ethr =  2.16E-03,  avg # of iterations =  3.0

     negative rho (up, down):  1.103E-03 0.000E+00

     total cpu time spent up to now is       63.3 secs

     total energy              =     -43.99842539 Ry
     estimated scf accuracy    <       0.03563884 Ry

     iteration #  4     ecut=   147.00 Ry     beta= 0.70
     Davidson diagonalization with overlap
     ethr =  4.45E-04,  avg # of iterations =  5.0

     negative rho (up, down):  1.211E-03 0.000E+00

     total cpu time spent up to now is       72.2 secs

     total energy              =     -44.03618742 Ry
     estimated scf accuracy    <       0.01083651 Ry

     iteration #  5     ecut=   147.00 Ry     beta= 0.70
     Davidson diagonalization with overlap
     ethr =  1.35E-04,  avg # of iterations =  4.0

     negative rho (up, down):  1.198E-03 0.000E+00

     total cpu time spent up to now is       80.9 secs

     total energy              =     -44.03857579 Ry
     estimated scf accuracy    <       0.00141134 Ry

     iteration #  6     ecut=   147.00 Ry     beta= 0.70
     Davidson diagonalization with overlap
     ethr =  1.76E-05,  avg # of iterations =  5.0

     negative rho (up, down):  1.236E-03 0.000E+00

     total cpu time spent up to now is       90.4 secs

     total energy              =     -44.03944663 Ry
     estimated scf accuracy    <       0.00044611 Ry

     iteration #  7     ecut=   147.00 Ry     beta= 0.70
     Davidson diagonalization with overlap
     ethr =  5.58E-06,  avg # of iterations =  2.0

     negative rho (up, down):  1.264E-03 0.000E+00

     total cpu time spent up to now is       98.6 secs

     total energy              =     -44.03942349 Ry
     estimated scf accuracy    <       0.00024456 Ry

     iteration #  8     ecut=   147.00 Ry     beta= 0.70
     Davidson diagonalization with overlap
     ethr =  3.06E-06,  avg # of iterations =  1.0

     negative rho (up, down):  1.261E-03 0.000E+00

     total cpu time spent up to now is      106.6 secs

     total energy              =     -44.03940880 Ry
     estimated scf accuracy    <       0.00007143 Ry

     iteration #  9     ecut=   147.00 Ry     beta= 0.70
     Davidson diagonalization with overlap
     ethr =  8.93E-07,  avg # of iterations =  2.0

     negative rho (up, down):  1.261E-03 0.000E+00

     total cpu time spent up to now is      115.0 secs

     total energy              =     -44.03941752 Ry
     estimated scf accuracy    <       0.00001937 Ry

     iteration # 10     ecut=   147.00 Ry     beta= 0.70
     Davidson diagonalization with overlap
     ethr =  2.42E-07,  avg # of iterations =  5.0

     negative rho (up, down):  1.261E-03 0.000E+00

     total cpu time spent up to now is      124.2 secs

     total energy              =     -44.03943063 Ry
     estimated scf accuracy    <       0.00000437 Ry

     iteration # 11     ecut=   147.00 Ry     beta= 0.70
     Davidson diagonalization with overlap
     ethr =  5.46E-08,  avg # of iterations =  5.0

     negative rho (up, down):  1.260E-03 0.000E+00

     total cpu time spent up to now is      133.6 secs

     total energy              =     -44.03943053 Ry
     estimated scf accuracy    <       0.00000733 Ry

     iteration # 12     ecut=   147.00 Ry     beta= 0.70
     Davidson diagonalization with overlap
     ethr =  5.46E-08,  avg # of iterations =  1.0

     negative rho (up, down):  1.259E-03 0.000E+00

     total cpu time spent up to now is      141.7 secs

     total energy              =     -44.03943041 Ry
     estimated scf accuracy    <       0.00000304 Ry

     iteration # 13     ecut=   147.00 Ry     beta= 0.70
     Davidson diagonalization with overlap
     ethr =  3.81E-08,  avg # of iterations =  3.0

     negative rho (up, down):  1.258E-03 0.000E+00

     total cpu time spent up to now is      150.6 secs

     total energy              =     -44.03943319 Ry
     estimated scf accuracy    <       0.00000450 Ry

     iteration # 14     ecut=   147.00 Ry     beta= 0.70
     Davidson diagonalization with overlap
     ethr =  3.81E-08,  avg # of iterations =  3.0

     negative rho (up, down):  1.258E-03 0.000E+00

     total cpu time spent up to now is      159.5 secs

     total energy              =     -44.03943441 Ry
     estimated scf accuracy    <       0.00001274 Ry

     iteration # 15     ecut=   147.00 Ry     beta= 0.70
     Davidson diagonalization with overlap
     ethr =  3.81E-08,  avg # of iterations =  1.0

     negative rho (up, down):  1.258E-03 0.000E+00

     total cpu time spent up to now is      167.5 secs

     total energy              =     -44.03943140 Ry
     estimated scf accuracy    <       0.00001308 Ry

     iteration # 16     ecut=   147.00 Ry     beta= 0.70
     Davidson diagonalization with overlap
     ethr =  3.81E-08,  avg # of iterations =  1.0

     negative rho (up, down):  1.258E-03 0.000E+00

     total cpu time spent up to now is      175.4 secs

     total energy              =     -44.03942543 Ry
     estimated scf accuracy    <       0.00000823 Ry

     iteration # 17     ecut=   147.00 Ry     beta= 0.70
     Davidson diagonalization with overlap
     ethr =  3.81E-08,  avg # of iterations =  8.0

     negative rho (up, down):  1.258E-03 0.000E+00

     total cpu time spent up to now is      186.8 secs

     total energy              =     -44.03943053 Ry
     estimated scf accuracy    <       0.00001445 Ry

     iteration # 18     ecut=   147.00 Ry     beta= 0.70
     Davidson diagonalization with overlap
     ethr =  3.81E-08,  avg # of iterations =  2.0

     negative rho (up, down):  1.258E-03 0.000E+00

     total cpu time spent up to now is      195.1 secs

     total energy              =     -44.03942937 Ry
     estimated scf accuracy    <       0.00000806 Ry

     iteration # 19     ecut=   147.00 Ry     beta= 0.70
     Davidson diagonalization with overlap
     ethr =  3.81E-08,  avg # of iterations =  2.0

     negative rho (up, down):  1.258E-03 0.000E+00

     total cpu time spent up to now is      203.7 secs

     total energy              =     -44.03942970 Ry
     estimated scf accuracy    <       0.00000272 Ry

     iteration # 20     ecut=   147.00 Ry     beta= 0.70
     Davidson diagonalization with overlap
     ethr =  3.40E-08,  avg # of iterations =  2.0

     negative rho (up, down):  1.259E-03 0.000E+00

     total cpu time spent up to now is      212.0 secs

     total energy              =     -44.03942966 Ry
     estimated scf accuracy    <       0.00000144 Ry

     iteration # 21     ecut=   147.00 Ry     beta= 0.70
     Davidson diagonalization with overlap
     ethr =  1.80E-08,  avg # of iterations =  2.0

     negative rho (up, down):  1.259E-03 0.000E+00

     total cpu time spent up to now is      220.3 secs

     total energy              =     -44.03942955 Ry
     estimated scf accuracy    <       0.00000085 Ry

     iteration # 22     ecut=   147.00 Ry     beta= 0.70
     Davidson diagonalization with overlap
     ethr =  1.06E-08,  avg # of iterations =  2.0

     negative rho (up, down):  1.259E-03 0.000E+00

     total cpu time spent up to now is      228.6 secs

     total energy              =     -44.03942963 Ry
     estimated scf accuracy    <       0.00000035 Ry

     iteration # 23     ecut=   147.00 Ry     beta= 0.70
     Davidson diagonalization with overlap
     ethr =  4.43E-09,  avg # of iterations =  6.0

     negative rho (up, down):  1.258E-03 0.000E+00

     total cpu time spent up to now is      237.9 secs

     End of self-consistent calculation

          k = 0.0000 0.0000 0.0000 (****** PWs)   bands (ev):

   -25.4004 -13.1534  -9.3244  -7.2434

     highest occupied level (ev):    -7.2434

!    total energy              =     -44.03942998 Ry
     total all-electron energy =      -152.886312 Ry
     estimated scf accuracy    <       0.00000009 Ry

     The total energy is the sum of the following terms:
     one-electron contribution =     -76.77671179 Ry
     hartree contribution      =      40.03044577 Ry
     xc contribution           =      -8.87046918 Ry
     ewald contribution        =      11.16380212 Ry
     one-center paw contrib.   =      -9.58649690 Ry

     charge density inside the Wigner-Seitz cell:    8.00000000

     reference position (x0):         0.30526962   12.46150954    0.00003675 bohr

     Dipole moments (with respect to x0):
     Elect   0.5520  -0.4523  -0.0121 au (Ha),   1.4032  -1.1497  -0.0308 Debye
     Ionic   0.0000  -0.0000   0.0000 au (Ha),   0.0000  -0.0000   0.0000 Debye
     Total   0.5520  -0.4523  -0.0121 au (Ha),   1.4032  -1.1497  -0.0308 Debye

     Electrons quadrupole moment        -20.06758937 a.u. (Ha)
          Ions quadrupole moment          5.97697447 a.u. (Ha)
         Total quadrupole moment        -14.09061490 a.u. (Ha)

     *********    MAKOV-PAYNE CORRECTION    *********

     Makov-Payne correction with Madelung constant =   2.8373

     Makov-Payne correction     0.00000000 Ry =  0.000 eV (1st order, 1/a0)
                                0.00000738 Ry =  0.000 eV (2nd order, 1/a0^3)
                                0.00000738 Ry =  0.000 eV (total)

!    Total+Makov-Payne energy  =     -44.03942260 Ry
     Corrected vacuum level    =       0.00277529 eV

     convergence has been achieved in  23 iterations

     Writing all to output data dir ./pwscf.save/

     init_run     :     33.68s CPU     36.19s WALL (       1 calls)
     electrons    :    175.00s CPU    204.24s WALL (       1 calls)

     Called by init_run:
     wfcinit      :      0.86s CPU      0.98s WALL (       1 calls)
     potinit      :      3.60s CPU      4.62s WALL (       1 calls)
     hinit0       :      1.59s CPU      1.93s WALL (       1 calls)

     Called by electrons:
     c_bands      :     43.21s CPU     46.01s WALL (      23 calls)
     sum_band     :     42.64s CPU     50.56s WALL (      23 calls)
     v_of_rho     :     50.43s CPU     61.21s WALL (      24 calls)
     newd         :     19.74s CPU     26.38s WALL (      24 calls)
     PAW_pot      :      0.26s CPU      0.29s WALL (      24 calls)
     mix_rho      :     17.91s CPU     19.00s WALL (      23 calls)

     Called by c_bands:
     init_us_2    :      0.89s CPU      0.94s WALL (      47 calls)
     init_us_2:cp :      0.89s CPU      0.94s WALL (      47 calls)
     regterg      :     42.25s CPU     45.00s WALL (      23 calls)

     Called by *egterg:
     rdiaghg      :      0.01s CPU      0.02s WALL (      96 calls)
     h_psi        :     38.14s CPU     40.93s WALL (      97 calls)
     s_psi        :      0.59s CPU      0.59s WALL (      97 calls)
     g_psi        :      0.14s CPU      0.14s WALL (      73 calls)

     Called by h_psi:
     h_psi:calbec :      0.65s CPU      0.66s WALL (      97 calls)
     vloc_psi     :     36.63s CPU     39.40s WALL (      97 calls)
     add_vuspsi   :      0.58s CPU      0.60s WALL (      97 calls)

     General routines
     calbec       :      0.82s CPU      0.83s WALL (     120 calls)
     fft          :     41.99s CPU     50.29s WALL (     216 calls)
     ffts         :      3.83s CPU      4.66s WALL (      23 calls)
     fftw         :     33.08s CPU     36.07s WALL (     368 calls)

     Parallel routines

     PWSCF        :   3m30.55s CPU   4m 4.27s WALL


   This run was terminated on:  23: 3:30   6Oct2023            

=------------------------------------------------------------------------------=
   JOB DONE.
=------------------------------------------------------------------------------=
