
     Program PWSCF v.7.2 starts on  6Oct2023 at 22:52:25 

     This program is part of the open-source Quantum ESPRESSO suite
     for quantum simulation of materials; please cite
         "P. Giannozzi et al., J. Phys.:Condens. Matter 21 395502 (2009);
         "P. Giannozzi et al., J. Phys.:Condens. Matter 29 465901 (2017);
         "P. Giannozzi et al., J. Chem. Phys. 152 154105 (2020);
          URL http://www.quantum-espresso.org", 
     in publications or presentations arising from this work. More details at
     http://www.quantum-espresso.org/quote

     Parallel version (MPI), running on    32 processors

     MPI processes distributed on     1 nodes
     245008 MiB available memory on the printing compute node when the environment starts

     Reading input from water_dimer_O_H_contact_16_precision_monomer_2.in
Warning: card &CELL ignored
Warning: card / ignored

     Current dimensions of program PWSCF are:
     Max number of different atomic species (ntypx) = 10
     Max number of k-points (npk) =  40000
     Max angular momentum in pseudopotentials (lmaxx) =  4
     file H.pbe-kjpaw_psl.1.0.0.UPF: wavefunction(s)  1S renormalized
     file O.pbe-n-kjpaw_psl.1.0.0.UPF: wavefunction(s)  2S 2P renormalized

     IMPORTANT: XC functional enforced from input :
     Exchange-correlation= PBE
                           (   1   4   3   4   0   0   0)
     Any further DFT definition will be discarded
     Please, verify this is what you really want


     gamma-point specific algorithms are used

     R & G space division:  proc/nbgrp/npool/nimage =      32
     Subspace diagonalization in iterative solution of the eigenvalue problem:
     a serial algorithm will be used


     Parallelization info
     --------------------
     sticks:   dense  smooth     PW     G-vecs:    dense   smooth      PW
     Min        6395    6395   1598              2177048  2177048  272114
     Max        6398    6398   1600              2177062  2177062  272124
     Sum      204693  204693  51189             69665707 69665707 8707803

     Using Slab Decomposition



     bravais-lattice index     =            0
     lattice parameter (alat)  =      66.1404  a.u.
     unit-cell volume          =  289334.8415 (a.u.)^3
     number of atoms/cell      =            3
     number of atomic types    =            2
     number of electrons       =         8.00
     number of Kohn-Sham states=            4
     kinetic-energy cutoff     =     147.0000  Ry
     charge density cutoff     =     588.0000  Ry
     scf convergence threshold =      1.0E-07
     mixing beta               =       0.7000
     number of iterations used =            8  plain     mixing
     Exchange-correlation= PBE
                           (   1   4   3   4   0   0   0)

     celldm(1)=  66.140414  celldm(2)=   0.000000  celldm(3)=   0.000000
     celldm(4)=   0.000000  celldm(5)=   0.000000  celldm(6)=   0.000000

     crystal axes: (cart. coord. in units of alat)
               a(1) = (   1.000000   0.000000   0.000000 )  
               a(2) = (   0.000000   1.000000   0.000000 )  
               a(3) = (   0.000000   0.000000   1.000000 )  

     reciprocal axes: (cart. coord. in units 2 pi/alat)
               b(1) = (  1.000000  0.000000  0.000000 )  
               b(2) = (  0.000000  1.000000  0.000000 )  
               b(3) = (  0.000000  0.000000  1.000000 )  


     PseudoPot. # 1 for H  read from file:
     /home/users/klimj2am/src/pslibrary.1.0.0/pbe/PSEUDOPOTENTIALS/H.pbe-kjpaw_psl.1.0.0.UPF
     MD5 check sum: 220281c0717fd894cece6904c624ceaa
     Pseudo is Projector augmented-wave, Zval =  1.0
     Generated using 'atomic' code by A. Dal Corso  v.7.2
     Shape of augmentation charge: PSQ
     Using radial grid of  929 points,  2 beta functions with: 
                l(1) =   0
                l(2) =   0
     Q(r) pseudized with 0 coefficients 


     PseudoPot. # 2 for O  read from file:
     /home/users/klimj2am/src/pslibrary.1.0.0/pbe/PSEUDOPOTENTIALS/O.pbe-n-kjpaw_psl.1.0.0.UPF
     MD5 check sum: 48e285564fec6dca10ec424bc53b541b
     Pseudo is Projector augmented-wave + core cor, Zval =  6.0
     Generated using 'atomic' code by A. Dal Corso  v.7.2
     Shape of augmentation charge: PSQ
     Using radial grid of 1095 points,  4 beta functions with: 
                l(1) =   0
                l(2) =   0
                l(3) =   1
                l(4) =   1
     Q(r) pseudized with 0 coefficients 


     atomic species   valence    mass     pseudopotential
        H              1.00     1.00800     H ( 1.00)
        O              6.00    15.99900     O ( 1.00)

     No symmetry found



   Cartesian axes

     site n.     atom                  positions (alat units)
         1           H   tau(   1) = (   0.0006882   0.0807690   0.0000369  )
         2           H   tau(   2) = (   0.0281370   0.1142808  -0.0004668  )
         3           O   tau(   3) = (   0.0013498   0.1082287   0.0000724  )

     number of k points=     1
                       cart. coord. in units 2pi/alat
        k(    1) = (   0.0000000   0.0000000   0.0000000), wk =   2.0000000

     Dense  grid: 34832854 G-vectors     FFT dimensions: ( 512, 512, 512)

     Estimated max dynamical RAM per process >       1.52 GB

     Estimated total dynamical RAM >      48.61 GB

     Initial potential from superposition of free atoms

     starting charge       8.0000, renormalised to       8.0000

     negative rho (up, down):  6.414E-04 0.000E+00
     Starting wfcs are    6 randomized atomic wfcs
     Checking if some PAW data can be deallocated... 

     total cpu time spent up to now is       39.6 secs

     Self-consistent Calculation

     iteration #  1     ecut=   147.00 Ry     beta= 0.70
     Davidson diagonalization with overlap
     ethr =  1.00E-02,  avg # of iterations =  3.0

     negative rho (up, down):  8.560E-04 0.000E+00

     total cpu time spent up to now is       48.4 secs

     total energy              =     -43.78031510 Ry
     estimated scf accuracy    <       0.49722158 Ry

     iteration #  2     ecut=   147.00 Ry     beta= 0.70
     Davidson diagonalization with overlap
     ethr =  6.22E-03,  avg # of iterations =  5.0

     negative rho (up, down):  9.121E-04 0.000E+00

     total cpu time spent up to now is       57.9 secs

     total energy              =     -43.97470744 Ry
     estimated scf accuracy    <       0.17300566 Ry

     iteration #  3     ecut=   147.00 Ry     beta= 0.70
     Davidson diagonalization with overlap
     ethr =  2.16E-03,  avg # of iterations =  3.0

     negative rho (up, down):  1.103E-03 0.000E+00

     total cpu time spent up to now is       66.6 secs

     total energy              =     -43.99842540 Ry
     estimated scf accuracy    <       0.03563885 Ry

     iteration #  4     ecut=   147.00 Ry     beta= 0.70
     Davidson diagonalization with overlap
     ethr =  4.45E-04,  avg # of iterations =  5.0

     negative rho (up, down):  1.211E-03 0.000E+00

     total cpu time spent up to now is       75.5 secs

     total energy              =     -44.03618740 Ry
     estimated scf accuracy    <       0.01083648 Ry

     iteration #  5     ecut=   147.00 Ry     beta= 0.70
     Davidson diagonalization with overlap
     ethr =  1.35E-04,  avg # of iterations =  4.0

     negative rho (up, down):  1.197E-03 0.000E+00

     total cpu time spent up to now is       84.2 secs

     total energy              =     -44.03857576 Ry
     estimated scf accuracy    <       0.00141134 Ry

     iteration #  6     ecut=   147.00 Ry     beta= 0.70
     Davidson diagonalization with overlap
     ethr =  1.76E-05,  avg # of iterations =  5.0

     negative rho (up, down):  1.236E-03 0.000E+00

     total cpu time spent up to now is       93.8 secs

     total energy              =     -44.03944661 Ry
     estimated scf accuracy    <       0.00044610 Ry

     iteration #  7     ecut=   147.00 Ry     beta= 0.70
     Davidson diagonalization with overlap
     ethr =  5.58E-06,  avg # of iterations =  2.0

     negative rho (up, down):  1.264E-03 0.000E+00

     total cpu time spent up to now is      102.2 secs

     total energy              =     -44.03942345 Ry
     estimated scf accuracy    <       0.00024455 Ry

     iteration #  8     ecut=   147.00 Ry     beta= 0.70
     Davidson diagonalization with overlap
     ethr =  3.06E-06,  avg # of iterations =  1.0

     negative rho (up, down):  1.261E-03 0.000E+00

     total cpu time spent up to now is      110.2 secs

     total energy              =     -44.03940877 Ry
     estimated scf accuracy    <       0.00007143 Ry

     iteration #  9     ecut=   147.00 Ry     beta= 0.70
     Davidson diagonalization with overlap
     ethr =  8.93E-07,  avg # of iterations =  2.0

     negative rho (up, down):  1.261E-03 0.000E+00

     total cpu time spent up to now is      118.6 secs

     total energy              =     -44.03941748 Ry
     estimated scf accuracy    <       0.00001937 Ry

     iteration # 10     ecut=   147.00 Ry     beta= 0.70
     Davidson diagonalization with overlap
     ethr =  2.42E-07,  avg # of iterations =  5.0

     negative rho (up, down):  1.261E-03 0.000E+00

     total cpu time spent up to now is      127.9 secs

     total energy              =     -44.03943060 Ry
     estimated scf accuracy    <       0.00000437 Ry

     iteration # 11     ecut=   147.00 Ry     beta= 0.70
     Davidson diagonalization with overlap
     ethr =  5.46E-08,  avg # of iterations =  5.0

     negative rho (up, down):  1.260E-03 0.000E+00

     total cpu time spent up to now is      137.4 secs

     total energy              =     -44.03943050 Ry
     estimated scf accuracy    <       0.00000733 Ry

     iteration # 12     ecut=   147.00 Ry     beta= 0.70
     Davidson diagonalization with overlap
     ethr =  5.46E-08,  avg # of iterations =  1.0

     negative rho (up, down):  1.259E-03 0.000E+00

     total cpu time spent up to now is      145.5 secs

     total energy              =     -44.03943038 Ry
     estimated scf accuracy    <       0.00000305 Ry

     iteration # 13     ecut=   147.00 Ry     beta= 0.70
     Davidson diagonalization with overlap
     ethr =  3.81E-08,  avg # of iterations =  3.0

     negative rho (up, down):  1.258E-03 0.000E+00

     total cpu time spent up to now is      154.5 secs

     total energy              =     -44.03943318 Ry
     estimated scf accuracy    <       0.00000452 Ry

     iteration # 14     ecut=   147.00 Ry     beta= 0.70
     Davidson diagonalization with overlap
     ethr =  3.81E-08,  avg # of iterations =  3.0

     negative rho (up, down):  1.258E-03 0.000E+00

     total cpu time spent up to now is      163.5 secs

     total energy              =     -44.03943440 Ry
     estimated scf accuracy    <       0.00001278 Ry

     iteration # 15     ecut=   147.00 Ry     beta= 0.70
     Davidson diagonalization with overlap
     ethr =  3.81E-08,  avg # of iterations =  1.0

     negative rho (up, down):  1.258E-03 0.000E+00

     total cpu time spent up to now is      171.5 secs

     total energy              =     -44.03943139 Ry
     estimated scf accuracy    <       0.00001313 Ry

     iteration # 16     ecut=   147.00 Ry     beta= 0.70
     Davidson diagonalization with overlap
     ethr =  3.81E-08,  avg # of iterations =  1.0

     negative rho (up, down):  1.258E-03 0.000E+00

     total cpu time spent up to now is      179.6 secs

     total energy              =     -44.03942540 Ry
     estimated scf accuracy    <       0.00000826 Ry

     iteration # 17     ecut=   147.00 Ry     beta= 0.70
     Davidson diagonalization with overlap
     ethr =  3.81E-08,  avg # of iterations =  8.0

     negative rho (up, down):  1.258E-03 0.000E+00

     total cpu time spent up to now is      191.0 secs

     total energy              =     -44.03943049 Ry
     estimated scf accuracy    <       0.00001431 Ry

     iteration # 18     ecut=   147.00 Ry     beta= 0.70
     Davidson diagonalization with overlap
     ethr =  3.81E-08,  avg # of iterations =  2.0

     negative rho (up, down):  1.258E-03 0.000E+00

     total cpu time spent up to now is      199.5 secs

     total energy              =     -44.03942934 Ry
     estimated scf accuracy    <       0.00000797 Ry

     iteration # 19     ecut=   147.00 Ry     beta= 0.70
     Davidson diagonalization with overlap
     ethr =  3.81E-08,  avg # of iterations =  2.0

     negative rho (up, down):  1.258E-03 0.000E+00

     total cpu time spent up to now is      208.2 secs

     total energy              =     -44.03942968 Ry
     estimated scf accuracy    <       0.00000268 Ry

     iteration # 20     ecut=   147.00 Ry     beta= 0.70
     Davidson diagonalization with overlap
     ethr =  3.36E-08,  avg # of iterations =  2.0

     negative rho (up, down):  1.258E-03 0.000E+00

     total cpu time spent up to now is      216.6 secs

     total energy              =     -44.03942963 Ry
     estimated scf accuracy    <       0.00000143 Ry

     iteration # 21     ecut=   147.00 Ry     beta= 0.70
     Davidson diagonalization with overlap
     ethr =  1.78E-08,  avg # of iterations =  2.0

     negative rho (up, down):  1.258E-03 0.000E+00

     total cpu time spent up to now is      225.0 secs

     total energy              =     -44.03942953 Ry
     estimated scf accuracy    <       0.00000084 Ry

     iteration # 22     ecut=   147.00 Ry     beta= 0.70
     Davidson diagonalization with overlap
     ethr =  1.05E-08,  avg # of iterations =  2.0

     negative rho (up, down):  1.258E-03 0.000E+00

     total cpu time spent up to now is      233.8 secs

     total energy              =     -44.03942962 Ry
     estimated scf accuracy    <       0.00000035 Ry

     iteration # 23     ecut=   147.00 Ry     beta= 0.70
     Davidson diagonalization with overlap
     ethr =  4.33E-09,  avg # of iterations =  6.0

     negative rho (up, down):  1.258E-03 0.000E+00

     total cpu time spent up to now is      244.0 secs

     total energy              =     -44.03943002 Ry
     estimated scf accuracy    <       0.00000011 Ry

     iteration # 24     ecut=   147.00 Ry     beta= 0.70
     Davidson diagonalization with overlap
     ethr =  1.31E-09,  avg # of iterations =  3.0

     negative rho (up, down):  1.259E-03 0.000E+00

     total cpu time spent up to now is      252.6 secs

     total energy              =     -44.03943017 Ry
     estimated scf accuracy    <       0.00000018 Ry

     iteration # 25     ecut=   147.00 Ry     beta= 0.70
     Davidson diagonalization with overlap
     ethr =  1.31E-09,  avg # of iterations =  2.0

     negative rho (up, down):  1.259E-03 0.000E+00

     total cpu time spent up to now is      261.0 secs

     total energy              =     -44.03943039 Ry
     estimated scf accuracy    <       0.00000040 Ry

     iteration # 26     ecut=   147.00 Ry     beta= 0.70
     Davidson diagonalization with overlap
     ethr =  1.31E-09,  avg # of iterations =  7.0

     negative rho (up, down):  1.259E-03 0.000E+00

     total cpu time spent up to now is      271.8 secs

     total energy              =     -44.03943064 Ry
     estimated scf accuracy    <       0.00000192 Ry

     iteration # 27     ecut=   147.00 Ry     beta= 0.70
     Davidson diagonalization with overlap
     ethr =  1.31E-09,  avg # of iterations =  1.0

     negative rho (up, down):  1.259E-03 0.000E+00

     total cpu time spent up to now is      279.9 secs

     total energy              =     -44.03943035 Ry
     estimated scf accuracy    <       0.00000211 Ry

     iteration # 28     ecut=   147.00 Ry     beta= 0.70
     Davidson diagonalization with overlap
     ethr =  1.31E-09,  avg # of iterations =  2.0

     negative rho (up, down):  1.258E-03 0.000E+00

     total cpu time spent up to now is      288.3 secs

     total energy              =     -44.03942995 Ry
     estimated scf accuracy    <       0.00000162 Ry

     iteration # 29     ecut=   147.00 Ry     beta= 0.70
     Davidson diagonalization with overlap
     ethr =  1.31E-09,  avg # of iterations =  6.0

     negative rho (up, down):  1.258E-03 0.000E+00

     total cpu time spent up to now is      298.5 secs

     total energy              =     -44.03943000 Ry
     estimated scf accuracy    <       0.00000040 Ry

     iteration # 30     ecut=   147.00 Ry     beta= 0.70
     Davidson diagonalization with overlap
     ethr =  1.31E-09,  avg # of iterations =  2.0

     negative rho (up, down):  1.258E-03 0.000E+00

     total cpu time spent up to now is      306.9 secs

     total energy              =     -44.03942993 Ry
     estimated scf accuracy    <       0.00000017 Ry

     iteration # 31     ecut=   147.00 Ry     beta= 0.70
     Davidson diagonalization with overlap
     ethr =  1.31E-09,  avg # of iterations =  6.0

     negative rho (up, down):  1.258E-03 0.000E+00

     total cpu time spent up to now is      316.2 secs

     End of self-consistent calculation

          k = 0.0000 0.0000 0.0000 (****** PWs)   bands (ev):

   -25.4032 -13.1557  -9.3275  -7.2466

     highest occupied level (ev):    -7.2466

!    total energy              =     -44.03942995 Ry
     total all-electron energy =      -152.886311 Ry
     estimated scf accuracy    <       0.00000008 Ry

     The total energy is the sum of the following terms:
     one-electron contribution =     -76.77864783 Ry
     hartree contribution      =      40.03288114 Ry
     xc contribution           =      -8.87093569 Ry
     ewald contribution        =      11.16380230 Ry
     one-center paw contrib.   =      -9.58652987 Ry

     charge density inside the Wigner-Seitz cell:    8.00000000

     reference position (x0):         0.30526962    6.98130376    0.00003675 bohr

     Dipole moments (with respect to x0):
     Elect   0.5523  -0.4525  -0.0121 au (Ha),   1.4038  -1.1501  -0.0309 Debye
     Ionic   0.0000  -0.0000   0.0000 au (Ha),   0.0000  -0.0000   0.0000 Debye
     Total   0.5523  -0.4525  -0.0121 au (Ha),   1.4038  -1.1501  -0.0309 Debye

     Electrons quadrupole moment        -20.06478499 a.u. (Ha)
          Ions quadrupole moment          5.97697426 a.u. (Ha)
         Total quadrupole moment        -14.08781073 a.u. (Ha)

     *********    MAKOV-PAYNE CORRECTION    *********

     Makov-Payne correction with Madelung constant =   2.8373

     Makov-Payne correction     0.00000000 Ry =  0.000 eV (1st order, 1/a0)
                                0.00000738 Ry =  0.000 eV (2nd order, 1/a0^3)
                                0.00000738 Ry =  0.000 eV (total)

!    Total+Makov-Payne energy  =     -44.03942257 Ry
     Corrected vacuum level    =       0.00277474 eV

     convergence has been achieved in  31 iterations

     Writing all to output data dir ./pwscf.save/

     init_run     :     36.95s CPU     39.18s WALL (       1 calls)
     electrons    :    239.46s CPU    279.44s WALL (       1 calls)

     Called by init_run:
     wfcinit      :      0.81s CPU      0.98s WALL (       1 calls)
     potinit      :      3.99s CPU      4.80s WALL (       1 calls)
     hinit0       :      3.42s CPU      3.78s WALL (       1 calls)

     Called by electrons:
     c_bands      :     61.36s CPU     64.39s WALL (      31 calls)
     sum_band     :     57.63s CPU     68.53s WALL (      31 calls)
     v_of_rho     :     67.13s CPU     82.10s WALL (      32 calls)
     newd         :     26.18s CPU     35.63s WALL (      32 calls)
     PAW_pot      :      0.49s CPU      0.50s WALL (      32 calls)
     mix_rho      :     25.57s CPU     26.85s WALL (      31 calls)

     Called by c_bands:
     init_us_2    :      1.22s CPU      1.25s WALL (      63 calls)
     init_us_2:cp :      1.22s CPU      1.25s WALL (      63 calls)
     regterg      :     60.02s CPU     63.03s WALL (      31 calls)

     Called by *egterg:
     rdiaghg      :      0.01s CPU      0.02s WALL (     133 calls)
     h_psi        :     53.76s CPU     56.82s WALL (     134 calls)
     s_psi        :      0.82s CPU      0.83s WALL (     134 calls)
     g_psi        :      0.20s CPU      0.20s WALL (     102 calls)

     Called by h_psi:
     h_psi:calbec :      0.88s CPU      0.89s WALL (     134 calls)
     vloc_psi     :     51.64s CPU     54.68s WALL (     134 calls)
     add_vuspsi   :      0.85s CPU      0.85s WALL (     134 calls)

     General routines
     calbec       :      1.16s CPU      1.17s WALL (     165 calls)
     fft          :     56.45s CPU     68.24s WALL (     288 calls)
     ffts         :      5.39s CPU      6.25s WALL (      31 calls)
     fftw         :     46.78s CPU     50.16s WALL (     506 calls)

     Parallel routines

     PWSCF        :   4m38.16s CPU   5m22.49s WALL


   This run was terminated on:  22:57:48   6Oct2023            

=------------------------------------------------------------------------------=
   JOB DONE.
=------------------------------------------------------------------------------=
