
     Program PWSCF v.7.2 starts on 12Oct2023 at 17:22:13 

     This program is part of the open-source Quantum ESPRESSO suite
     for quantum simulation of materials; please cite
         "P. Giannozzi et al., J. Phys.:Condens. Matter 21 395502 (2009);
         "P. Giannozzi et al., J. Phys.:Condens. Matter 29 465901 (2017);
         "P. Giannozzi et al., J. Chem. Phys. 152 154105 (2020);
          URL http://www.quantum-espresso.org", 
     in publications or presentations arising from this work. More details at
     http://www.quantum-espresso.org/quote

     Parallel version (MPI), running on    32 processors

     MPI processes distributed on     1 nodes
     502282 MiB available memory on the printing compute node when the environment starts

     Reading input from 03WaterMeNH2100_efficiency_monomer_2.in
Warning: card &CELL ignored
Warning: card / ignored

     Current dimensions of program PWSCF are:
     Max number of different atomic species (ntypx) = 10
     Max number of k-points (npk) =  40000
     Max angular momentum in pseudopotentials (lmaxx) =  4
     file N.pbe-n-kjpaw_psl.1.0.0.UPF: wavefunction(s)  2S renormalized
     file H.pbe-kjpaw_psl.1.0.0.UPF: wavefunction(s)  1S renormalized
     file C.pbe-n-kjpaw_psl.1.0.0.UPF: wavefunction(s)  2S 2P renormalized

     IMPORTANT: XC functional enforced from input :
     Exchange-correlation= PBE
                           (   1   4   3   4   0   0   0)
     Any further DFT definition will be discarded
     Please, verify this is what you really want


     gamma-point specific algorithms are used

     R & G space division:  proc/nbgrp/npool/nimage =      32
     Subspace diagonalization in iterative solution of the eigenvalue problem:
     a serial algorithm will be used


     Parallelization info
     --------------------
     sticks:   dense  smooth     PW     G-vecs:    dense   smooth      PW
     Min        6395    6395   1598              2177048  2177048  272114
     Max        6398    6398   1600              2177062  2177062  272124
     Sum      204693  204693  51189             69665707 69665707 8707803

     Using Slab Decomposition



     bravais-lattice index     =            0
     lattice parameter (alat)  =      66.1404  a.u.
     unit-cell volume          =  289334.8415 (a.u.)^3
     number of atoms/cell      =            7
     number of atomic types    =            3
     number of electrons       =        14.00
     number of Kohn-Sham states=            7
     kinetic-energy cutoff     =     147.0000  Ry
     charge density cutoff     =     588.0000  Ry
     scf convergence threshold =      1.0E-08
     mixing beta               =       0.7000
     number of iterations used =            8  plain     mixing
     Exchange-correlation= PBE
                           (   1   4   3   4   0   0   0)

     celldm(1)=  66.140414  celldm(2)=   0.000000  celldm(3)=   0.000000
     celldm(4)=   0.000000  celldm(5)=   0.000000  celldm(6)=   0.000000

     crystal axes: (cart. coord. in units of alat)
               a(1) = (   1.000000   0.000000   0.000000 )  
               a(2) = (   0.000000   1.000000   0.000000 )  
               a(3) = (   0.000000   0.000000   1.000000 )  

     reciprocal axes: (cart. coord. in units 2 pi/alat)
               b(1) = (  1.000000  0.000000  0.000000 )  
               b(2) = (  0.000000  1.000000  0.000000 )  
               b(3) = (  0.000000  0.000000  1.000000 )  


     PseudoPot. # 1 for N  read from file:
     /home/users/klimj2am/src/pslibrary.1.0.0/pbe/PSEUDOPOTENTIALS/N.pbe-n-kjpaw_psl.1.0.0.UPF
     MD5 check sum: ed3381810ced4c04e88f7c2008d4036c
     Pseudo is Projector augmented-wave + core cor, Zval =  5.0
     Generated using 'atomic' code by A. Dal Corso  v.7.2
     Shape of augmentation charge: PSQ
     Using radial grid of 1085 points,  4 beta functions with: 
                l(1) =   0
                l(2) =   0
                l(3) =   1
                l(4) =   1
     Q(r) pseudized with 0 coefficients 


     PseudoPot. # 2 for H  read from file:
     /home/users/klimj2am/src/pslibrary.1.0.0/pbe/PSEUDOPOTENTIALS/H.pbe-kjpaw_psl.1.0.0.UPF
     MD5 check sum: 220281c0717fd894cece6904c624ceaa
     Pseudo is Projector augmented-wave, Zval =  1.0
     Generated using 'atomic' code by A. Dal Corso  v.7.2
     Shape of augmentation charge: PSQ
     Using radial grid of  929 points,  2 beta functions with: 
                l(1) =   0
                l(2) =   0
     Q(r) pseudized with 0 coefficients 


     PseudoPot. # 3 for C  read from file:
     /home/users/klimj2am/src/pslibrary.1.0.0/pbe/PSEUDOPOTENTIALS/C.pbe-n-kjpaw_psl.1.0.0.UPF
     MD5 check sum: 9d4797b4e2669f30c50dcc814f8da1dd
     Pseudo is Projector augmented-wave + core cor, Zval =  4.0
     Generated using 'atomic' code by A. Dal Corso  v.7.2
     Shape of augmentation charge: PSQ
     Using radial grid of 1073 points,  4 beta functions with: 
                l(1) =   0
                l(2) =   0
                l(3) =   1
                l(4) =   1
     Q(r) pseudized with 0 coefficients 


     atomic species   valence    mass     pseudopotential
        N              5.00    14.00700     N ( 1.00)
        H              1.00     1.00800     H ( 1.00)
        C              4.00    12.01100     C ( 1.00)

     No symmetry found



   Cartesian axes

     site n.     atom                  positions (alat units)
         1           N   tau(   1) = (   0.0652691   0.0030049   0.0001741  )
         2           H   tau(   2) = (   0.0737081  -0.0127847  -0.0225342  )
         3           H   tau(   3) = (   0.0741286  -0.0115871   0.0235130  )
         4           C   tau(   4) = (   0.0841073   0.0403868  -0.0009756  )
         5           H   tau(   5) = (   0.0752346   0.0570075   0.0237248  )
         6           H   tau(   6) = (   0.1152875   0.0392641  -0.0012315  )
         7           H   tau(   7) = (   0.0747726   0.0556987  -0.0263420  )

     number of k points=     1
                       cart. coord. in units 2pi/alat
        k(    1) = (   0.0000000   0.0000000   0.0000000), wk =   2.0000000

     Dense  grid: 34832854 G-vectors     FFT dimensions: ( 512, 512, 512)

     Estimated max dynamical RAM per process >       1.64 GB

     Estimated total dynamical RAM >      52.33 GB

     Initial potential from superposition of free atoms

     starting charge      13.9999, renormalised to      14.0000

     negative rho (up, down):  4.708E-04 0.000E+00
     Starting wfcs are   13 randomized atomic wfcs
     Checking if some PAW data can be deallocated... 

     total cpu time spent up to now is       33.7 secs

     Self-consistent Calculation

     iteration #  1     ecut=   147.00 Ry     beta= 0.70
     Davidson diagonalization with overlap
     ethr =  1.00E-02,  avg # of iterations =  2.0

     negative rho (up, down):  9.469E-04 0.000E+00

     total cpu time spent up to now is       46.6 secs

     total energy              =     -52.27720090 Ry
     estimated scf accuracy    <       0.93579777 Ry

     iteration #  2     ecut=   147.00 Ry     beta= 0.70
     Davidson diagonalization with overlap
     ethr =  6.68E-03,  avg # of iterations =  2.0

     negative rho (up, down):  9.112E-04 0.000E+00

     total cpu time spent up to now is       59.0 secs

     total energy              =     -52.49885705 Ry
     estimated scf accuracy    <       0.43907649 Ry

     iteration #  3     ecut=   147.00 Ry     beta= 0.70
     Davidson diagonalization with overlap
     ethr =  3.14E-03,  avg # of iterations =  2.0

     negative rho (up, down):  9.905E-04 0.000E+00

     total cpu time spent up to now is       71.5 secs

     total energy              =     -52.57998672 Ry
     estimated scf accuracy    <       0.01098958 Ry

     iteration #  4     ecut=   147.00 Ry     beta= 0.70
     Davidson diagonalization with overlap
     ethr =  7.85E-05,  avg # of iterations =  2.0

     negative rho (up, down):  1.011E-03 0.000E+00

     total cpu time spent up to now is       84.1 secs

     total energy              =     -52.58211738 Ry
     estimated scf accuracy    <       0.00289557 Ry

     iteration #  5     ecut=   147.00 Ry     beta= 0.70
     Davidson diagonalization with overlap
     ethr =  2.07E-05,  avg # of iterations =  2.0

     negative rho (up, down):  1.016E-03 0.000E+00

     total cpu time spent up to now is       96.1 secs

     total energy              =     -52.58249385 Ry
     estimated scf accuracy    <       0.00015865 Ry

     iteration #  6     ecut=   147.00 Ry     beta= 0.70
     Davidson diagonalization with overlap
     ethr =  1.13E-06,  avg # of iterations =  3.0

     negative rho (up, down):  1.021E-03 0.000E+00

     total cpu time spent up to now is      108.9 secs

     total energy              =     -52.58254456 Ry
     estimated scf accuracy    <       0.00001168 Ry

     iteration #  7     ecut=   147.00 Ry     beta= 0.70
     Davidson diagonalization with overlap
     ethr =  8.34E-08,  avg # of iterations =  2.0

     negative rho (up, down):  1.021E-03 0.000E+00

     total cpu time spent up to now is      121.6 secs

     total energy              =     -52.58254720 Ry
     estimated scf accuracy    <       0.00000274 Ry

     iteration #  8     ecut=   147.00 Ry     beta= 0.70
     Davidson diagonalization with overlap
     ethr =  1.96E-08,  avg # of iterations =  2.0

     negative rho (up, down):  1.021E-03 0.000E+00

     total cpu time spent up to now is      134.5 secs

     total energy              =     -52.58254774 Ry
     estimated scf accuracy    <       0.00000001 Ry

     iteration #  9     ecut=   147.00 Ry     beta= 0.70
     Davidson diagonalization with overlap
     ethr =  1.04E-10,  avg # of iterations =  5.0

     negative rho (up, down):  1.021E-03 0.000E+00

     total cpu time spent up to now is      149.1 secs

     total energy              =     -52.58254775 Ry
     estimated scf accuracy    <       0.00000005 Ry

     iteration # 10     ecut=   147.00 Ry     beta= 0.70
     Davidson diagonalization with overlap
     ethr =  1.04E-10,  avg # of iterations =  2.0

     negative rho (up, down):  1.021E-03 0.000E+00

     total cpu time spent up to now is      161.0 secs

     End of self-consistent calculation

          k = 0.0000 0.0000 0.0000 (****** PWs)   bands (ev):

   -21.7996 -16.2477 -11.9936 -10.7411  -9.7468  -8.8214  -5.4467

     highest occupied level (ev):    -5.4467

!    total energy              =     -52.58254775 Ry
     total all-electron energy =      -191.645421 Ry
     estimated scf accuracy    <          1.9E-09 Ry

     The total energy is the sum of the following terms:
     one-electron contribution =    -142.32422847 Ry
     hartree contribution      =      73.13485101 Ry
     xc contribution           =     -14.00661470 Ry
     ewald contribution        =      44.75049638 Ry
     one-center paw contrib.   =     -14.13705198 Ry

     charge density inside the Wigner-Seitz cell:   14.00000000

     reference position (x0):         5.08291964    1.43699592   -0.02788238 bohr

     Dipole moments (with respect to x0):
     Elect   0.5177  -0.0871  -0.0025 au (Ha),   1.3160  -0.2213  -0.0063 Debye
     Ionic  -0.0000  -0.0000   0.0000 au (Ha),  -0.0000  -0.0000   0.0000 Debye
     Total   0.5177  -0.0871  -0.0025 au (Ha),   1.3160  -0.2213  -0.0063 Debye

     Electrons quadrupole moment        -87.80332475 a.u. (Ha)
          Ions quadrupole moment         56.23865128 a.u. (Ha)
         Total quadrupole moment        -31.56467346 a.u. (Ha)

     *********    MAKOV-PAYNE CORRECTION    *********

     Makov-Payne correction with Madelung constant =   2.8373

     Makov-Payne correction     0.00000000 Ry =  0.000 eV (1st order, 1/a0)
                                0.00000399 Ry =  0.000 eV (2nd order, 1/a0^3)
                                0.00000399 Ry =  0.000 eV (total)

!    Total+Makov-Payne energy  =     -52.58254376 Ry
     Corrected vacuum level    =       0.00621767 eV

     convergence has been achieved in  10 iterations

     Writing all to output data dir ./pwscf.save/

     init_run     :     29.73s CPU     32.97s WALL (       1 calls)
     electrons    :    106.19s CPU    129.89s WALL (       1 calls)

     Called by init_run:
     wfcinit      :      1.70s CPU      2.00s WALL (       1 calls)
     potinit      :      3.75s CPU      4.96s WALL (       1 calls)
     hinit0       :      2.05s CPU      2.41s WALL (       1 calls)

     Called by electrons:
     c_bands      :     34.03s CPU     36.18s WALL (      10 calls)
     sum_band     :     31.10s CPU     38.76s WALL (      10 calls)
     v_of_rho     :     20.89s CPU     27.98s WALL (      11 calls)
     newd         :     14.93s CPU     21.89s WALL (      11 calls)
     PAW_pot      :      0.18s CPU      0.18s WALL (      11 calls)
     mix_rho      :      5.99s CPU      6.46s WALL (      10 calls)

     Called by c_bands:
     init_us_2    :      0.52s CPU      0.54s WALL (      21 calls)
     init_us_2:cp :      0.52s CPU      0.54s WALL (      21 calls)
     regterg      :     33.34s CPU     35.48s WALL (      10 calls)

     Called by *egterg:
     rdiaghg      :      0.01s CPU      0.02s WALL (      34 calls)
     h_psi        :     29.21s CPU     31.45s WALL (      35 calls)
     s_psi        :      1.27s CPU      1.29s WALL (      35 calls)
     g_psi        :      0.09s CPU      0.09s WALL (      24 calls)

     Called by h_psi:
     h_psi:calbec :      1.17s CPU      1.20s WALL (      35 calls)
     vloc_psi     :     26.55s CPU     28.75s WALL (      35 calls)
     add_vuspsi   :      1.28s CPU      1.29s WALL (      35 calls)

     General routines
     calbec       :      1.53s CPU      1.56s WALL (      45 calls)
     fft          :     17.44s CPU     21.74s WALL (      99 calls)
     ffts         :      1.60s CPU      1.84s WALL (      10 calls)
     fftw         :     23.67s CPU     26.08s WALL (     302 calls)

     Parallel routines

     PWSCF        :   2m17.63s CPU   2m47.02s WALL


   This run was terminated on:  17:25: 0  12Oct2023            

=------------------------------------------------------------------------------=
   JOB DONE.
=------------------------------------------------------------------------------=
