
     Program PWSCF v.7.2 starts on 12Oct2023 at 17:22:29 

     This program is part of the open-source Quantum ESPRESSO suite
     for quantum simulation of materials; please cite
         "P. Giannozzi et al., J. Phys.:Condens. Matter 21 395502 (2009);
         "P. Giannozzi et al., J. Phys.:Condens. Matter 29 465901 (2017);
         "P. Giannozzi et al., J. Chem. Phys. 152 154105 (2020);
          URL http://www.quantum-espresso.org", 
     in publications or presentations arising from this work. More details at
     http://www.quantum-espresso.org/quote

     Parallel version (MPI), running on    32 processors

     MPI processes distributed on     1 nodes
     251592 MiB available memory on the printing compute node when the environment starts

     Reading input from 05MeOHMeOH100_efficiency_monomer_2.in
Warning: card &CELL ignored
Warning: card / ignored

     Current dimensions of program PWSCF are:
     Max number of different atomic species (ntypx) = 10
     Max number of k-points (npk) =  40000
     Max angular momentum in pseudopotentials (lmaxx) =  4
     file O.pbe-nl-kjpaw_psl.1.0.0.UPF: wavefunction(s)  2S 2P renormalized
     file H.pbe-kjpaw_psl.1.0.0.UPF: wavefunction(s)  1S renormalized
     file C.pbe-n-kjpaw_psl.1.0.0.UPF: wavefunction(s)  2S 2P renormalized

     IMPORTANT: XC functional enforced from input :
     Exchange-correlation= PBE
                           (   1   4   3   4   0   0   0)
     Any further DFT definition will be discarded
     Please, verify this is what you really want


     gamma-point specific algorithms are used

     R & G space division:  proc/nbgrp/npool/nimage =      32
     Subspace diagonalization in iterative solution of the eigenvalue problem:
     a serial algorithm will be used


     Parallelization info
     --------------------
     sticks:   dense  smooth     PW     G-vecs:    dense   smooth      PW
     Min        6395    6395   1598              2177048  2177048  272114
     Max        6398    6398   1600              2177062  2177062  272124
     Sum      204693  204693  51189             69665707 69665707 8707803

     Using Slab Decomposition



     bravais-lattice index     =            0
     lattice parameter (alat)  =      66.1404  a.u.
     unit-cell volume          =  289334.8415 (a.u.)^3
     number of atoms/cell      =            6
     number of atomic types    =            3
     number of electrons       =        14.00
     number of Kohn-Sham states=            7
     kinetic-energy cutoff     =     147.0000  Ry
     charge density cutoff     =     588.0000  Ry
     scf convergence threshold =      1.0E-08
     mixing beta               =       0.7000
     number of iterations used =            8  plain     mixing
     Exchange-correlation= PBE
                           (   1   4   3   4   0   0   0)

     celldm(1)=  66.140414  celldm(2)=   0.000000  celldm(3)=   0.000000
     celldm(4)=   0.000000  celldm(5)=   0.000000  celldm(6)=   0.000000

     crystal axes: (cart. coord. in units of alat)
               a(1) = (   1.000000   0.000000   0.000000 )  
               a(2) = (   0.000000   1.000000   0.000000 )  
               a(3) = (   0.000000   0.000000   1.000000 )  

     reciprocal axes: (cart. coord. in units 2 pi/alat)
               b(1) = (  1.000000  0.000000  0.000000 )  
               b(2) = (  0.000000  1.000000  0.000000 )  
               b(3) = (  0.000000  0.000000  1.000000 )  


     PseudoPot. # 1 for O  read from file:
     /home/users/klimj2am/src/pslibrary.1.0.0/pbe/PSEUDOPOTENTIALS/O.pbe-nl-kjpaw_psl.1.0.0.UPF
     MD5 check sum: 3be12c084656f77eefcab7bec6207024
     Pseudo is Projector augmented-wave + core cor, Zval =  6.0
     Generated using 'atomic' code by A. Dal Corso  v.7.2
     Shape of augmentation charge: PSQ
     Using radial grid of 1095 points,  4 beta functions with: 
                l(1) =   0
                l(2) =   0
                l(3) =   1
                l(4) =   1
     Q(r) pseudized with 0 coefficients 


     PseudoPot. # 2 for H  read from file:
     /home/users/klimj2am/src/pslibrary.1.0.0/pbe/PSEUDOPOTENTIALS/H.pbe-kjpaw_psl.1.0.0.UPF
     MD5 check sum: 220281c0717fd894cece6904c624ceaa
     Pseudo is Projector augmented-wave, Zval =  1.0
     Generated using 'atomic' code by A. Dal Corso  v.7.2
     Shape of augmentation charge: PSQ
     Using radial grid of  929 points,  2 beta functions with: 
                l(1) =   0
                l(2) =   0
     Q(r) pseudized with 0 coefficients 


     PseudoPot. # 3 for C  read from file:
     /home/users/klimj2am/src/pslibrary.1.0.0/pbe/PSEUDOPOTENTIALS/C.pbe-n-kjpaw_psl.1.0.0.UPF
     MD5 check sum: 9d4797b4e2669f30c50dcc814f8da1dd
     Pseudo is Projector augmented-wave + core cor, Zval =  4.0
     Generated using 'atomic' code by A. Dal Corso  v.7.2
     Shape of augmentation charge: PSQ
     Using radial grid of 1073 points,  4 beta functions with: 
                l(1) =   0
                l(2) =   0
                l(3) =   1
                l(4) =   1
     Q(r) pseudized with 0 coefficients 


     atomic species   valence    mass     pseudopotential
        O              6.00    15.99900     O ( 1.00)
        H              1.00     1.00800     H ( 1.00)
        C              4.00    12.01100     C ( 1.00)

     No symmetry found



   Cartesian axes

     site n.     atom                  positions (alat units)
         1           O   tau(   1) = (   0.0640355  -0.0035239  -0.0003868  )
         2           H   tau(   2) = (   0.0774295   0.0140299  -0.0166630  )
         3           C   tau(   3) = (   0.0785737   0.0009623   0.0373766  )
         4           H   tau(   4) = (   0.0627574  -0.0187004   0.0553803  )
         5           H   tau(   5) = (   0.1088307  -0.0061931   0.0389972  )
         6           H   tau(   6) = (   0.0742182   0.0298393   0.0481735  )

     number of k points=     1
                       cart. coord. in units 2pi/alat
        k(    1) = (   0.0000000   0.0000000   0.0000000), wk =   2.0000000

     Dense  grid: 34832854 G-vectors     FFT dimensions: ( 512, 512, 512)

     Estimated max dynamical RAM per process >       1.61 GB

     Estimated total dynamical RAM >      51.68 GB

     Initial potential from superposition of free atoms

     starting charge      13.9999, renormalised to      14.0000

     negative rho (up, down):  7.057E-04 0.000E+00
     Starting wfcs are   12 randomized atomic wfcs
     Checking if some PAW data can be deallocated... 

     total cpu time spent up to now is       42.5 secs

     Self-consistent Calculation

     iteration #  1     ecut=   147.00 Ry     beta= 0.70
     Davidson diagonalization with overlap
     ethr =  1.00E-02,  avg # of iterations =  2.0

     negative rho (up, down):  7.566E-04 0.000E+00

     total cpu time spent up to now is       55.3 secs

     total energy              =     -64.60395582 Ry
     estimated scf accuracy    <       0.68862835 Ry

     iteration #  2     ecut=   147.00 Ry     beta= 0.70
     Davidson diagonalization with overlap
     ethr =  4.92E-03,  avg # of iterations =  3.0

     negative rho (up, down):  6.665E-04 0.000E+00

     total cpu time spent up to now is       68.2 secs

     total energy              =     -64.75541041 Ry
     estimated scf accuracy    <       0.29118777 Ry

     iteration #  3     ecut=   147.00 Ry     beta= 0.70
     Davidson diagonalization with overlap
     ethr =  2.08E-03,  avg # of iterations =  2.0

     negative rho (up, down):  6.702E-04 0.000E+00

     total cpu time spent up to now is       80.2 secs

     total energy              =     -64.80962208 Ry
     estimated scf accuracy    <       0.00791465 Ry

     iteration #  4     ecut=   147.00 Ry     beta= 0.70
     Davidson diagonalization with overlap
     ethr =  5.65E-05,  avg # of iterations =  5.0

     negative rho (up, down):  6.884E-04 0.000E+00

     total cpu time spent up to now is       94.1 secs

     total energy              =     -64.81308387 Ry
     estimated scf accuracy    <       0.00921537 Ry

     iteration #  5     ecut=   147.00 Ry     beta= 0.70
     Davidson diagonalization with overlap
     ethr =  5.65E-05,  avg # of iterations =  2.0

     negative rho (up, down):  6.970E-04 0.000E+00

     total cpu time spent up to now is      106.4 secs

     total energy              =     -64.81453714 Ry
     estimated scf accuracy    <       0.00022342 Ry

     iteration #  6     ecut=   147.00 Ry     beta= 0.70
     Davidson diagonalization with overlap
     ethr =  1.60E-06,  avg # of iterations =  4.0

     negative rho (up, down):  6.956E-04 0.000E+00

     total cpu time spent up to now is      120.6 secs

     total energy              =     -64.81476028 Ry
     estimated scf accuracy    <       0.00031497 Ry

     iteration #  7     ecut=   147.00 Ry     beta= 0.70
     Davidson diagonalization with overlap
     ethr =  1.60E-06,  avg # of iterations =  2.0

     negative rho (up, down):  6.951E-04 0.000E+00

     total cpu time spent up to now is      132.6 secs

     total energy              =     -64.81476133 Ry
     estimated scf accuracy    <       0.00004263 Ry

     iteration #  8     ecut=   147.00 Ry     beta= 0.70
     Davidson diagonalization with overlap
     ethr =  3.05E-07,  avg # of iterations =  3.0

     negative rho (up, down):  6.956E-04 0.000E+00

     total cpu time spent up to now is      146.1 secs

     total energy              =     -64.81477919 Ry
     estimated scf accuracy    <       0.00000762 Ry

     iteration #  9     ecut=   147.00 Ry     beta= 0.70
     Davidson diagonalization with overlap
     ethr =  5.44E-08,  avg # of iterations =  2.0

     negative rho (up, down):  6.956E-04 0.000E+00

     total cpu time spent up to now is      158.3 secs

     total energy              =     -64.81477967 Ry
     estimated scf accuracy    <       0.00000109 Ry

     iteration # 10     ecut=   147.00 Ry     beta= 0.70
     Davidson diagonalization with overlap
     ethr =  7.81E-09,  avg # of iterations =  2.0

     negative rho (up, down):  6.956E-04 0.000E+00

     total cpu time spent up to now is      170.8 secs

     total energy              =     -64.81477988 Ry
     estimated scf accuracy    <       0.00000009 Ry

     iteration # 11     ecut=   147.00 Ry     beta= 0.70
     Davidson diagonalization with overlap
     ethr =  6.29E-10,  avg # of iterations =  3.0

     negative rho (up, down):  6.956E-04 0.000E+00

     total cpu time spent up to now is      183.4 secs

     End of self-consistent calculation

          k = 0.0000 0.0000 0.0000 (****** PWs)   bands (ev):

   -25.5084 -16.9064 -12.5080 -10.6895 -10.3620  -8.0103  -6.2985

     highest occupied level (ev):    -6.2985

!    total energy              =     -64.81477992 Ry
     total all-electron energy =      -231.425755 Ry
     estimated scf accuracy    <          1.6E-09 Ry

     The total energy is the sum of the following terms:
     one-electron contribution =    -157.36066422 Ry
     hartree contribution      =      81.07981582 Ry
     xc contribution           =     -14.95462613 Ry
     ewald contribution        =      42.17373620 Ry
     one-center paw contrib.   =     -15.75304158 Ry

     charge density inside the Wigner-Seitz cell:   14.00000000

     reference position (x0):         4.82703958    0.00794325    1.29008532 bohr

     Dipole moments (with respect to x0):
     Elect   0.4569   0.4098   0.1692 au (Ha),   1.1613   1.0416   0.4300 Debye
     Ionic   0.0000  -0.0000  -0.0000 au (Ha),   0.0000  -0.0000  -0.0000 Debye
     Total   0.4569   0.4098   0.1692 au (Ha),   1.1613   1.0416   0.4300 Debye

     Electrons quadrupole moment        -77.45015655 a.u. (Ha)
          Ions quadrupole moment         48.19985727 a.u. (Ha)
         Total quadrupole moment        -29.25029928 a.u. (Ha)

     *********    MAKOV-PAYNE CORRECTION    *********

     Makov-Payne correction with Madelung constant =   2.8373

     Makov-Payne correction     0.00000000 Ry =  0.000 eV (1st order, 1/a0)
                                0.00000587 Ry =  0.000 eV (2nd order, 1/a0^3)
                                0.00000587 Ry =  0.000 eV (total)

!    Total+Makov-Payne energy  =     -64.81477405 Ry
     Corrected vacuum level    =       0.00575980 eV

     convergence has been achieved in  11 iterations

     Writing all to output data dir ./pwscf.save/

     init_run     :     39.12s CPU     41.81s WALL (       1 calls)
     electrons    :    122.31s CPU    143.89s WALL (       1 calls)

     Called by init_run:
     wfcinit      :      1.62s CPU      1.87s WALL (       1 calls)
     potinit      :      4.51s CPU      5.36s WALL (       1 calls)
     hinit0       :      6.05s CPU      6.40s WALL (       1 calls)

     Called by electrons:
     c_bands      :     41.44s CPU     43.79s WALL (      11 calls)
     sum_band     :     33.93s CPU     40.58s WALL (      11 calls)
     v_of_rho     :     25.36s CPU     31.09s WALL (      12 calls)
     newd         :     15.34s CPU     21.60s WALL (      12 calls)
     PAW_pot      :      0.18s CPU      0.19s WALL (      12 calls)
     mix_rho      :      6.78s CPU      7.39s WALL (      11 calls)

     Called by c_bands:
     init_us_2    :      0.68s CPU      0.71s WALL (      23 calls)
     init_us_2:cp :      0.68s CPU      0.71s WALL (      23 calls)
     regterg      :     40.58s CPU     42.91s WALL (      11 calls)

     Called by *egterg:
     rdiaghg      :      0.01s CPU      0.02s WALL (      41 calls)
     h_psi        :     35.68s CPU     38.11s WALL (      42 calls)
     s_psi        :      1.36s CPU      1.37s WALL (      42 calls)
     g_psi        :      0.12s CPU      0.12s WALL (      30 calls)

     Called by h_psi:
     h_psi:calbec :      1.10s CPU      1.10s WALL (      42 calls)
     vloc_psi     :     32.99s CPU     35.40s WALL (      42 calls)
     add_vuspsi   :      1.36s CPU      1.38s WALL (      42 calls)

     General routines
     calbec       :      1.43s CPU      1.44s WALL (      53 calls)
     fft          :     21.07s CPU     25.70s WALL (     108 calls)
     ffts         :      1.86s CPU      2.24s WALL (      11 calls)
     fftw         :     30.34s CPU     32.98s WALL (     334 calls)

     Parallel routines

     PWSCF        :   2m43.42s CPU   3m10.41s WALL


   This run was terminated on:  17:25:39  12Oct2023            

=------------------------------------------------------------------------------=
   JOB DONE.
=------------------------------------------------------------------------------=
