
     Program PWSCF v.7.2 starts on 12Oct2023 at 17:23:16 

     This program is part of the open-source Quantum ESPRESSO suite
     for quantum simulation of materials; please cite
         "P. Giannozzi et al., J. Phys.:Condens. Matter 21 395502 (2009);
         "P. Giannozzi et al., J. Phys.:Condens. Matter 29 465901 (2017);
         "P. Giannozzi et al., J. Chem. Phys. 152 154105 (2020);
          URL http://www.quantum-espresso.org", 
     in publications or presentations arising from this work. More details at
     http://www.quantum-espresso.org/quote

     Parallel version (MPI), running on    32 processors

     MPI processes distributed on     1 nodes
     508939 MiB available memory on the printing compute node when the environment starts

     Reading input from 10MeNH2MeNH2100_efficiency_monomer_2.in
Warning: card &CELL ignored
Warning: card / ignored

     Current dimensions of program PWSCF are:
     Max number of different atomic species (ntypx) = 10
     Max number of k-points (npk) =  40000
     Max angular momentum in pseudopotentials (lmaxx) =  4
     file N.pbe-n-kjpaw_psl.1.0.0.UPF: wavefunction(s)  2S renormalized
     file H.pbe-kjpaw_psl.1.0.0.UPF: wavefunction(s)  1S renormalized
     file C.pbe-n-kjpaw_psl.1.0.0.UPF: wavefunction(s)  2S 2P renormalized

     IMPORTANT: XC functional enforced from input :
     Exchange-correlation= PBE
                           (   1   4   3   4   0   0   0)
     Any further DFT definition will be discarded
     Please, verify this is what you really want


     gamma-point specific algorithms are used

     R & G space division:  proc/nbgrp/npool/nimage =      32
     Subspace diagonalization in iterative solution of the eigenvalue problem:
     a serial algorithm will be used


     Parallelization info
     --------------------
     sticks:   dense  smooth     PW     G-vecs:    dense   smooth      PW
     Min        6395    6395   1598              2177048  2177048  272114
     Max        6398    6398   1600              2177062  2177062  272124
     Sum      204693  204693  51189             69665707 69665707 8707803

     Using Slab Decomposition



     bravais-lattice index     =            0
     lattice parameter (alat)  =      66.1404  a.u.
     unit-cell volume          =  289334.8415 (a.u.)^3
     number of atoms/cell      =            7
     number of atomic types    =            3
     number of electrons       =        14.00
     number of Kohn-Sham states=            7
     kinetic-energy cutoff     =     147.0000  Ry
     charge density cutoff     =     588.0000  Ry
     scf convergence threshold =      1.0E-08
     mixing beta               =       0.7000
     number of iterations used =            8  plain     mixing
     Exchange-correlation= PBE
                           (   1   4   3   4   0   0   0)

     celldm(1)=  66.140414  celldm(2)=   0.000000  celldm(3)=   0.000000
     celldm(4)=   0.000000  celldm(5)=   0.000000  celldm(6)=   0.000000

     crystal axes: (cart. coord. in units of alat)
               a(1) = (   1.000000   0.000000   0.000000 )  
               a(2) = (   0.000000   1.000000   0.000000 )  
               a(3) = (   0.000000   0.000000   1.000000 )  

     reciprocal axes: (cart. coord. in units 2 pi/alat)
               b(1) = (  1.000000  0.000000  0.000000 )  
               b(2) = (  0.000000  1.000000  0.000000 )  
               b(3) = (  0.000000  0.000000  1.000000 )  


     PseudoPot. # 1 for N  read from file:
     /home/users/klimj2am/src/pslibrary.1.0.0/pbe/PSEUDOPOTENTIALS/N.pbe-n-kjpaw_psl.1.0.0.UPF
     MD5 check sum: ed3381810ced4c04e88f7c2008d4036c
     Pseudo is Projector augmented-wave + core cor, Zval =  5.0
     Generated using 'atomic' code by A. Dal Corso  v.7.2
     Shape of augmentation charge: PSQ
     Using radial grid of 1085 points,  4 beta functions with: 
                l(1) =   0
                l(2) =   0
                l(3) =   1
                l(4) =   1
     Q(r) pseudized with 0 coefficients 


     PseudoPot. # 2 for H  read from file:
     /home/users/klimj2am/src/pslibrary.1.0.0/pbe/PSEUDOPOTENTIALS/H.pbe-kjpaw_psl.1.0.0.UPF
     MD5 check sum: 220281c0717fd894cece6904c624ceaa
     Pseudo is Projector augmented-wave, Zval =  1.0
     Generated using 'atomic' code by A. Dal Corso  v.7.2
     Shape of augmentation charge: PSQ
     Using radial grid of  929 points,  2 beta functions with: 
                l(1) =   0
                l(2) =   0
     Q(r) pseudized with 0 coefficients 


     PseudoPot. # 3 for C  read from file:
     /home/users/klimj2am/src/pslibrary.1.0.0/pbe/PSEUDOPOTENTIALS/C.pbe-n-kjpaw_psl.1.0.0.UPF
     MD5 check sum: 9d4797b4e2669f30c50dcc814f8da1dd
     Pseudo is Projector augmented-wave + core cor, Zval =  4.0
     Generated using 'atomic' code by A. Dal Corso  v.7.2
     Shape of augmentation charge: PSQ
     Using radial grid of 1073 points,  4 beta functions with: 
                l(1) =   0
                l(2) =   0
                l(3) =   1
                l(4) =   1
     Q(r) pseudized with 0 coefficients 


     atomic species   valence    mass     pseudopotential
        N              5.00    14.00700     N ( 1.00)
        H              1.00     1.00800     H ( 1.00)
        C              4.00    12.01100     C ( 1.00)

     No symmetry found



   Cartesian axes

     site n.     atom                  positions (alat units)
         1           N   tau(   1) = (   0.0694460  -0.0131550   0.0057130  )
         2           H   tau(   2) = (   0.0779108  -0.0053111  -0.0208008  )
         3           H   tau(   3) = (   0.0872617  -0.0345176   0.0135758  )
         4           C   tau(   4) = (   0.0740240   0.0192796   0.0318181  )
         5           H   tau(   5) = (   0.0663043   0.0102883   0.0605510  )
         6           H   tau(   6) = (   0.1028072   0.0313303   0.0328744  )
         7           H   tau(   7) = (   0.0542371   0.0417303   0.0234564  )

     number of k points=     1
                       cart. coord. in units 2pi/alat
        k(    1) = (   0.0000000   0.0000000   0.0000000), wk =   2.0000000

     Dense  grid: 34832854 G-vectors     FFT dimensions: ( 512, 512, 512)

     Estimated max dynamical RAM per process >       1.64 GB

     Estimated total dynamical RAM >      52.33 GB

     Initial potential from superposition of free atoms

     starting charge      13.9999, renormalised to      14.0000

     negative rho (up, down):  4.708E-04 0.000E+00
     Starting wfcs are   13 randomized atomic wfcs
     Checking if some PAW data can be deallocated... 

     total cpu time spent up to now is       39.8 secs

     Self-consistent Calculation

     iteration #  1     ecut=   147.00 Ry     beta= 0.70
     Davidson diagonalization with overlap
     ethr =  1.00E-02,  avg # of iterations =  2.0

     negative rho (up, down):  9.466E-04 0.000E+00

     total cpu time spent up to now is       52.2 secs

     total energy              =     -52.27736565 Ry
     estimated scf accuracy    <       0.93501197 Ry

     iteration #  2     ecut=   147.00 Ry     beta= 0.70
     Davidson diagonalization with overlap
     ethr =  6.68E-03,  avg # of iterations =  2.0

     negative rho (up, down):  9.110E-04 0.000E+00

     total cpu time spent up to now is       64.1 secs

     total energy              =     -52.49892424 Ry
     estimated scf accuracy    <       0.43875525 Ry

     iteration #  3     ecut=   147.00 Ry     beta= 0.70
     Davidson diagonalization with overlap
     ethr =  3.13E-03,  avg # of iterations =  2.0

     negative rho (up, down):  9.904E-04 0.000E+00

     total cpu time spent up to now is       76.0 secs

     total energy              =     -52.57995743 Ry
     estimated scf accuracy    <       0.01098740 Ry

     iteration #  4     ecut=   147.00 Ry     beta= 0.70
     Davidson diagonalization with overlap
     ethr =  7.85E-05,  avg # of iterations =  2.0

     negative rho (up, down):  1.011E-03 0.000E+00

     total cpu time spent up to now is       87.9 secs

     total energy              =     -52.58209221 Ry
     estimated scf accuracy    <       0.00290589 Ry

     iteration #  5     ecut=   147.00 Ry     beta= 0.70
     Davidson diagonalization with overlap
     ethr =  2.08E-05,  avg # of iterations =  2.0

     negative rho (up, down):  1.016E-03 0.000E+00

     total cpu time spent up to now is       99.2 secs

     total energy              =     -52.58246984 Ry
     estimated scf accuracy    <       0.00016012 Ry

     iteration #  6     ecut=   147.00 Ry     beta= 0.70
     Davidson diagonalization with overlap
     ethr =  1.14E-06,  avg # of iterations =  3.0

     negative rho (up, down):  1.021E-03 0.000E+00

     total cpu time spent up to now is      111.3 secs

     total energy              =     -52.58252059 Ry
     estimated scf accuracy    <       0.00001166 Ry

     iteration #  7     ecut=   147.00 Ry     beta= 0.70
     Davidson diagonalization with overlap
     ethr =  8.33E-08,  avg # of iterations =  2.0

     negative rho (up, down):  1.021E-03 0.000E+00

     total cpu time spent up to now is      123.3 secs

     total energy              =     -52.58252326 Ry
     estimated scf accuracy    <       0.00000279 Ry

     iteration #  8     ecut=   147.00 Ry     beta= 0.70
     Davidson diagonalization with overlap
     ethr =  1.99E-08,  avg # of iterations =  2.0

     negative rho (up, down):  1.021E-03 0.000E+00

     total cpu time spent up to now is      135.5 secs

     total energy              =     -52.58252380 Ry
     estimated scf accuracy    <       0.00000002 Ry

     iteration #  9     ecut=   147.00 Ry     beta= 0.70
     Davidson diagonalization with overlap
     ethr =  1.12E-10,  avg # of iterations =  4.0

     negative rho (up, down):  1.021E-03 0.000E+00

     total cpu time spent up to now is      149.2 secs

     total energy              =     -52.58252381 Ry
     estimated scf accuracy    <       0.00000005 Ry

     iteration # 10     ecut=   147.00 Ry     beta= 0.70
     Davidson diagonalization with overlap
     ethr =  1.12E-10,  avg # of iterations =  2.0

     negative rho (up, down):  1.021E-03 0.000E+00

     total cpu time spent up to now is      160.5 secs

     End of self-consistent calculation

          k = 0.0000 0.0000 0.0000 (****** PWs)   bands (ev):

   -21.8032 -16.2420 -11.9980 -10.7412  -9.7365  -8.8169  -5.4559

     highest occupied level (ev):    -5.4559

!    total energy              =     -52.58252381 Ry
     total all-electron energy =      -191.645398 Ry
     estimated scf accuracy    <          2.0E-09 Ry

     The total energy is the sum of the following terms:
     one-electron contribution =    -142.32074811 Ry
     hartree contribution      =      73.13289431 Ry
     xc contribution           =     -14.00580031 Ry
     ewald contribution        =      44.74825358 Ry
     one-center paw contrib.   =     -14.13712329 Ry

     charge density inside the Wigner-Seitz cell:   14.00000000

     reference position (x0):         4.87477124    0.25919183    1.25427838 bohr

     Dipole moments (with respect to x0):
     Elect   0.5057   0.1425  -0.0154 au (Ha),   1.2853   0.3621  -0.0392 Debye
     Ionic  -0.0000   0.0000  -0.0000 au (Ha),  -0.0000   0.0000  -0.0000 Debye
     Total   0.5057   0.1425  -0.0154 au (Ha),   1.2853   0.3621  -0.0392 Debye

     Electrons quadrupole moment        -87.79183044 a.u. (Ha)
          Ions quadrupole moment         56.21812793 a.u. (Ha)
         Total quadrupole moment        -31.57370251 a.u. (Ha)

     *********    MAKOV-PAYNE CORRECTION    *********

     Makov-Payne correction with Madelung constant =   2.8373

     Makov-Payne correction     0.00000000 Ry =  0.000 eV (1st order, 1/a0)
                                0.00000400 Ry =  0.000 eV (2nd order, 1/a0^3)
                                0.00000400 Ry =  0.000 eV (total)

!    Total+Makov-Payne energy  =     -52.58251982 Ry
     Corrected vacuum level    =       0.00621721 eV

     convergence has been achieved in  10 iterations

     Writing all to output data dir ./pwscf.save/

     init_run     :     36.53s CPU     39.09s WALL (       1 calls)
     electrons    :    104.88s CPU    123.46s WALL (       1 calls)

     Called by init_run:
     wfcinit      :      1.94s CPU      2.18s WALL (       1 calls)
     potinit      :      4.59s CPU      5.31s WALL (       1 calls)
     hinit0       :      2.36s CPU      2.70s WALL (       1 calls)

     Called by electrons:
     c_bands      :     35.04s CPU     36.93s WALL (      10 calls)
     sum_band     :     29.19s CPU     34.94s WALL (      10 calls)
     v_of_rho     :     22.38s CPU     27.16s WALL (      11 calls)
     newd         :     13.56s CPU     19.28s WALL (      11 calls)
     PAW_pot      :      0.16s CPU      0.21s WALL (      11 calls)
     mix_rho      :      5.54s CPU      6.01s WALL (      10 calls)

     Called by c_bands:
     init_us_2    :      0.59s CPU      0.64s WALL (      21 calls)
     init_us_2:cp :      0.59s CPU      0.64s WALL (      21 calls)
     regterg      :     34.28s CPU     36.15s WALL (      10 calls)

     Called by *egterg:
     rdiaghg      :      0.01s CPU      0.02s WALL (      33 calls)
     h_psi        :     30.71s CPU     32.71s WALL (      34 calls)
     s_psi        :      1.28s CPU      1.29s WALL (      34 calls)
     g_psi        :      0.10s CPU      0.10s WALL (      23 calls)

     Called by h_psi:
     h_psi:calbec :      1.06s CPU      1.07s WALL (      34 calls)
     vloc_psi     :     28.17s CPU     30.15s WALL (      34 calls)
     add_vuspsi   :      1.29s CPU      1.30s WALL (      34 calls)

     General routines
     calbec       :      1.41s CPU      1.42s WALL (      44 calls)
     fft          :     18.61s CPU     22.10s WALL (      99 calls)
     ffts         :      1.56s CPU      1.89s WALL (      10 calls)
     fftw         :     26.18s CPU     28.32s WALL (     300 calls)

     Parallel routines

     PWSCF        :   2m23.38s CPU   2m47.03s WALL


   This run was terminated on:  17:26: 3  12Oct2023            

=------------------------------------------------------------------------------=
   JOB DONE.
=------------------------------------------------------------------------------=
