
     Program PWSCF v.7.2 starts on 12Oct2023 at 17:25:55 

     This program is part of the open-source Quantum ESPRESSO suite
     for quantum simulation of materials; please cite
         "P. Giannozzi et al., J. Phys.:Condens. Matter 21 395502 (2009);
         "P. Giannozzi et al., J. Phys.:Condens. Matter 29 465901 (2017);
         "P. Giannozzi et al., J. Chem. Phys. 152 154105 (2020);
          URL http://www.quantum-espresso.org", 
     in publications or presentations arising from this work. More details at
     http://www.quantum-espresso.org/quote

     Parallel version (MPI), running on    32 processors

     MPI processes distributed on     1 nodes
     502296 MiB available memory on the printing compute node when the environment starts

     Reading input from 28BenzeneUracilpipi100_efficiency_monomer_2.in
Warning: card &CELL ignored
Warning: card / ignored

     Current dimensions of program PWSCF are:
     Max number of different atomic species (ntypx) = 10
     Max number of k-points (npk) =  40000
     Max angular momentum in pseudopotentials (lmaxx) =  4
     file N.pbe-n-kjpaw_psl.1.0.0.UPF: wavefunction(s)  2S renormalized
     file H.pbe-kjpaw_psl.1.0.0.UPF: wavefunction(s)  1S renormalized
     file C.pbe-n-kjpaw_psl.1.0.0.UPF: wavefunction(s)  2S 2P renormalized
     file O.pbe-nl-kjpaw_psl.1.0.0.UPF: wavefunction(s)  2S 2P renormalized

     IMPORTANT: XC functional enforced from input :
     Exchange-correlation= PBE
                           (   1   4   3   4   0   0   0)
     Any further DFT definition will be discarded
     Please, verify this is what you really want


     gamma-point specific algorithms are used

     R & G space division:  proc/nbgrp/npool/nimage =      32
     Subspace diagonalization in iterative solution of the eigenvalue problem:
     a serial algorithm will be used


     Parallelization info
     --------------------
     sticks:   dense  smooth     PW     G-vecs:    dense   smooth      PW
     Min        6395    6395   1598              2177048  2177048  272114
     Max        6398    6398   1600              2177062  2177062  272124
     Sum      204693  204693  51189             69665707 69665707 8707803

     Using Slab Decomposition



     bravais-lattice index     =            0
     lattice parameter (alat)  =      66.1404  a.u.
     unit-cell volume          =  289334.8415 (a.u.)^3
     number of atoms/cell      =           12
     number of atomic types    =            4
     number of electrons       =        42.00
     number of Kohn-Sham states=           21
     kinetic-energy cutoff     =     147.0000  Ry
     charge density cutoff     =     588.0000  Ry
     scf convergence threshold =      1.0E-08
     mixing beta               =       0.7000
     number of iterations used =            8  plain     mixing
     Exchange-correlation= PBE
                           (   1   4   3   4   0   0   0)

     celldm(1)=  66.140414  celldm(2)=   0.000000  celldm(3)=   0.000000
     celldm(4)=   0.000000  celldm(5)=   0.000000  celldm(6)=   0.000000

     crystal axes: (cart. coord. in units of alat)
               a(1) = (   1.000000   0.000000   0.000000 )  
               a(2) = (   0.000000   1.000000   0.000000 )  
               a(3) = (   0.000000   0.000000   1.000000 )  

     reciprocal axes: (cart. coord. in units 2 pi/alat)
               b(1) = (  1.000000  0.000000  0.000000 )  
               b(2) = (  0.000000  1.000000  0.000000 )  
               b(3) = (  0.000000  0.000000  1.000000 )  


     PseudoPot. # 1 for N  read from file:
     /home/users/klimj2am/src/pslibrary.1.0.0/pbe/PSEUDOPOTENTIALS/N.pbe-n-kjpaw_psl.1.0.0.UPF
     MD5 check sum: ed3381810ced4c04e88f7c2008d4036c
     Pseudo is Projector augmented-wave + core cor, Zval =  5.0
     Generated using 'atomic' code by A. Dal Corso  v.7.2
     Shape of augmentation charge: PSQ
     Using radial grid of 1085 points,  4 beta functions with: 
                l(1) =   0
                l(2) =   0
                l(3) =   1
                l(4) =   1
     Q(r) pseudized with 0 coefficients 


     PseudoPot. # 2 for H  read from file:
     /home/users/klimj2am/src/pslibrary.1.0.0/pbe/PSEUDOPOTENTIALS/H.pbe-kjpaw_psl.1.0.0.UPF
     MD5 check sum: 220281c0717fd894cece6904c624ceaa
     Pseudo is Projector augmented-wave, Zval =  1.0
     Generated using 'atomic' code by A. Dal Corso  v.7.2
     Shape of augmentation charge: PSQ
     Using radial grid of  929 points,  2 beta functions with: 
                l(1) =   0
                l(2) =   0
     Q(r) pseudized with 0 coefficients 


     PseudoPot. # 3 for C  read from file:
     /home/users/klimj2am/src/pslibrary.1.0.0/pbe/PSEUDOPOTENTIALS/C.pbe-n-kjpaw_psl.1.0.0.UPF
     MD5 check sum: 9d4797b4e2669f30c50dcc814f8da1dd
     Pseudo is Projector augmented-wave + core cor, Zval =  4.0
     Generated using 'atomic' code by A. Dal Corso  v.7.2
     Shape of augmentation charge: PSQ
     Using radial grid of 1073 points,  4 beta functions with: 
                l(1) =   0
                l(2) =   0
                l(3) =   1
                l(4) =   1
     Q(r) pseudized with 0 coefficients 


     PseudoPot. # 4 for O  read from file:
     /home/users/klimj2am/src/pslibrary.1.0.0/pbe/PSEUDOPOTENTIALS/O.pbe-nl-kjpaw_psl.1.0.0.UPF
     MD5 check sum: 3be12c084656f77eefcab7bec6207024
     Pseudo is Projector augmented-wave + core cor, Zval =  6.0
     Generated using 'atomic' code by A. Dal Corso  v.7.2
     Shape of augmentation charge: PSQ
     Using radial grid of 1095 points,  4 beta functions with: 
                l(1) =   0
                l(2) =   0
                l(3) =   1
                l(4) =   1
     Q(r) pseudized with 0 coefficients 


     atomic species   valence    mass     pseudopotential
        N              5.00    14.00700     N ( 1.00)
        H              1.00     1.00800     H ( 1.00)
        C              4.00    12.01100     C ( 1.00)
        O              6.00    15.99900     O ( 1.00)

     No symmetry found



   Cartesian axes

     site n.     atom                  positions (alat units)
         1           N   tau(   1) = (  -0.0078801   0.0192624   0.0912647  )
         2           H   tau(   2) = (  -0.0185460   0.0450270   0.0837535  )
         3           C   tau(   3) = (   0.0318955   0.0171770   0.0950365  )
         4           O   tau(   4) = (   0.0516358   0.0455891   0.0908984  )
         5           C   tau(   5) = (   0.0455784  -0.0209395   0.1041254  )
         6           H   tau(   6) = (   0.0757798  -0.0252885   0.1079574  )
         7           C   tau(   7) = (   0.0204438  -0.0499218   0.1077316  )
         8           H   tau(   8) = (   0.0291846  -0.0787338   0.1144894  )
         9           N   tau(   9) = (  -0.0179918  -0.0446352   0.1028718  )
        10           H   tau(  10) = (  -0.0365274  -0.0664226   0.1056966  )
        11           C   tau(  11) = (  -0.0344046  -0.0096408   0.0943171  )
        12           O   tau(  12) = (  -0.0686271  -0.0053316   0.0902568  )

     number of k points=     1
                       cart. coord. in units 2pi/alat
        k(    1) = (   0.0000000   0.0000000   0.0000000), wk =   2.0000000

     Dense  grid: 34832854 G-vectors     FFT dimensions: ( 512, 512, 512)

     Estimated max dynamical RAM per process >       1.77 GB

     Estimated total dynamical RAM >      56.76 GB

     Initial potential from superposition of free atoms

     starting charge      41.9998, renormalised to      42.0000

     negative rho (up, down):  1.112E-03 0.000E+00
     Starting wfcs are   36 randomized atomic wfcs
     Checking if some PAW data can be deallocated... 

     total cpu time spent up to now is       45.6 secs

     Self-consistent Calculation

     iteration #  1     ecut=   147.00 Ry     beta= 0.70
     Davidson diagonalization with overlap
     ethr =  1.00E-02,  avg # of iterations =  2.0

     negative rho (up, down):  1.566E-03 0.000E+00

     total cpu time spent up to now is       67.9 secs

     total energy              =    -217.70060659 Ry
     estimated scf accuracy    <       1.56255351 Ry

     iteration #  2     ecut=   147.00 Ry     beta= 0.70
     Davidson diagonalization with overlap
     ethr =  3.72E-03,  avg # of iterations =  6.0

     negative rho (up, down):  1.496E-03 0.000E+00

     total cpu time spent up to now is       92.5 secs

     total energy              =    -217.94924389 Ry
     estimated scf accuracy    <       1.22084065 Ry

     iteration #  3     ecut=   147.00 Ry     beta= 0.70
     Davidson diagonalization with overlap
     ethr =  2.91E-03,  avg # of iterations =  4.0

     negative rho (up, down):  1.525E-03 0.000E+00

     total cpu time spent up to now is      114.2 secs

     total energy              =    -218.18742615 Ry
     estimated scf accuracy    <       0.21929167 Ry

     iteration #  4     ecut=   147.00 Ry     beta= 0.70
     Davidson diagonalization with overlap
     ethr =  5.22E-04,  avg # of iterations =  5.0

     negative rho (up, down):  1.602E-03 0.000E+00

     total cpu time spent up to now is      136.2 secs

     total energy              =    -218.24193480 Ry
     estimated scf accuracy    <       0.01371459 Ry

     iteration #  5     ecut=   147.00 Ry     beta= 0.70
     Davidson diagonalization with overlap
     ethr =  3.27E-05,  avg # of iterations =  5.0

     negative rho (up, down):  1.621E-03 0.000E+00

     total cpu time spent up to now is      158.4 secs

     total energy              =    -218.24403116 Ry
     estimated scf accuracy    <       0.00327521 Ry

     iteration #  6     ecut=   147.00 Ry     beta= 0.70
     Davidson diagonalization with overlap
     ethr =  7.80E-06,  avg # of iterations =  5.0

     negative rho (up, down):  1.631E-03 0.000E+00

     total cpu time spent up to now is      180.8 secs

     total energy              =    -218.24467740 Ry
     estimated scf accuracy    <       0.00086188 Ry

     iteration #  7     ecut=   147.00 Ry     beta= 0.70
     Davidson diagonalization with overlap
     ethr =  2.05E-06,  avg # of iterations =  5.0

     negative rho (up, down):  1.636E-03 0.000E+00

     total cpu time spent up to now is      203.2 secs

     total energy              =    -218.24486841 Ry
     estimated scf accuracy    <       0.00003636 Ry

     iteration #  8     ecut=   147.00 Ry     beta= 0.70
     Davidson diagonalization with overlap
     ethr =  8.66E-08,  avg # of iterations =  5.0

     negative rho (up, down):  1.637E-03 0.000E+00

     total cpu time spent up to now is      227.1 secs

     total energy              =    -218.24487894 Ry
     estimated scf accuracy    <       0.00001695 Ry

     iteration #  9     ecut=   147.00 Ry     beta= 0.70
     Davidson diagonalization with overlap
     ethr =  4.03E-08,  avg # of iterations =  4.0

     negative rho (up, down):  1.636E-03 0.000E+00

     total cpu time spent up to now is      248.6 secs

     total energy              =    -218.24488132 Ry
     estimated scf accuracy    <       0.00000137 Ry

     iteration # 10     ecut=   147.00 Ry     beta= 0.70
     Davidson diagonalization with overlap
     ethr =  3.26E-09,  avg # of iterations =  5.0

     negative rho (up, down):  1.637E-03 0.000E+00

     total cpu time spent up to now is      273.7 secs

     total energy              =    -218.24488196 Ry
     estimated scf accuracy    <       0.00000057 Ry

     iteration # 11     ecut=   147.00 Ry     beta= 0.70
     Davidson diagonalization with overlap
     ethr =  1.35E-09,  avg # of iterations =  2.0

     negative rho (up, down):  1.637E-03 0.000E+00

     total cpu time spent up to now is      293.2 secs

     total energy              =    -218.24488194 Ry
     estimated scf accuracy    <       0.00000013 Ry

     iteration # 12     ecut=   147.00 Ry     beta= 0.70
     Davidson diagonalization with overlap
     ethr =  3.19E-10,  avg # of iterations =  5.0

     negative rho (up, down):  1.637E-03 0.000E+00

     total cpu time spent up to now is      317.5 secs

     total energy              =    -218.24488199 Ry
     estimated scf accuracy    <       0.00000002 Ry

     iteration # 13     ecut=   147.00 Ry     beta= 0.70
     Davidson diagonalization with overlap
     ethr =  5.60E-11,  avg # of iterations =  4.0

     negative rho (up, down):  1.637E-03 0.000E+00

     total cpu time spent up to now is      337.2 secs

     End of self-consistent calculation

          k = 0.0000 0.0000 0.0000 (****** PWs)   bands (ev):

   -27.3208 -26.3302 -24.8405 -23.4572 -20.0881 -17.4797 -16.7847 -15.1317
   -14.0876 -13.0950 -12.1356 -11.6934 -11.0925 -10.4161 -10.1827 -10.1695
    -9.3049  -7.1376  -7.0690  -6.3775  -6.2293

     highest occupied level (ev):    -6.2293

!    total energy              =    -218.24488199 Ry
     total all-electron energy =      -829.592640 Ry
     estimated scf accuracy    <          3.8E-09 Ry

     The total energy is the sum of the following terms:
     one-electron contribution =    -823.42230852 Ry
     hartree contribution      =     417.58482147 Ry
     xc contribution           =     -47.76525520 Ry
     ewald contribution        =     295.15890552 Ry
     one-center paw contrib.   =     -59.80104527 Ry

     charge density inside the Wigner-Seitz cell:   42.00000000

     reference position (x0):         0.11438484   -0.41579770    6.41617616 bohr

     Dipole moments (with respect to x0):
     Elect   0.1351  -1.6860   0.3431 au (Ha),   0.3434  -4.2855   0.8721 Debye
     Ionic   0.0000  -0.0000  -0.0000 au (Ha),   0.0000  -0.0000  -0.0000 Debye
     Total   0.1351  -1.6860   0.3431 au (Ha),   0.3434  -4.2855   0.8721 Debye

     Electrons quadrupole moment       -650.52698399 a.u. (Ha)
          Ions quadrupole moment        545.44131349 a.u. (Ha)
         Total quadrupole moment       -105.08567050 a.u. (Ha)

     *********    MAKOV-PAYNE CORRECTION    *********

     Makov-Payne correction with Madelung constant =   2.8373

     Makov-Payne correction     0.00000000 Ry =  0.000 eV (1st order, 1/a0)
                                0.00004312 Ry =  0.001 eV (2nd order, 1/a0^3)
                                0.00004312 Ry =  0.001 eV (total)

!    Total+Makov-Payne energy  =    -218.24483887 Ry
     Corrected vacuum level    =       0.02070213 eV

     convergence has been achieved in  13 iterations

     Writing all to output data dir ./pwscf.save/

     init_run     :     41.57s CPU     44.56s WALL (       1 calls)
     electrons    :    253.87s CPU    294.37s WALL (       1 calls)

     Called by init_run:
     wfcinit      :      4.77s CPU      5.33s WALL (       1 calls)
     potinit      :      5.14s CPU      6.00s WALL (       1 calls)
     hinit0       :      6.19s CPU      6.59s WALL (       1 calls)

     Called by electrons:
     c_bands      :    127.26s CPU    138.26s WALL (      13 calls)
     sum_band     :     65.01s CPU     77.01s WALL (      13 calls)
     v_of_rho     :     28.66s CPU     35.40s WALL (      14 calls)
     newd         :     25.80s CPU     36.14s WALL (      14 calls)
     PAW_pot      :      0.24s CPU      0.26s WALL (      14 calls)
     mix_rho      :      8.27s CPU      8.86s WALL (      13 calls)

     Called by c_bands:
     init_us_2    :      1.44s CPU      1.55s WALL (      27 calls)
     init_us_2:cp :      1.44s CPU      1.55s WALL (      27 calls)
     regterg      :    124.59s CPU    135.52s WALL (      13 calls)

     Called by *egterg:
     rdiaghg      :      0.04s CPU      0.05s WALL (      70 calls)
     h_psi        :    108.14s CPU    119.19s WALL (      71 calls)
     s_psi        :      4.94s CPU      4.96s WALL (      71 calls)
     g_psi        :      0.35s CPU      0.35s WALL (      57 calls)

     Called by h_psi:
     h_psi:calbec :      4.22s CPU      4.31s WALL (      71 calls)
     vloc_psi     :     98.24s CPU    109.15s WALL (      71 calls)
     add_vuspsi   :      4.99s CPU      5.01s WALL (      71 calls)

     General routines
     calbec       :      5.21s CPU      5.32s WALL (      84 calls)
     fft          :     23.91s CPU     29.05s WALL (     126 calls)
     ffts         :      2.09s CPU      2.47s WALL (      13 calls)
     fftw         :     90.70s CPU    102.52s WALL (    1051 calls)

     Parallel routines

     PWSCF        :   4m58.09s CPU   5m45.16s WALL


   This run was terminated on:  17:31:41  12Oct2023            

=------------------------------------------------------------------------------=
   JOB DONE.
=------------------------------------------------------------------------------=
