
     Program PWSCF v.7.2 starts on 12Oct2023 at 17:29: 1 

     This program is part of the open-source Quantum ESPRESSO suite
     for quantum simulation of materials; please cite
         "P. Giannozzi et al., J. Phys.:Condens. Matter 21 395502 (2009);
         "P. Giannozzi et al., J. Phys.:Condens. Matter 29 465901 (2017);
         "P. Giannozzi et al., J. Chem. Phys. 152 154105 (2020);
          URL http://www.quantum-espresso.org", 
     in publications or presentations arising from this work. More details at
     http://www.quantum-espresso.org/quote

     Parallel version (MPI), running on    32 processors

     MPI processes distributed on     1 nodes
     244730 MiB available memory on the printing compute node when the environment starts

     Reading input from 44EthenePentane100_efficiency_monomer_2.in
Warning: card &CELL ignored
Warning: card / ignored

     Current dimensions of program PWSCF are:
     Max number of different atomic species (ntypx) = 10
     Max number of k-points (npk) =  40000
     Max angular momentum in pseudopotentials (lmaxx) =  4
     file C.pbe-n-kjpaw_psl.1.0.0.UPF: wavefunction(s)  2S 2P renormalized
     file H.pbe-kjpaw_psl.1.0.0.UPF: wavefunction(s)  1S renormalized

     IMPORTANT: XC functional enforced from input :
     Exchange-correlation= PBE
                           (   1   4   3   4   0   0   0)
     Any further DFT definition will be discarded
     Please, verify this is what you really want


     gamma-point specific algorithms are used

     R & G space division:  proc/nbgrp/npool/nimage =      32
     Subspace diagonalization in iterative solution of the eigenvalue problem:
     a serial algorithm will be used


     Parallelization info
     --------------------
     sticks:   dense  smooth     PW     G-vecs:    dense   smooth      PW
     Min        6395    6395   1598              2177048  2177048  272114
     Max        6398    6398   1600              2177062  2177062  272124
     Sum      204693  204693  51189             69665707 69665707 8707803

     Using Slab Decomposition



     bravais-lattice index     =            0
     lattice parameter (alat)  =      66.1404  a.u.
     unit-cell volume          =  289334.8415 (a.u.)^3
     number of atoms/cell      =           17
     number of atomic types    =            2
     number of electrons       =        32.00
     number of Kohn-Sham states=           16
     kinetic-energy cutoff     =     147.0000  Ry
     charge density cutoff     =     588.0000  Ry
     scf convergence threshold =      1.0E-08
     mixing beta               =       0.7000
     number of iterations used =            8  plain     mixing
     Exchange-correlation= PBE
                           (   1   4   3   4   0   0   0)

     celldm(1)=  66.140414  celldm(2)=   0.000000  celldm(3)=   0.000000
     celldm(4)=   0.000000  celldm(5)=   0.000000  celldm(6)=   0.000000

     crystal axes: (cart. coord. in units of alat)
               a(1) = (   1.000000   0.000000   0.000000 )  
               a(2) = (   0.000000   1.000000   0.000000 )  
               a(3) = (   0.000000   0.000000   1.000000 )  

     reciprocal axes: (cart. coord. in units 2 pi/alat)
               b(1) = (  1.000000  0.000000  0.000000 )  
               b(2) = (  0.000000  1.000000  0.000000 )  
               b(3) = (  0.000000  0.000000  1.000000 )  


     PseudoPot. # 1 for C  read from file:
     /home/users/klimj2am/src/pslibrary.1.0.0/pbe/PSEUDOPOTENTIALS/C.pbe-n-kjpaw_psl.1.0.0.UPF
     MD5 check sum: 9d4797b4e2669f30c50dcc814f8da1dd
     Pseudo is Projector augmented-wave + core cor, Zval =  4.0
     Generated using 'atomic' code by A. Dal Corso  v.7.2
     Shape of augmentation charge: PSQ
     Using radial grid of 1073 points,  4 beta functions with: 
                l(1) =   0
                l(2) =   0
                l(3) =   1
                l(4) =   1
     Q(r) pseudized with 0 coefficients 


     PseudoPot. # 2 for H  read from file:
     /home/users/klimj2am/src/pslibrary.1.0.0/pbe/PSEUDOPOTENTIALS/H.pbe-kjpaw_psl.1.0.0.UPF
     MD5 check sum: 220281c0717fd894cece6904c624ceaa
     Pseudo is Projector augmented-wave, Zval =  1.0
     Generated using 'atomic' code by A. Dal Corso  v.7.2
     Shape of augmentation charge: PSQ
     Using radial grid of  929 points,  2 beta functions with: 
                l(1) =   0
                l(2) =   0
     Q(r) pseudized with 0 coefficients 


     atomic species   valence    mass     pseudopotential
        C              4.00    12.01100     C ( 1.00)
        H              1.00     1.00800     H ( 1.00)

     No symmetry found



   Cartesian axes

     site n.     atom                  positions (alat units)
         1           C   tau(   1) = (  -0.0723647  -0.0113709   0.1203378  )
         2           H   tau(   2) = (  -0.0732074  -0.0288858   0.0945895  )
         3           H   tau(   3) = (  -0.0733971  -0.0306343   0.1447840  )
         4           H   tau(   4) = (  -0.0981125   0.0060867   0.1208306  )
         5           C   tau(   5) = (  -0.0363237   0.0129913   0.1213612  )
         6           H   tau(   6) = (  -0.0363353   0.0307082   0.1470582  )
         7           H   tau(   7) = (  -0.0360840   0.0326172   0.0971023  )
         8           C   tau(   8) = (  -0.0000015  -0.0109389   0.1205914  )
         9           H   tau(   9) = (  -0.0000059  -0.0305582   0.1449294  )
        10           H   tau(  10) = (   0.0000025  -0.0288697   0.0949730  )
        11           C   tau(  11) = (   0.0363190   0.0129921   0.1213744  )
        12           H   tau(  12) = (   0.0363268   0.0307010   0.1470740  )
        13           H   tau(  13) = (   0.0360849   0.0326228   0.0971199  )
        14           C   tau(  14) = (   0.0723605  -0.0113715   0.1203508  )
        15           H   tau(  15) = (   0.0732069  -0.0288817   0.0945991  )
        16           H   tau(  16) = (   0.0981084   0.0060839   0.1208531  )
        17           H   tau(  17) = (   0.0733867  -0.0306416   0.1447939  )

     number of k points=     1
                       cart. coord. in units 2pi/alat
        k(    1) = (   0.0000000   0.0000000   0.0000000), wk =   2.0000000

     Dense  grid: 34832854 G-vectors     FFT dimensions: ( 512, 512, 512)

     Estimated max dynamical RAM per process >       1.81 GB

     Estimated total dynamical RAM >      57.96 GB

     Initial potential from superposition of free atoms

     starting charge      31.9997, renormalised to      32.0000

     negative rho (up, down):  4.315E-04 0.000E+00
     Starting wfcs are   32 randomized atomic wfcs
     Checking if some PAW data can be deallocated... 

     total cpu time spent up to now is       44.0 secs

     Self-consistent Calculation

     iteration #  1     ecut=   147.00 Ry     beta= 0.70
     Davidson diagonalization with overlap
     ethr =  1.00E-02,  avg # of iterations =  2.0

     negative rho (up, down):  3.613E-04 0.000E+00

     total cpu time spent up to now is       60.8 secs

     total energy              =    -105.87319091 Ry
     estimated scf accuracy    <       2.06764816 Ry

     iteration #  2     ecut=   147.00 Ry     beta= 0.70
     Davidson diagonalization with overlap
     ethr =  6.46E-03,  avg # of iterations =  2.0

     negative rho (up, down):  4.041E-04 0.000E+00

     total cpu time spent up to now is       77.6 secs

     total energy              =    -106.36818337 Ry
     estimated scf accuracy    <       0.57357494 Ry

     iteration #  3     ecut=   147.00 Ry     beta= 0.70
     Davidson diagonalization with overlap
     ethr =  1.79E-03,  avg # of iterations =  2.0

     negative rho (up, down):  4.425E-04 0.000E+00

     total cpu time spent up to now is       94.3 secs

     total energy              =    -106.45933950 Ry
     estimated scf accuracy    <       0.01636147 Ry

     iteration #  4     ecut=   147.00 Ry     beta= 0.70
     Davidson diagonalization with overlap
     ethr =  5.11E-05,  avg # of iterations =  3.0

     negative rho (up, down):  4.368E-04 0.000E+00

     total cpu time spent up to now is      112.4 secs

     total energy              =    -106.46355746 Ry
     estimated scf accuracy    <       0.00535193 Ry

     iteration #  5     ecut=   147.00 Ry     beta= 0.70
     Davidson diagonalization with overlap
     ethr =  1.67E-05,  avg # of iterations =  2.0

     negative rho (up, down):  4.357E-04 0.000E+00

     total cpu time spent up to now is      127.9 secs

     total energy              =    -106.46377757 Ry
     estimated scf accuracy    <       0.00050678 Ry

     iteration #  6     ecut=   147.00 Ry     beta= 0.70
     Davidson diagonalization with overlap
     ethr =  1.58E-06,  avg # of iterations =  2.0

     negative rho (up, down):  4.368E-04 0.000E+00

     total cpu time spent up to now is      145.1 secs

     total energy              =    -106.46393508 Ry
     estimated scf accuracy    <       0.00001021 Ry

     iteration #  7     ecut=   147.00 Ry     beta= 0.70
     Davidson diagonalization with overlap
     ethr =  3.19E-08,  avg # of iterations =  3.0

     negative rho (up, down):  4.368E-04 0.000E+00

     total cpu time spent up to now is      163.0 secs

     total energy              =    -106.46393782 Ry
     estimated scf accuracy    <       0.00000094 Ry

     iteration #  8     ecut=   147.00 Ry     beta= 0.70
     Davidson diagonalization with overlap
     ethr =  2.95E-09,  avg # of iterations =  3.0

     negative rho (up, down):  4.367E-04 0.000E+00

     total cpu time spent up to now is      181.3 secs

     total energy              =    -106.46393813 Ry
     estimated scf accuracy    <       0.00000007 Ry

     iteration #  9     ecut=   147.00 Ry     beta= 0.70
     Davidson diagonalization with overlap
     ethr =  2.16E-10,  avg # of iterations =  2.0

     negative rho (up, down):  4.367E-04 0.000E+00

     total cpu time spent up to now is      198.3 secs

     total energy              =    -106.46393814 Ry
     estimated scf accuracy    <       0.00000002 Ry

     iteration # 10     ecut=   147.00 Ry     beta= 0.70
     Davidson diagonalization with overlap
     ethr =  5.42E-11,  avg # of iterations =  3.0

     negative rho (up, down):  4.367E-04 0.000E+00

     total cpu time spent up to now is      214.7 secs

     End of self-consistent calculation

          k = 0.0000 0.0000 0.0000 (****** PWs)   bands (ev):

   -19.8574 -18.5202 -16.5722 -14.5991 -14.0299 -11.6119 -10.6503 -10.4583
    -9.8044  -9.4698  -9.0031  -8.4451  -7.9098  -7.7731  -7.5530  -7.4872

     highest occupied level (ev):    -7.4872

!    total energy              =    -106.46393814 Ry
     total all-electron energy =      -395.284372 Ry
     estimated scf accuracy    <          2.5E-09 Ry

     The total energy is the sum of the following terms:
     one-electron contribution =    -442.43470604 Ry
     hartree contribution      =     225.36548403 Ry
     xc contribution           =     -31.92309491 Ry
     ewald contribution        =     173.34800117 Ry
     one-center paw contrib.   =     -30.81962239 Ry

     charge density inside the Wigner-Seitz cell:   32.00000000

     reference position (x0):        -0.00013945   -0.14559847    7.98804553 bohr

     Dipole moments (with respect to x0):
     Elect  -0.0000   0.0376   0.0022 au (Ha),  -0.0000   0.0955   0.0056 Debye
     Ionic   0.0000   0.0000   0.0000 au (Ha),   0.0000   0.0000   0.0000 Debye
     Total  -0.0000   0.0376   0.0022 au (Ha),  -0.0000   0.0955   0.0056 Debye

     Electrons quadrupole moment       -589.73629808 a.u. (Ha)
          Ions quadrupole moment        511.03895981 a.u. (Ha)
         Total quadrupole moment        -78.69733827 a.u. (Ha)

     *********    MAKOV-PAYNE CORRECTION    *********

     Makov-Payne correction with Madelung constant =   2.8373

     Makov-Payne correction     0.00000000 Ry =  0.000 eV (1st order, 1/a0)
                                0.00000002 Ry =  0.000 eV (2nd order, 1/a0^3)
                                0.00000002 Ry =  0.000 eV (total)

!    Total+Makov-Payne energy  =    -106.46393812 Ry
     Corrected vacuum level    =       0.01550657 eV

     convergence has been achieved in  10 iterations

     Writing all to output data dir ./pwscf.save/

     init_run     :     40.86s CPU     43.48s WALL (       1 calls)
     electrons    :    144.20s CPU    173.56s WALL (       1 calls)

     Called by init_run:
     wfcinit      :      4.85s CPU      5.25s WALL (       1 calls)
     potinit      :      3.88s CPU      4.72s WALL (       1 calls)
     hinit0       :      1.70s CPU      1.97s WALL (       1 calls)

     Called by electrons:
     c_bands      :     74.50s CPU     81.08s WALL (      10 calls)
     sum_band     :     29.99s CPU     36.87s WALL (      10 calls)
     v_of_rho     :     23.30s CPU     31.52s WALL (      11 calls)
     newd         :     12.07s CPU     17.49s WALL (      11 calls)
     PAW_pot      :      0.18s CPU      0.20s WALL (      11 calls)
     mix_rho      :      5.27s CPU      7.26s WALL (      10 calls)

     Called by c_bands:
     init_us_2    :      1.03s CPU      1.13s WALL (      21 calls)
     init_us_2:cp :      1.03s CPU      1.13s WALL (      21 calls)
     regterg      :     72.96s CPU     79.47s WALL (      10 calls)

     Called by *egterg:
     rdiaghg      :      0.01s CPU      0.02s WALL (      34 calls)
     h_psi        :     67.71s CPU     73.61s WALL (      35 calls)
     s_psi        :      2.42s CPU      2.44s WALL (      35 calls)
     g_psi        :      0.21s CPU      0.21s WALL (      24 calls)

     Called by h_psi:
     h_psi:calbec :      2.12s CPU      2.16s WALL (      35 calls)
     vloc_psi     :     62.71s CPU     68.54s WALL (      35 calls)
     add_vuspsi   :      2.44s CPU      2.45s WALL (      35 calls)

     General routines
     calbec       :      2.65s CPU      2.70s WALL (      45 calls)
     fft          :     20.14s CPU     25.33s WALL (      99 calls)
     ffts         :      1.59s CPU      2.18s WALL (      10 calls)
     fftw         :     58.03s CPU     64.55s WALL (     590 calls)

     Parallel routines

     PWSCF        :   3m 7.73s CPU   3m42.69s WALL


   This run was terminated on:  17:32:44  12Oct2023            

=------------------------------------------------------------------------------=
   JOB DONE.
=------------------------------------------------------------------------------=
