
     Program PWSCF v.7.2 starts on 12Oct2023 at 17:32: 7 

     This program is part of the open-source Quantum ESPRESSO suite
     for quantum simulation of materials; please cite
         "P. Giannozzi et al., J. Phys.:Condens. Matter 21 395502 (2009);
         "P. Giannozzi et al., J. Phys.:Condens. Matter 29 465901 (2017);
         "P. Giannozzi et al., J. Chem. Phys. 152 154105 (2020);
          URL http://www.quantum-espresso.org", 
     in publications or presentations arising from this work. More details at
     http://www.quantum-espresso.org/quote

     Parallel version (MPI), running on    32 processors

     MPI processes distributed on     1 nodes
     489804 MiB available memory on the printing compute node when the environment starts

     Reading input from 60EthyneAcOHOHpi100_efficiency_monomer_2.in
Warning: card &CELL ignored
Warning: card / ignored

     Current dimensions of program PWSCF are:
     Max number of different atomic species (ntypx) = 10
     Max number of k-points (npk) =  40000
     Max angular momentum in pseudopotentials (lmaxx) =  4
     file C.pbe-n-kjpaw_psl.1.0.0.UPF: wavefunction(s)  2S 2P renormalized
     file O.pbe-nl-kjpaw_psl.1.0.0.UPF: wavefunction(s)  2S 2P renormalized
     file H.pbe-kjpaw_psl.1.0.0.UPF: wavefunction(s)  1S renormalized

     IMPORTANT: XC functional enforced from input :
     Exchange-correlation= PBE
                           (   1   4   3   4   0   0   0)
     Any further DFT definition will be discarded
     Please, verify this is what you really want


     gamma-point specific algorithms are used

     R & G space division:  proc/nbgrp/npool/nimage =      32
     Subspace diagonalization in iterative solution of the eigenvalue problem:
     a serial algorithm will be used


     Parallelization info
     --------------------
     sticks:   dense  smooth     PW     G-vecs:    dense   smooth      PW
     Min        6395    6395   1598              2177048  2177048  272114
     Max        6398    6398   1600              2177062  2177062  272124
     Sum      204693  204693  51189             69665707 69665707 8707803

     Using Slab Decomposition



     bravais-lattice index     =            0
     lattice parameter (alat)  =      66.1404  a.u.
     unit-cell volume          =  289334.8415 (a.u.)^3
     number of atoms/cell      =            8
     number of atomic types    =            3
     number of electrons       =        24.00
     number of Kohn-Sham states=           12
     kinetic-energy cutoff     =     147.0000  Ry
     charge density cutoff     =     588.0000  Ry
     scf convergence threshold =      1.0E-08
     mixing beta               =       0.7000
     number of iterations used =            8  plain     mixing
     Exchange-correlation= PBE
                           (   1   4   3   4   0   0   0)

     celldm(1)=  66.140414  celldm(2)=   0.000000  celldm(3)=   0.000000
     celldm(4)=   0.000000  celldm(5)=   0.000000  celldm(6)=   0.000000

     crystal axes: (cart. coord. in units of alat)
               a(1) = (   1.000000   0.000000   0.000000 )  
               a(2) = (   0.000000   1.000000   0.000000 )  
               a(3) = (   0.000000   0.000000   1.000000 )  

     reciprocal axes: (cart. coord. in units 2 pi/alat)
               b(1) = (  1.000000  0.000000  0.000000 )  
               b(2) = (  0.000000  1.000000  0.000000 )  
               b(3) = (  0.000000  0.000000  1.000000 )  


     PseudoPot. # 1 for C  read from file:
     /home/users/klimj2am/src/pslibrary.1.0.0/pbe/PSEUDOPOTENTIALS/C.pbe-n-kjpaw_psl.1.0.0.UPF
     MD5 check sum: 9d4797b4e2669f30c50dcc814f8da1dd
     Pseudo is Projector augmented-wave + core cor, Zval =  4.0
     Generated using 'atomic' code by A. Dal Corso  v.7.2
     Shape of augmentation charge: PSQ
     Using radial grid of 1073 points,  4 beta functions with: 
                l(1) =   0
                l(2) =   0
                l(3) =   1
                l(4) =   1
     Q(r) pseudized with 0 coefficients 


     PseudoPot. # 2 for O  read from file:
     /home/users/klimj2am/src/pslibrary.1.0.0/pbe/PSEUDOPOTENTIALS/O.pbe-nl-kjpaw_psl.1.0.0.UPF
     MD5 check sum: 3be12c084656f77eefcab7bec6207024
     Pseudo is Projector augmented-wave + core cor, Zval =  6.0
     Generated using 'atomic' code by A. Dal Corso  v.7.2
     Shape of augmentation charge: PSQ
     Using radial grid of 1095 points,  4 beta functions with: 
                l(1) =   0
                l(2) =   0
                l(3) =   1
                l(4) =   1
     Q(r) pseudized with 0 coefficients 


     PseudoPot. # 3 for H  read from file:
     /home/users/klimj2am/src/pslibrary.1.0.0/pbe/PSEUDOPOTENTIALS/H.pbe-kjpaw_psl.1.0.0.UPF
     MD5 check sum: 220281c0717fd894cece6904c624ceaa
     Pseudo is Projector augmented-wave, Zval =  1.0
     Generated using 'atomic' code by A. Dal Corso  v.7.2
     Shape of augmentation charge: PSQ
     Using radial grid of  929 points,  2 beta functions with: 
                l(1) =   0
                l(2) =   0
     Q(r) pseudized with 0 coefficients 


     atomic species   valence    mass     pseudopotential
        C              4.00    12.01100     C ( 1.00)
        O              6.00    15.99900     O ( 1.00)
        H              1.00     1.00800     H ( 1.00)

     No symmetry found



   Cartesian axes

     site n.     atom                  positions (alat units)
         1           C   tau(   1) = (   0.0817578  -0.0186704   0.0135652  )
         2           O   tau(   2) = (   0.0744956   0.0086468  -0.0064016  )
         3           O   tau(   3) = (   0.0546748  -0.0407944   0.0297848  )
         4           H   tau(   4) = (   0.0300749  -0.0303002   0.0221342  )
         5           C   tau(   5) = (   0.1210617  -0.0324261   0.0235695  )
         6           H   tau(   6) = (   0.1421584  -0.0142104   0.0101166  )
         7           H   tau(   7) = (   0.1246677  -0.0320874   0.0544276  )
         8           H   tau(   8) = (   0.1245553  -0.0617931   0.0140485  )

     number of k points=     1
                       cart. coord. in units 2pi/alat
        k(    1) = (   0.0000000   0.0000000   0.0000000), wk =   2.0000000

     Dense  grid: 34832854 G-vectors     FFT dimensions: ( 512, 512, 512)

     Estimated max dynamical RAM per process >       1.66 GB

     Estimated total dynamical RAM >      53.04 GB

     Initial potential from superposition of free atoms

     starting charge      23.9999, renormalised to      24.0000

     negative rho (up, down):  9.595E-04 0.000E+00
     Starting wfcs are   20 randomized atomic wfcs
     Checking if some PAW data can be deallocated... 

     total cpu time spent up to now is       34.7 secs

     Self-consistent Calculation

     iteration #  1     ecut=   147.00 Ry     beta= 0.70
     Davidson diagonalization with overlap
     ethr =  1.00E-02,  avg # of iterations =  2.0

     negative rho (up, down):  1.013E-03 0.000E+00

     total cpu time spent up to now is       49.9 secs

     total energy              =    -124.58074549 Ry
     estimated scf accuracy    <       1.04259534 Ry

     iteration #  2     ecut=   147.00 Ry     beta= 0.70
     Davidson diagonalization with overlap
     ethr =  4.34E-03,  avg # of iterations =  3.0

     negative rho (up, down):  8.905E-04 0.000E+00

     total cpu time spent up to now is       65.7 secs

     total energy              =    -124.87115045 Ry
     estimated scf accuracy    <       0.47620342 Ry

     iteration #  3     ecut=   147.00 Ry     beta= 0.70
     Davidson diagonalization with overlap
     ethr =  1.98E-03,  avg # of iterations =  2.0

     negative rho (up, down):  8.877E-04 0.000E+00

     total cpu time spent up to now is       79.9 secs

     total energy              =    -124.93484822 Ry
     estimated scf accuracy    <       0.02797321 Ry

     iteration #  4     ecut=   147.00 Ry     beta= 0.70
     Davidson diagonalization with overlap
     ethr =  1.17E-04,  avg # of iterations =  5.0

     negative rho (up, down):  9.049E-04 0.000E+00

     total cpu time spent up to now is       97.0 secs

     total energy              =    -124.94900443 Ry
     estimated scf accuracy    <       0.02028516 Ry

     iteration #  5     ecut=   147.00 Ry     beta= 0.70
     Davidson diagonalization with overlap
     ethr =  8.45E-05,  avg # of iterations =  3.0

     negative rho (up, down):  9.085E-04 0.000E+00

     total cpu time spent up to now is      111.3 secs

     total energy              =    -124.95097172 Ry
     estimated scf accuracy    <       0.00165287 Ry

     iteration #  6     ecut=   147.00 Ry     beta= 0.70
     Davidson diagonalization with overlap
     ethr =  6.89E-06,  avg # of iterations =  3.0

     negative rho (up, down):  9.127E-04 0.000E+00

     total cpu time spent up to now is      126.8 secs

     total energy              =    -124.95178416 Ry
     estimated scf accuracy    <       0.00008670 Ry

     iteration #  7     ecut=   147.00 Ry     beta= 0.70
     Davidson diagonalization with overlap
     ethr =  3.61E-07,  avg # of iterations =  5.0

     negative rho (up, down):  9.136E-04 0.000E+00

     total cpu time spent up to now is      143.7 secs

     total energy              =    -124.95176567 Ry
     estimated scf accuracy    <       0.00014490 Ry

     iteration #  8     ecut=   147.00 Ry     beta= 0.70
     Davidson diagonalization with overlap
     ethr =  3.61E-07,  avg # of iterations =  5.0

     negative rho (up, down):  9.148E-04 0.000E+00

     total cpu time spent up to now is      160.4 secs

     total energy              =    -124.95180202 Ry
     estimated scf accuracy    <       0.00001245 Ry

     iteration #  9     ecut=   147.00 Ry     beta= 0.70
     Davidson diagonalization with overlap
     ethr =  5.19E-08,  avg # of iterations =  4.0

     negative rho (up, down):  9.149E-04 0.000E+00

     total cpu time spent up to now is      175.6 secs

     total energy              =    -124.95180407 Ry
     estimated scf accuracy    <       0.00000259 Ry

     iteration # 10     ecut=   147.00 Ry     beta= 0.70
     Davidson diagonalization with overlap
     ethr =  1.08E-08,  avg # of iterations =  2.0

     negative rho (up, down):  9.149E-04 0.000E+00

     total cpu time spent up to now is      189.6 secs

     total energy              =    -124.95180400 Ry
     estimated scf accuracy    <       0.00000051 Ry

     iteration # 11     ecut=   147.00 Ry     beta= 0.70
     Davidson diagonalization with overlap
     ethr =  2.12E-09,  avg # of iterations =  5.0

     negative rho (up, down):  9.150E-04 0.000E+00

     total cpu time spent up to now is      206.9 secs

     total energy              =    -124.95180426 Ry
     estimated scf accuracy    <       0.00000017 Ry

     iteration # 12     ecut=   147.00 Ry     beta= 0.70
     Davidson diagonalization with overlap
     ethr =  7.05E-10,  avg # of iterations =  3.0

     negative rho (up, down):  9.150E-04 0.000E+00

     total cpu time spent up to now is      220.8 secs

     End of self-consistent calculation

          k = 0.0000 0.0000 0.0000 (****** PWs)   bands (ev):

   -27.9724 -25.5685 -18.9761 -15.3492 -12.0447 -11.7060 -11.6938 -10.1186
    -9.6480  -9.5495  -7.8795  -6.5028

     highest occupied level (ev):    -6.5028

!    total energy              =    -124.95180428 Ry
     total all-electron energy =      -458.173771 Ry
     estimated scf accuracy    <          4.5E-09 Ry

     The total energy is the sum of the following terms:
     one-electron contribution =    -363.21411317 Ry
     hartree contribution      =     185.51655939 Ry
     xc contribution           =     -26.96964104 Ry
     ewald contribution        =     111.23481039 Ry
     one-center paw contrib.   =     -31.51941986 Ry

     charge density inside the Wigner-Seitz cell:   24.00000000

     reference position (x0):         5.53307802   -1.47620773    1.07358059 bohr

     Dipole moments (with respect to x0):
     Elect   0.1117  -0.5625   0.4112 au (Ha),   0.2840  -1.4298   1.0451 Debye
     Ionic  -0.0000   0.0000   0.0000 au (Ha),  -0.0000   0.0000   0.0000 Debye
     Total   0.1117  -0.5625   0.4112 au (Ha),   0.2840  -1.4298   1.0451 Debye

     Electrons quadrupole moment       -213.57207103 a.u. (Ha)
          Ions quadrupole moment        161.00111922 a.u. (Ha)
         Total quadrupole moment        -52.57095181 a.u. (Ha)

     *********    MAKOV-PAYNE CORRECTION    *********

     Makov-Payne correction with Madelung constant =   2.8373

     Makov-Payne correction     0.00000000 Ry =  0.000 eV (1st order, 1/a0)
                                0.00000721 Ry =  0.000 eV (2nd order, 1/a0^3)
                                0.00000721 Ry =  0.000 eV (total)

!    Total+Makov-Payne energy  =    -124.95179707 Ry
     Corrected vacuum level    =       0.01035232 eV

     convergence has been achieved in  12 iterations

     Writing all to output data dir ./pwscf.save/

     init_run     :     30.64s CPU     34.05s WALL (       1 calls)
     electrons    :    153.37s CPU    188.67s WALL (       1 calls)

     Called by init_run:
     wfcinit      :      2.40s CPU      2.81s WALL (       1 calls)
     potinit      :      3.77s CPU      4.95s WALL (       1 calls)
     hinit0       :      2.02s CPU      2.40s WALL (       1 calls)

     Called by electrons:
     c_bands      :     59.83s CPU     63.78s WALL (      12 calls)
     sum_band     :     42.51s CPU     56.16s WALL (      12 calls)
     v_of_rho     :     24.88s CPU     33.00s WALL (      13 calls)
     newd         :     19.31s CPU     28.80s WALL (      13 calls)
     PAW_pot      :      0.13s CPU      0.17s WALL (      13 calls)
     mix_rho      :      7.76s CPU      8.41s WALL (      12 calls)

     Called by c_bands:
     init_us_2    :      0.77s CPU      0.80s WALL (      25 calls)
     init_us_2:cp :      0.77s CPU      0.80s WALL (      25 calls)
     regterg      :     58.62s CPU     62.53s WALL (      12 calls)

     Called by *egterg:
     rdiaghg      :      0.01s CPU      0.02s WALL (      54 calls)
     h_psi        :     52.64s CPU     56.67s WALL (      55 calls)
     s_psi        :      1.53s CPU      1.55s WALL (      55 calls)
     g_psi        :      0.19s CPU      0.19s WALL (      42 calls)

     Called by h_psi:
     h_psi:calbec :      1.46s CPU      1.53s WALL (      55 calls)
     vloc_psi     :     49.28s CPU     53.19s WALL (      55 calls)
     add_vuspsi   :      1.51s CPU      1.53s WALL (      55 calls)

     General routines
     calbec       :      1.72s CPU      1.81s WALL (      67 calls)
     fft          :     20.71s CPU     25.67s WALL (     117 calls)
     ffts         :      1.86s CPU      2.19s WALL (      12 calls)
     fftw         :     43.77s CPU     47.99s WALL (     556 calls)

     Parallel routines

     PWSCF        :   3m 6.01s CPU   3m47.28s WALL


   This run was terminated on:  17:35:54  12Oct2023            

=------------------------------------------------------------------------------=
   JOB DONE.
=------------------------------------------------------------------------------=
