
     Program PWSCF v.7.2 starts on 12Oct2023 at 17:32:50 

     This program is part of the open-source Quantum ESPRESSO suite
     for quantum simulation of materials; please cite
         "P. Giannozzi et al., J. Phys.:Condens. Matter 21 395502 (2009);
         "P. Giannozzi et al., J. Phys.:Condens. Matter 29 465901 (2017);
         "P. Giannozzi et al., J. Chem. Phys. 152 154105 (2020);
          URL http://www.quantum-espresso.org", 
     in publications or presentations arising from this work. More details at
     http://www.quantum-espresso.org/quote

     Parallel version (MPI), running on    32 processors

     MPI processes distributed on     1 nodes
     244677 MiB available memory on the printing compute node when the environment starts

     Reading input from 66MeNH2Pyridine100_efficiency_monomer_2.in
Warning: card &CELL ignored
Warning: card / ignored

     Current dimensions of program PWSCF are:
     Max number of different atomic species (ntypx) = 10
     Max number of k-points (npk) =  40000
     Max angular momentum in pseudopotentials (lmaxx) =  4
     file N.pbe-n-kjpaw_psl.1.0.0.UPF: wavefunction(s)  2S renormalized
     file C.pbe-n-kjpaw_psl.1.0.0.UPF: wavefunction(s)  2S 2P renormalized
     file H.pbe-kjpaw_psl.1.0.0.UPF: wavefunction(s)  1S renormalized

     IMPORTANT: XC functional enforced from input :
     Exchange-correlation= PBE
                           (   1   4   3   4   0   0   0)
     Any further DFT definition will be discarded
     Please, verify this is what you really want


     gamma-point specific algorithms are used

     R & G space division:  proc/nbgrp/npool/nimage =      32
     Subspace diagonalization in iterative solution of the eigenvalue problem:
     a serial algorithm will be used


     Parallelization info
     --------------------
     sticks:   dense  smooth     PW     G-vecs:    dense   smooth      PW
     Min        6395    6395   1598              2177048  2177048  272114
     Max        6398    6398   1600              2177062  2177062  272124
     Sum      204693  204693  51189             69665707 69665707 8707803

     Using Slab Decomposition



     bravais-lattice index     =            0
     lattice parameter (alat)  =      66.1404  a.u.
     unit-cell volume          =  289334.8415 (a.u.)^3
     number of atoms/cell      =           11
     number of atomic types    =            3
     number of electrons       =        30.00
     number of Kohn-Sham states=           15
     kinetic-energy cutoff     =     147.0000  Ry
     charge density cutoff     =     588.0000  Ry
     scf convergence threshold =      1.0E-08
     mixing beta               =       0.7000
     number of iterations used =            8  plain     mixing
     Exchange-correlation= PBE
                           (   1   4   3   4   0   0   0)

     celldm(1)=  66.140414  celldm(2)=   0.000000  celldm(3)=   0.000000
     celldm(4)=   0.000000  celldm(5)=   0.000000  celldm(6)=   0.000000

     crystal axes: (cart. coord. in units of alat)
               a(1) = (   1.000000   0.000000   0.000000 )  
               a(2) = (   0.000000   1.000000   0.000000 )  
               a(3) = (   0.000000   0.000000   1.000000 )  

     reciprocal axes: (cart. coord. in units 2 pi/alat)
               b(1) = (  1.000000  0.000000  0.000000 )  
               b(2) = (  0.000000  1.000000  0.000000 )  
               b(3) = (  0.000000  0.000000  1.000000 )  


     PseudoPot. # 1 for N  read from file:
     /home/users/klimj2am/src/pslibrary.1.0.0/pbe/PSEUDOPOTENTIALS/N.pbe-n-kjpaw_psl.1.0.0.UPF
     MD5 check sum: ed3381810ced4c04e88f7c2008d4036c
     Pseudo is Projector augmented-wave + core cor, Zval =  5.0
     Generated using 'atomic' code by A. Dal Corso  v.7.2
     Shape of augmentation charge: PSQ
     Using radial grid of 1085 points,  4 beta functions with: 
                l(1) =   0
                l(2) =   0
                l(3) =   1
                l(4) =   1
     Q(r) pseudized with 0 coefficients 


     PseudoPot. # 2 for C  read from file:
     /home/users/klimj2am/src/pslibrary.1.0.0/pbe/PSEUDOPOTENTIALS/C.pbe-n-kjpaw_psl.1.0.0.UPF
     MD5 check sum: 9d4797b4e2669f30c50dcc814f8da1dd
     Pseudo is Projector augmented-wave + core cor, Zval =  4.0
     Generated using 'atomic' code by A. Dal Corso  v.7.2
     Shape of augmentation charge: PSQ
     Using radial grid of 1073 points,  4 beta functions with: 
                l(1) =   0
                l(2) =   0
                l(3) =   1
                l(4) =   1
     Q(r) pseudized with 0 coefficients 


     PseudoPot. # 3 for H  read from file:
     /home/users/klimj2am/src/pslibrary.1.0.0/pbe/PSEUDOPOTENTIALS/H.pbe-kjpaw_psl.1.0.0.UPF
     MD5 check sum: 220281c0717fd894cece6904c624ceaa
     Pseudo is Projector augmented-wave, Zval =  1.0
     Generated using 'atomic' code by A. Dal Corso  v.7.2
     Shape of augmentation charge: PSQ
     Using radial grid of  929 points,  2 beta functions with: 
                l(1) =   0
                l(2) =   0
     Q(r) pseudized with 0 coefficients 


     atomic species   valence    mass     pseudopotential
        N              5.00    14.00700     N ( 1.00)
        C              4.00    12.01100     C ( 1.00)
        H              1.00     1.00800     H ( 1.00)

     No symmetry found



   Cartesian axes

     site n.     atom                  positions (alat units)
         1           N   tau(   1) = (   0.0673897  -0.0360073   0.0008952  )
         2           C   tau(   2) = (   0.0770594  -0.0127975  -0.0280109  )
         3           H   tau(   3) = (   0.0615546  -0.0169272  -0.0544504  )
         4           C   tau(   4) = (   0.1048116   0.0155492  -0.0251433  )
         5           H   tau(   5) = (   0.1112360   0.0333875  -0.0495104  )
         6           C   tau(   6) = (   0.1236928   0.0203932   0.0094929  )
         7           H   tau(   7) = (   0.1453457   0.0421714   0.0128181  )
         8           C   tau(   8) = (   0.1139747  -0.0034629   0.0397535  )
         9           H   tau(   9) = (   0.1277629  -0.0008782   0.0672593  )
        10           C   tau(  10) = (   0.0858666  -0.0310283   0.0340626  )
        11           H   tau(  11) = (   0.0776928  -0.0499925   0.0571086  )

     number of k points=     1
                       cart. coord. in units 2pi/alat
        k(    1) = (   0.0000000   0.0000000   0.0000000), wk =   2.0000000

     Dense  grid: 34832854 G-vectors     FFT dimensions: ( 512, 512, 512)

     Estimated max dynamical RAM per process >       1.72 GB

     Estimated total dynamical RAM >      54.92 GB

     Initial potential from superposition of free atoms

     starting charge      29.9997, renormalised to      30.0000

     negative rho (up, down):  5.395E-04 0.000E+00
     Starting wfcs are   29 randomized atomic wfcs
     Checking if some PAW data can be deallocated... 

     total cpu time spent up to now is       45.6 secs

     Self-consistent Calculation

     iteration #  1     ecut=   147.00 Ry     beta= 0.70
     Davidson diagonalization with overlap
     ethr =  1.00E-02,  avg # of iterations =  2.0

     negative rho (up, down):  8.477E-04 0.000E+00

     total cpu time spent up to now is       63.7 secs

     total energy              =    -125.97093650 Ry
     estimated scf accuracy    <       1.21069310 Ry

     iteration #  2     ecut=   147.00 Ry     beta= 0.70
     Davidson diagonalization with overlap
     ethr =  4.04E-03,  avg # of iterations =  2.0

     negative rho (up, down):  8.844E-04 0.000E+00

     total cpu time spent up to now is       81.4 secs

     total energy              =    -126.21582329 Ry
     estimated scf accuracy    <       0.22411401 Ry

     iteration #  3     ecut=   147.00 Ry     beta= 0.70
     Davidson diagonalization with overlap
     ethr =  7.47E-04,  avg # of iterations =  2.0

     negative rho (up, down):  9.540E-04 0.000E+00

     total cpu time spent up to now is       98.4 secs

     total energy              =    -126.25865555 Ry
     estimated scf accuracy    <       0.00795995 Ry

     iteration #  4     ecut=   147.00 Ry     beta= 0.70
     Davidson diagonalization with overlap
     ethr =  2.65E-05,  avg # of iterations =  2.0

     negative rho (up, down):  9.668E-04 0.000E+00

     total cpu time spent up to now is      116.2 secs

     total energy              =    -126.26033054 Ry
     estimated scf accuracy    <       0.00097298 Ry

     iteration #  5     ecut=   147.00 Ry     beta= 0.70
     Davidson diagonalization with overlap
     ethr =  3.24E-06,  avg # of iterations =  2.0

     negative rho (up, down):  9.731E-04 0.000E+00

     total cpu time spent up to now is      133.1 secs

     total energy              =    -126.26043608 Ry
     estimated scf accuracy    <       0.00009822 Ry

     iteration #  6     ecut=   147.00 Ry     beta= 0.70
     Davidson diagonalization with overlap
     ethr =  3.27E-07,  avg # of iterations =  5.0

     negative rho (up, down):  9.737E-04 0.000E+00

     total cpu time spent up to now is      152.2 secs

     total energy              =    -126.26046565 Ry
     estimated scf accuracy    <       0.00002625 Ry

     iteration #  7     ecut=   147.00 Ry     beta= 0.70
     Davidson diagonalization with overlap
     ethr =  8.75E-08,  avg # of iterations =  5.0

     negative rho (up, down):  9.745E-04 0.000E+00

     total cpu time spent up to now is      171.2 secs

     total energy              =    -126.26047153 Ry
     estimated scf accuracy    <       0.00001178 Ry

     iteration #  8     ecut=   147.00 Ry     beta= 0.70
     Davidson diagonalization with overlap
     ethr =  3.93E-08,  avg # of iterations =  5.0

     negative rho (up, down):  9.746E-04 0.000E+00

     total cpu time spent up to now is      187.9 secs

     total energy              =    -126.26047377 Ry
     estimated scf accuracy    <       0.00000019 Ry

     iteration #  9     ecut=   147.00 Ry     beta= 0.70
     Davidson diagonalization with overlap
     ethr =  6.48E-10,  avg # of iterations =  5.0

     negative rho (up, down):  9.746E-04 0.000E+00

     total cpu time spent up to now is      208.5 secs

     total energy              =    -126.26047392 Ry
     estimated scf accuracy    <       0.00000015 Ry

     iteration # 10     ecut=   147.00 Ry     beta= 0.70
     Davidson diagonalization with overlap
     ethr =  5.00E-10,  avg # of iterations =  5.0

     negative rho (up, down):  9.746E-04 0.000E+00

     total cpu time spent up to now is      225.9 secs

     total energy              =    -126.26047395 Ry
     estimated scf accuracy    <       0.00000001 Ry

     iteration # 11     ecut=   147.00 Ry     beta= 0.70
     Davidson diagonalization with overlap
     ethr =  3.87E-11,  avg # of iterations =  5.0

     negative rho (up, down):  9.746E-04 0.000E+00

     total cpu time spent up to now is      244.3 secs

     End of self-consistent calculation

          k = 0.0000 0.0000 0.0000 (****** PWs)   bands (ev):

   -23.5476 -20.0561 -18.9387 -15.6187 -15.5818 -13.1116 -11.8555 -11.5287
   -10.4878  -9.9352  -9.8344  -8.8066  -7.3038  -6.7033  -5.9008

     highest occupied level (ev):    -5.9008

!    total energy              =    -126.26047395 Ry
     total all-electron energy =      -496.379737 Ry
     estimated scf accuracy    <          9.7E-09 Ry

     The total energy is the sum of the following terms:
     one-electron contribution =    -458.99974562 Ry
     hartree contribution      =     233.28860580 Ry
     xc contribution           =     -32.33790455 Ry
     ewald contribution        =     170.61231414 Ry
     one-center paw contrib.   =     -38.82374371 Ry

     charge density inside the Wigner-Seitz cell:   30.00000000

     reference position (x0):         6.35424383   -0.47987217    0.34904569 bohr

     Dipole moments (with respect to x0):
     Elect   0.6169   0.6245   0.0956 au (Ha),   1.5680   1.5873   0.2430 Debye
     Ionic   0.0000   0.0000  -0.0000 au (Ha),   0.0000   0.0000  -0.0000 Debye
     Total   0.6169   0.6245   0.0956 au (Ha),   1.5680   1.5873   0.2430 Debye

     Electrons quadrupole moment       -352.57034280 a.u. (Ha)
          Ions quadrupole moment        276.02772434 a.u. (Ha)
         Total quadrupole moment        -76.54261846 a.u. (Ha)

     *********    MAKOV-PAYNE CORRECTION    *********

     Makov-Payne correction with Madelung constant =   2.8373

     Makov-Payne correction     0.00000000 Ry =  0.000 eV (1st order, 1/a0)
                                0.00001129 Ry =  0.000 eV (2nd order, 1/a0^3)
                                0.00001129 Ry =  0.000 eV (total)

!    Total+Makov-Payne energy  =    -126.26046266 Ry
     Corrected vacuum level    =       0.01507872 eV

     convergence has been achieved in  11 iterations

     Writing all to output data dir ./pwscf.save/

     init_run     :     41.89s CPU     44.86s WALL (       1 calls)
     electrons    :    177.56s CPU    201.59s WALL (       1 calls)

     Called by init_run:
     wfcinit      :      4.36s CPU      4.75s WALL (       1 calls)
     potinit      :      4.65s CPU      5.53s WALL (       1 calls)
     hinit0       :      4.34s CPU      4.76s WALL (       1 calls)

     Called by electrons:
     c_bands      :     86.29s CPU     90.69s WALL (      11 calls)
     sum_band     :     42.54s CPU     49.70s WALL (      11 calls)
     v_of_rho     :     25.76s CPU     31.39s WALL (      12 calls)
     newd         :     16.91s CPU     23.36s WALL (      12 calls)
     PAW_pot      :      0.23s CPU      0.24s WALL (      12 calls)
     mix_rho      :      6.81s CPU      7.40s WALL (      11 calls)

     Called by c_bands:
     init_us_2    :      1.05s CPU      1.11s WALL (      23 calls)
     init_us_2:cp :      1.05s CPU      1.11s WALL (      23 calls)
     regterg      :     84.51s CPU     88.86s WALL (      11 calls)

     Called by *egterg:
     rdiaghg      :      0.02s CPU      0.03s WALL (      51 calls)
     h_psi        :     73.18s CPU     77.58s WALL (      52 calls)
     s_psi        :      3.96s CPU      3.97s WALL (      52 calls)
     g_psi        :      0.22s CPU      0.22s WALL (      40 calls)

     Called by h_psi:
     h_psi:calbec :      3.21s CPU      3.29s WALL (      52 calls)
     vloc_psi     :     65.56s CPU     69.84s WALL (      52 calls)
     add_vuspsi   :      3.97s CPU      3.98s WALL (      52 calls)

     General routines
     calbec       :      4.14s CPU      4.22s WALL (      63 calls)
     fft          :     21.68s CPU     25.93s WALL (     108 calls)
     ffts         :      1.78s CPU      2.17s WALL (      11 calls)
     fftw         :     60.47s CPU     65.24s WALL (     658 calls)

     Parallel routines

     PWSCF        :   3m42.09s CPU   4m12.13s WALL


   This run was terminated on:  17:37: 2  12Oct2023            

=------------------------------------------------------------------------------=
   JOB DONE.
=------------------------------------------------------------------------------=
