
     Program PWSCF v.7.2 starts on 13Oct2023 at 14:40:43 

     This program is part of the open-source Quantum ESPRESSO suite
     for quantum simulation of materials; please cite
         "P. Giannozzi et al., J. Phys.:Condens. Matter 21 395502 (2009);
         "P. Giannozzi et al., J. Phys.:Condens. Matter 29 465901 (2017);
         "P. Giannozzi et al., J. Chem. Phys. 152 154105 (2020);
          URL http://www.quantum-espresso.org", 
     in publications or presentations arising from this work. More details at
     http://www.quantum-espresso.org/quote

     Parallel version (MPI), running on    32 processors

     MPI processes distributed on     1 nodes
     503532 MiB available memory on the printing compute node when the environment starts

     Reading input from water_water_39_precision_monomer_1.in
Warning: card &CELL ignored
Warning: card / ignored

     Current dimensions of program PWSCF are:
     Max number of different atomic species (ntypx) = 10
     Max number of k-points (npk) =  40000
     Max angular momentum in pseudopotentials (lmaxx) =  4
     file O.pbe-n-kjpaw_psl.1.0.0.UPF: wavefunction(s)  2S 2P renormalized
     file H.pbe-kjpaw_psl.1.0.0.UPF: wavefunction(s)  1S renormalized

     IMPORTANT: XC functional enforced from input :
     Exchange-correlation= PBE
                           (   1   4   3   4   0   0   0)
     Any further DFT definition will be discarded
     Please, verify this is what you really want


     gamma-point specific algorithms are used

     R & G space division:  proc/nbgrp/npool/nimage =      32
     Subspace diagonalization in iterative solution of the eigenvalue problem:
     a serial algorithm will be used


     Parallelization info
     --------------------
     sticks:   dense  smooth     PW     G-vecs:    dense   smooth      PW
     Min        6395    6395   1598              2177048  2177048  272114
     Max        6398    6398   1600              2177062  2177062  272124
     Sum      204693  204693  51189             69665707 69665707 8707803

     Using Slab Decomposition



     bravais-lattice index     =            0
     lattice parameter (alat)  =      66.1404  a.u.
     unit-cell volume          =  289334.8415 (a.u.)^3
     number of atoms/cell      =            3
     number of atomic types    =            2
     number of electrons       =         8.00
     number of Kohn-Sham states=            4
     kinetic-energy cutoff     =     147.0000  Ry
     charge density cutoff     =     588.0000  Ry
     scf convergence threshold =      1.0E-08
     mixing beta               =       0.7000
     number of iterations used =            8  plain     mixing
     Exchange-correlation= PBE
                           (   1   4   3   4   0   0   0)

     celldm(1)=  66.140414  celldm(2)=   0.000000  celldm(3)=   0.000000
     celldm(4)=   0.000000  celldm(5)=   0.000000  celldm(6)=   0.000000

     crystal axes: (cart. coord. in units of alat)
               a(1) = (   1.000000   0.000000   0.000000 )  
               a(2) = (   0.000000   1.000000   0.000000 )  
               a(3) = (   0.000000   0.000000   1.000000 )  

     reciprocal axes: (cart. coord. in units 2 pi/alat)
               b(1) = (  1.000000  0.000000  0.000000 )  
               b(2) = (  0.000000  1.000000  0.000000 )  
               b(3) = (  0.000000  0.000000  1.000000 )  


     PseudoPot. # 1 for O  read from file:
     /home/users/klimj2am/src/pslibrary.1.0.0/pbe/PSEUDOPOTENTIALS/O.pbe-n-kjpaw_psl.1.0.0.UPF
     MD5 check sum: 48e285564fec6dca10ec424bc53b541b
     Pseudo is Projector augmented-wave + core cor, Zval =  6.0
     Generated using 'atomic' code by A. Dal Corso  v.7.2
     Shape of augmentation charge: PSQ
     Using radial grid of 1095 points,  4 beta functions with: 
                l(1) =   0
                l(2) =   0
                l(3) =   1
                l(4) =   1
     Q(r) pseudized with 0 coefficients 


     PseudoPot. # 2 for H  read from file:
     /home/users/klimj2am/src/pslibrary.1.0.0/pbe/PSEUDOPOTENTIALS/H.pbe-kjpaw_psl.1.0.0.UPF
     MD5 check sum: 220281c0717fd894cece6904c624ceaa
     Pseudo is Projector augmented-wave, Zval =  1.0
     Generated using 'atomic' code by A. Dal Corso  v.7.2
     Shape of augmentation charge: PSQ
     Using radial grid of  929 points,  2 beta functions with: 
                l(1) =   0
                l(2) =   0
     Q(r) pseudized with 0 coefficients 


     atomic species   valence    mass     pseudopotential
        O              6.00    15.99900     O ( 1.00)
        H              1.00     1.00800     H ( 1.00)

     No symmetry found



   Cartesian axes

     site n.     atom                  positions (alat units)
         1           O   tau(   1) = (   0.0000000  -0.0477941   0.0000000  )
         2           H   tau(   2) = (   0.0005031  -0.0645582  -0.0217529  )
         3           H   tau(   3) = (  -0.0003822  -0.0648105   0.0215586  )

     number of k points=     1
                       cart. coord. in units 2pi/alat
        k(    1) = (   0.0000000   0.0000000   0.0000000), wk =   2.0000000

     Dense  grid: 34832854 G-vectors     FFT dimensions: ( 512, 512, 512)

     Estimated max dynamical RAM per process >       1.52 GB

     Estimated total dynamical RAM >      48.61 GB

     Initial potential from superposition of free atoms

     starting charge       8.0000, renormalised to       8.0000

     negative rho (up, down):  6.417E-04 0.000E+00
     Starting wfcs are    6 randomized atomic wfcs
     Checking if some PAW data can be deallocated... 

     total cpu time spent up to now is       36.6 secs

     Self-consistent Calculation

     iteration #  1     ecut=   147.00 Ry     beta= 0.70
     Davidson diagonalization with overlap
     ethr =  1.00E-02,  avg # of iterations =  3.0

     negative rho (up, down):  8.510E-04 0.000E+00

     total cpu time spent up to now is       45.0 secs

     total energy              =     -43.77980701 Ry
     estimated scf accuracy    <       0.49982906 Ry

     iteration #  2     ecut=   147.00 Ry     beta= 0.70
     Davidson diagonalization with overlap
     ethr =  6.25E-03,  avg # of iterations =  5.0

     negative rho (up, down):  9.067E-04 0.000E+00

     total cpu time spent up to now is       54.0 secs

     total energy              =     -43.97389996 Ry
     estimated scf accuracy    <       0.17438769 Ry

     iteration #  3     ecut=   147.00 Ry     beta= 0.70
     Davidson diagonalization with overlap
     ethr =  2.18E-03,  avg # of iterations =  3.0

     negative rho (up, down):  1.100E-03 0.000E+00

     total cpu time spent up to now is       62.2 secs

     total energy              =     -43.99870115 Ry
     estimated scf accuracy    <       0.03594757 Ry

     iteration #  4     ecut=   147.00 Ry     beta= 0.70
     Davidson diagonalization with overlap
     ethr =  4.49E-04,  avg # of iterations =  5.0

     negative rho (up, down):  1.206E-03 0.000E+00

     total cpu time spent up to now is       71.0 secs

     total energy              =     -44.03546287 Ry
     estimated scf accuracy    <       0.00977383 Ry

     iteration #  5     ecut=   147.00 Ry     beta= 0.70
     Davidson diagonalization with overlap
     ethr =  1.22E-04,  avg # of iterations =  5.0

     negative rho (up, down):  1.189E-03 0.000E+00

     total cpu time spent up to now is       79.6 secs

     total energy              =     -44.03843769 Ry
     estimated scf accuracy    <       0.00153937 Ry

     iteration #  6     ecut=   147.00 Ry     beta= 0.70
     Davidson diagonalization with overlap
     ethr =  1.92E-05,  avg # of iterations =  5.0

     negative rho (up, down):  1.248E-03 0.000E+00

     total cpu time spent up to now is       88.2 secs

     total energy              =     -44.03945956 Ry
     estimated scf accuracy    <       0.00033310 Ry

     iteration #  7     ecut=   147.00 Ry     beta= 0.70
     Davidson diagonalization with overlap
     ethr =  4.16E-06,  avg # of iterations =  2.0

     negative rho (up, down):  1.261E-03 0.000E+00

     total cpu time spent up to now is       96.0 secs

     total energy              =     -44.03940205 Ry
     estimated scf accuracy    <       0.00029160 Ry

     iteration #  8     ecut=   147.00 Ry     beta= 0.70
     Davidson diagonalization with overlap
     ethr =  3.64E-06,  avg # of iterations =  1.0

     negative rho (up, down):  1.259E-03 0.000E+00

     total cpu time spent up to now is      103.6 secs

     total energy              =     -44.03939846 Ry
     estimated scf accuracy    <       0.00006514 Ry

     iteration #  9     ecut=   147.00 Ry     beta= 0.70
     Davidson diagonalization with overlap
     ethr =  8.14E-07,  avg # of iterations =  2.0

     negative rho (up, down):  1.259E-03 0.000E+00

     total cpu time spent up to now is      111.8 secs

     total energy              =     -44.03942297 Ry
     estimated scf accuracy    <       0.00000806 Ry

     iteration # 10     ecut=   147.00 Ry     beta= 0.70
     Davidson diagonalization with overlap
     ethr =  1.01E-07,  avg # of iterations =  6.0

     negative rho (up, down):  1.258E-03 0.000E+00

     total cpu time spent up to now is      121.8 secs

     total energy              =     -44.03943060 Ry
     estimated scf accuracy    <       0.00000267 Ry

     iteration # 11     ecut=   147.00 Ry     beta= 0.70
     Davidson diagonalization with overlap
     ethr =  3.34E-08,  avg # of iterations =  1.0

     negative rho (up, down):  1.258E-03 0.000E+00

     total cpu time spent up to now is      129.5 secs

     total energy              =     -44.03943132 Ry
     estimated scf accuracy    <       0.00000244 Ry

     iteration # 12     ecut=   147.00 Ry     beta= 0.70
     Davidson diagonalization with overlap
     ethr =  3.05E-08,  avg # of iterations =  2.0

     negative rho (up, down):  1.258E-03 0.000E+00

     total cpu time spent up to now is      137.5 secs

     total energy              =     -44.03944128 Ry
     estimated scf accuracy    <       0.00000386 Ry

     iteration # 13     ecut=   147.00 Ry     beta= 0.70
     Davidson diagonalization with overlap
     ethr =  3.05E-08,  avg # of iterations = 13.0

     negative rho (up, down):  1.258E-03 0.000E+00

     total cpu time spent up to now is      151.1 secs

     total energy              =     -44.03944117 Ry
     estimated scf accuracy    <       0.00011998 Ry

     iteration # 14     ecut=   147.00 Ry     beta= 0.70
     Davidson diagonalization with overlap
     ethr =  3.05E-08,  avg # of iterations =  6.0

     negative rho (up, down):  1.258E-03 0.000E+00

     total cpu time spent up to now is      161.0 secs

     total energy              =     -44.03942392 Ry
     estimated scf accuracy    <       0.00006234 Ry

     iteration # 15     ecut=   147.00 Ry     beta= 0.70
     Davidson diagonalization with overlap
     ethr =  3.05E-08,  avg # of iterations =  9.0

     negative rho (up, down):  1.258E-03 0.000E+00

     total cpu time spent up to now is      172.5 secs

     total energy              =     -44.03942827 Ry
     estimated scf accuracy    <       0.00000599 Ry

     iteration # 16     ecut=   147.00 Ry     beta= 0.70
     Davidson diagonalization with overlap
     ethr =  3.05E-08,  avg # of iterations =  3.0

     negative rho (up, down):  1.258E-03 0.000E+00

     total cpu time spent up to now is      181.0 secs

     total energy              =     -44.03942908 Ry
     estimated scf accuracy    <       0.00000033 Ry

     iteration # 17     ecut=   147.00 Ry     beta= 0.70
     Davidson diagonalization with overlap
     ethr =  4.18E-09,  avg # of iterations = 10.0

     negative rho (up, down):  1.258E-03 0.000E+00

     total cpu time spent up to now is      193.0 secs

     total energy              =     -44.03943009 Ry
     estimated scf accuracy    <       0.00000038 Ry

     iteration # 18     ecut=   147.00 Ry     beta= 0.70
     Davidson diagonalization with overlap
     ethr =  4.18E-09,  avg # of iterations =  1.0

     negative rho (up, down):  1.258E-03 0.000E+00

     total cpu time spent up to now is      200.6 secs

     total energy              =     -44.03942999 Ry
     estimated scf accuracy    <       0.00000044 Ry

     iteration # 19     ecut=   147.00 Ry     beta= 0.70
     Davidson diagonalization with overlap
     ethr =  4.18E-09,  avg # of iterations =  1.0

     negative rho (up, down):  1.258E-03 0.000E+00

     total cpu time spent up to now is      208.3 secs

     total energy              =     -44.03942995 Ry
     estimated scf accuracy    <       0.00000026 Ry

     iteration # 20     ecut=   147.00 Ry     beta= 0.70
     Davidson diagonalization with overlap
     ethr =  3.27E-09,  avg # of iterations =  2.0

     negative rho (up, down):  1.258E-03 0.000E+00

     total cpu time spent up to now is      216.3 secs

     total energy              =     -44.03942998 Ry
     estimated scf accuracy    <       0.00000011 Ry

     iteration # 21     ecut=   147.00 Ry     beta= 0.70
     Davidson diagonalization with overlap
     ethr =  1.38E-09,  avg # of iterations =  1.0

     negative rho (up, down):  1.258E-03 0.000E+00

     total cpu time spent up to now is      223.9 secs

     total energy              =     -44.03942999 Ry
     estimated scf accuracy    <       0.00000011 Ry

     iteration # 22     ecut=   147.00 Ry     beta= 0.70
     Davidson diagonalization with overlap
     ethr =  1.35E-09,  avg # of iterations =  1.0

     negative rho (up, down):  1.258E-03 0.000E+00

     total cpu time spent up to now is      231.5 secs

     total energy              =     -44.03942998 Ry
     estimated scf accuracy    <       0.00000009 Ry

     iteration # 23     ecut=   147.00 Ry     beta= 0.70
     Davidson diagonalization with overlap
     ethr =  1.12E-09,  avg # of iterations =  1.0

     negative rho (up, down):  1.258E-03 0.000E+00

     total cpu time spent up to now is      239.2 secs

     total energy              =     -44.03942997 Ry
     estimated scf accuracy    <       0.00000006 Ry

     iteration # 24     ecut=   147.00 Ry     beta= 0.70
     Davidson diagonalization with overlap
     ethr =  7.61E-10,  avg # of iterations =  1.0

     negative rho (up, down):  1.258E-03 0.000E+00

     total cpu time spent up to now is      246.8 secs

     total energy              =     -44.03942996 Ry
     estimated scf accuracy    <       0.00000003 Ry

     iteration # 25     ecut=   147.00 Ry     beta= 0.70
     Davidson diagonalization with overlap
     ethr =  3.40E-10,  avg # of iterations =  2.0

     negative rho (up, down):  1.259E-03 0.000E+00

     total cpu time spent up to now is      254.1 secs

     End of self-consistent calculation

          k = 0.0000 0.0000 0.0000 (****** PWs)   bands (ev):

   -25.4013 -13.1539  -9.3255  -7.2445

     highest occupied level (ev):    -7.2445

!    total energy              =     -44.03942996 Ry
     total all-electron energy =      -152.886312 Ry
     estimated scf accuracy    <          6.1E-09 Ry

     The total energy is the sum of the following terms:
     one-electron contribution =     -76.77817265 Ry
     hartree contribution      =      40.03225736 Ry
     xc contribution           =      -8.87080142 Ry
     ewald contribution        =      11.16380254 Ry
     one-center paw contrib.   =      -9.58651579 Ry

     charge density inside the Wigner-Seitz cell:    8.00000000

     reference position (x0):         0.00099917   -3.44040387   -0.00160653 bohr

     Dipole moments (with respect to x0):
     Elect   0.0026  -0.7141  -0.0042 au (Ha),   0.0065  -1.8150  -0.0106 Debye
     Ionic   0.0000  -0.0000  -0.0000 au (Ha),   0.0000  -0.0000  -0.0000 Debye
     Total   0.0026  -0.7141  -0.0042 au (Ha),   0.0065  -1.8150  -0.0106 Debye

     Electrons quadrupole moment        -20.06538965 a.u. (Ha)
          Ions quadrupole moment          5.97697376 a.u. (Ha)
         Total quadrupole moment        -14.08841588 a.u. (Ha)

     *********    MAKOV-PAYNE CORRECTION    *********

     Makov-Payne correction with Madelung constant =   2.8373

     Makov-Payne correction     0.00000000 Ry =  0.000 eV (1st order, 1/a0)
                                0.00000738 Ry =  0.000 eV (2nd order, 1/a0^3)
                                0.00000738 Ry =  0.000 eV (total)

!    Total+Makov-Payne energy  =     -44.03942258 Ry
     Corrected vacuum level    =       0.00277522 eV

     convergence has been achieved in  25 iterations

     Writing all to output data dir ./pwscf.save/

     init_run     :     33.90s CPU     36.17s WALL (       1 calls)
     electrons    :    189.14s CPU    220.28s WALL (       1 calls)

     Called by init_run:
     wfcinit      :      0.80s CPU      0.95s WALL (       1 calls)
     potinit      :      3.63s CPU      4.51s WALL (       1 calls)
     hinit0       :      3.63s CPU      3.96s WALL (       1 calls)

     Called by electrons:
     c_bands      :     53.51s CPU     56.67s WALL (      25 calls)
     sum_band     :     44.22s CPU     52.24s WALL (      25 calls)
     v_of_rho     :     51.07s CPU     62.82s WALL (      26 calls)
     newd         :     20.65s CPU     27.57s WALL (      26 calls)
     PAW_pot      :      0.22s CPU      0.31s WALL (      26 calls)
     mix_rho      :     18.86s CPU     19.90s WALL (      25 calls)

     Called by c_bands:
     init_us_2    :      0.97s CPU      0.99s WALL (      51 calls)
     init_us_2:cp :      0.97s CPU      0.99s WALL (      51 calls)
     regterg      :     52.41s CPU     55.57s WALL (      25 calls)

     Called by *egterg:
     rdiaghg      :      0.01s CPU      0.02s WALL (     116 calls)
     h_psi        :     46.91s CPU     50.11s WALL (     117 calls)
     s_psi        :      0.73s CPU      0.74s WALL (     117 calls)
     g_psi        :      0.18s CPU      0.18s WALL (      91 calls)

     Called by h_psi:
     h_psi:calbec :      0.83s CPU      0.84s WALL (     117 calls)
     vloc_psi     :     45.05s CPU     48.22s WALL (     117 calls)
     add_vuspsi   :      0.71s CPU      0.72s WALL (     117 calls)

     General routines
     calbec       :      1.02s CPU      1.04s WALL (     142 calls)
     fft          :     42.03s CPU     51.33s WALL (     234 calls)
     ffts         :      3.87s CPU      4.56s WALL (      25 calls)
     fftw         :     40.51s CPU     43.98s WALL (     456 calls)

     Parallel routines

     PWSCF        :   3m44.84s CPU   4m20.20s WALL


   This run was terminated on:  14:45: 3  13Oct2023            

=------------------------------------------------------------------------------=
   JOB DONE.
=------------------------------------------------------------------------------=
