 vasp.6.1.2 22Jul20 (build Jan  6 2021 09:55:43) gamma-only                      
 executed on             LinuxPGI date 2021.03.02  05:22:58
 running on   32 total cores
 distrk:  each k-point on   32 cores,    1 groups
 distr:  one band on NCORE=   8 cores,    4 groups


--------------------------------------------------------------------------------------------------------


 INCAR:
 POTCAR:    PAW_PBE H 15Jun2001                   
 POTCAR:    PAW_PBE O 08Apr2002                   
 POTCAR:    PAW_PBE H 15Jun2001                   
   VRHFIN =H: ultrasoft test                                                                        
   LEXCH  = PE                                                                                      
   EATOM  =    12.4884 eV,    0.9179 Ry                                                             
                                                                                                    
   TITEL  = PAW_PBE H 15Jun2001                                                                     
   LULTRA =        F    use ultrasoft PP ?                                                          
   IUNSCR =        0    unscreen: 0-lin 1-nonlin 2-no                                               
   RPACOR =    0.000    partial core radius                                                         
   POMASS =    1.000; ZVAL   =    1.000    mass and valenz                                          
   RCORE  =    1.100    outmost cutoff radius                                                       
   RWIGS  =    0.700; RWIGS  =    0.370    wigner-seitz radius (au A)                               
   ENMAX  =  250.000; ENMIN  =  200.000 eV                                                          
   RCLOC  =    0.701    cutoff for local pot                                                        
   LCOR   =        T    correct aug charges                                                         
   LPAW   =        T    paw PP                                                                      
   EAUG   =  400.000                                                                                
   RMAX   =    1.123    core radius for proj-oper                                                   
   RAUG   =    1.200    factor for augmentation sphere                                              
   RDEP   =    1.112    radius for radial grids                                                     
   RDEPT  =    0.926    core radius for aug-charge                                                  
                                                                                                    
   Atomic configuration                                                                             
    2 entries                                                                                       
     n  l   j            E        occ.                                                              
     1  0  0.50        -6.4927   1.0000                                                             
     2  1  0.50        -3.4015   0.0000                                                             
   Description                                                                                      
     l       E           TYP  RCUT    TYP  RCUT                                                     
     0     -6.4927494     23  1.100                                                                 
     0      6.8029130     23  1.100                                                                 
     1     -4.0817478     23  1.100                                                                 
  local pseudopotential read in
  atomic valenz-charges read in
  non local Contribution for L=            0  read in
    real space projection operators read in
  non local Contribution for L=            0  read in
    real space projection operators read in
  non local Contribution for L=            1  read in
    real space projection operators read in
    PAW grid and wavefunctions read in
 
   number of l-projection  operators is LMAX  =            3
   number of lm-projection operators is LMMAX =            5
 
 POTCAR:    PAW_PBE O 08Apr2002                   
   VRHFIN =O: s2p4                                                                                  
   LEXCH  = PE                                                                                      
   EATOM  =   432.3788 eV,   31.7789 Ry                                                             
                                                                                                    
   TITEL  = PAW_PBE O 08Apr2002                                                                     
   LULTRA =        F    use ultrasoft PP ?                                                          
   IUNSCR =        1    unscreen: 0-lin 1-nonlin 2-no                                               
   RPACOR =    1.200    partial core radius                                                         
   POMASS =   16.000; ZVAL   =    6.000    mass and valenz                                          
   RCORE  =    1.520    outmost cutoff radius                                                       
   RWIGS  =    1.550; RWIGS  =    0.820    wigner-seitz radius (au A)                               
   ENMAX  =  400.000; ENMIN  =  300.000 eV                                                          
   ICORE  =        2    local potential                                                             
   LCOR   =        T    correct aug charges                                                         
   LPAW   =        T    paw PP                                                                      
   EAUG   =  605.392                                                                                
   DEXC   =    0.000                                                                                
   RMAX   =    1.553    core radius for proj-oper                                                   
   RAUG   =    1.300    factor for augmentation sphere                                              
   RDEP   =    1.550    radius for radial grids                                                     
   RDEPT  =    1.329    core radius for aug-charge                                                  
                                                                                                    
   Atomic configuration                                                                             
    4 entries                                                                                       
     n  l   j            E        occ.                                                              
     1  0  0.50      -514.6923   2.0000                                                             
     2  0  0.50       -23.9615   2.0000                                                             
     2  1  0.50        -9.0305   4.0000                                                             
     3  2  1.50        -9.5241   0.0000                                                             
   Description                                                                                      
     l       E           TYP  RCUT    TYP  RCUT                                                     
     0    -23.9615318     23  1.200                                                                 
     0     -9.5240782     23  1.200                                                                 
     1     -9.0304911     23  1.520                                                                 
     1      8.1634956     23  1.520                                                                 
     2     -9.5240782      7  1.500                                                                 
  local pseudopotential read in
  partial core-charges read in
  partial kinetic energy density read in
  kinetic energy density of atom read in
  atomic valenz-charges read in
  non local Contribution for L=            0  read in
    real space projection operators read in
  non local Contribution for L=            0  read in
    real space projection operators read in
  non local Contribution for L=            1  read in
    real space projection operators read in
  non local Contribution for L=            1  read in
    real space projection operators read in
    PAW grid and wavefunctions read in
 
   number of l-projection  operators is LMAX  =            4
   number of lm-projection operators is LMMAX =            8
 
  PAW_PBE H 15Jun2001                   :
 energy of atom  1       EATOM=  -12.4884
 kinetic energy error for atom=    0.0000 (will be added to EATOM!!)
  PAW_PBE O 08Apr2002                   :
 energy of atom  2       EATOM= -432.3788
 kinetic energy error for atom=    0.0005 (will be added to EATOM!!)
 
 
 POSCAR:  H  O
  positions in cartesian coordinates
  No initial velocities read in
 exchange correlation table for  LEXCH =        8
   RHO(1)=    0.500       N(1)  =     2000
   RHO(2)=  100.500       N(2)  =     4000
 


--------------------------------------------------------------------------------------------------------


 ion  position               nearest neighbor table
   1  0.001  0.113  0.973-   3 0.96
   2  0.000  0.079  0.000-   3 0.96
   3  0.000  0.106  0.000-   2 0.96   1 0.96
 
  LATTYP: Found a simple cubic cell.
 ALAT       =    35.0000000000
  
  Lattice vectors:
  
 A1 = (  35.0000000000,   0.0000000000,   0.0000000000)
 A2 = (   0.0000000000,  35.0000000000,   0.0000000000)
 A3 = (   0.0000000000,   0.0000000000,  35.0000000000)


Analysis of symmetry for initial positions (statically):
=====================================================================
 Subroutine PRICEL returns:
 Original cell was already a primitive cell.
 

 Routine SETGRP: Setting up the symmetry group for a 
 simple cubic supercell.


 Subroutine GETGRP returns: Found  1 space group operations
 (whereof  1 operations were pure point group operations)
 out of a pool of 48 trial point group operations.


The static configuration has the point symmetry C_1 .


Analysis of symmetry for dynamics (positions and initial velocities):
=====================================================================
 Subroutine PRICEL returns:
 Original cell was already a primitive cell.
 

 Routine SETGRP: Setting up the symmetry group for a 
 simple cubic supercell.


 Subroutine GETGRP returns: Found  1 space group operations
 (whereof  1 operations were pure point group operations)
 out of a pool of 48 trial point group operations.


The dynamic configuration has the point symmetry C_1 .


 Subroutine INISYM returns: Found  1 space group operations
 (whereof  1 operations are pure point group operations),
 and found     1 'primitive' translations


----------------------------------------------------------------------------------------

                                     Primitive cell                                     

  volume of cell :   42875.0000

  direct lattice vectors                    reciprocal lattice vectors
    35.000000000  0.000000000  0.000000000     0.028571429  0.000000000  0.000000000
     0.000000000 35.000000000  0.000000000     0.000000000  0.028571429  0.000000000
     0.000000000  0.000000000 35.000000000     0.000000000  0.000000000  0.028571429

  length of vectors
    35.000000000 35.000000000 35.000000000     0.028571429  0.028571429  0.028571429

  position of ions in fractional coordinates (direct lattice)
     0.001011704  0.112976117  0.973379868
     0.000000000  0.078813600  0.000000000
     0.000000000  0.106281314  0.000000000

  ion indices of the primitive-cell ions
   primitive index   ion index
                 1           1
                 2           2
                 3           3

----------------------------------------------------------------------------------------

 
 
 KPOINTS: automatic mesh                          

Automatic generation of k-mesh.
Space group operators:
 irot       det(A)        alpha          n_x          n_y          n_z        tau_x        tau_y        tau_z
    1     1.000000     0.000000     1.000000     0.000000     0.000000     0.000000     0.000000     0.000000
 
 Subroutine IBZKPT returns following result:
 ===========================================
 
 Found      1 irreducible k-points:
 
 Following reciprocal coordinates:
            Coordinates               Weight
  0.000000  0.000000  0.000000      1.000000
 
 Following cartesian coordinates:
            Coordinates               Weight
  0.000000  0.000000  0.000000      1.000000
 


--------------------------------------------------------------------------------------------------------




 Dimension of arrays:
   k-points           NKPTS =      1   k-points in BZ     NKDIM =      1   number of bands    NBANDS=      8
   number of dos      NEDOS =    301   number of ions     NIONS =      3
   non local maximal  LDIM  =      4   non local SUM 2l+1 LMDIM =      8
   total plane-waves  NPLWV = ******
   max r-space proj   IRMAX =      1   max aug-charges    IRDMAX=  33660
   dimension x,y,z NGX =   480 NGY =  480 NGZ =  480
   dimension x,y,z NGXF=   960 NGYF=  960 NGZF=  960
   support grid    NGXF=   960 NGYF=  960 NGZF=  960
   ions per type =               2   1
   NGX,Y,Z   is equivalent  to a cutoff of  22.80, 22.80, 22.80 a.u.
   NGXF,Y,Z  is equivalent  to a cutoff of  45.60, 45.60, 45.60 a.u.

 SYSTEM =  C                                       
 POSCAR =   H  O                                   

 Startparameter for this run:
   NWRITE =      2    write-flag & timer
   PREC   = acc       normal or accurate (medium, high low for compatibility)
   ISTART =      0    job   : 0-new  1-cont  2-samecut
   ICHARG =      2    charge: 1-file 2-atom 10-const
   ISPIN  =      1    spin polarized calculation?
   LNONCOLLINEAR =      F non collinear calculations
   LSORBIT =      F    spin-orbit coupling
   INIWAV =      1    electr: 0-lowe 1-rand  2-diag
   LASPH  =      T    aspherical Exc in radial PAW
   METAGGA=      F    non-selfconsistent MetaGGA calc.

 Electronic Relaxation 1
   ENCUT  = 1600.0 eV 117.60 Ry   10.84 a.u. 114.15114.15114.15*2*pi/ulx,y,z
   ENINI  = 1600.0     initial cutoff
   ENAUG  =  605.4 eV  augmentation charge cutoff
   NELM   =     60;   NELMIN=  2; NELMDL= -5     # of ELM steps 
   EDIFF  = 0.1E-06   stopping-criterion for ELM
   LREAL  =      F    real-space projection
   NLSPLINE    = F    spline interpolate recip. space projectors
   LCOMPAT=      F    compatible to vasp.4.4
   GGA_COMPAT  = T    GGA compatible to vasp.4.4-vasp.4.6
   LMAXPAW     = -100 max onsite density
   LMAXMIX     =    2 max onsite mixed and CHGCAR
   VOSKOWN=      0    Vosko Wilk Nusair interpolation
   ROPT   =    0.00000   0.00000
 Ionic relaxation
   EDIFFG = 0.1E-05   stopping-criterion for IOM
   NSW    =      0    number of steps for IOM
   NBLOCK =      1;   KBLOCK =      1    inner block; outer block 
   IBRION =     -1    ionic relax: 0-MD 1-quasi-New 2-CG
   NFREE  =      0    steps in history (QN), initial steepest desc. (CG)
   ISIF   =      2    stress and relaxation
   IWAVPR =     10    prediction:  0-non 1-charg 2-wave 3-comb
   ISYM   =      2    0-nonsym 1-usesym 2-fastsym
   LCORR  =      T    Harris-Foulkes like correction to forces

   POTIM  = 0.5000    time-step for ionic-motion
   TEIN   =    0.0    initial temperature
   TEBEG  =    0.0;   TEEND  =   0.0 temperature during run
   SMASS  =  -3.00    Nose mass-parameter (am)
   estimated Nose-frequenzy (Omega)   =  0.10E-29 period in steps = 0.13E+47 mass=  -0.280E-25a.u.
   SCALEE = 1.0000    scale energy and forces
   NPACO  =    256;   APACO  = 16.0  distance and # of slots for P.C.
   PSTRESS=    0.0 pullay stress

  Mass of Ions in am
   POMASS =   1.00 16.00
  Ionic Valenz
   ZVAL   =   1.00  6.00
  Atomic Wigner-Seitz radii
   RWIGS  =  -1.00 -1.00
  virtual crystal weights 
   VCA    =   1.00  1.00
   NELECT =       8.0000    total number of electrons
   NUPDOWN=      -1.0000    fix difference up-down

 DOS related values:
   EMIN   =  10.00;   EMAX   =-10.00  energy-range for DOS
   EFERMI =   0.00
   ISMEAR =     0;   SIGMA  =   0.01  broadening in eV -4-tet -1-fermi 0-gaus

 Electronic relaxation 2 (details)
   IALGO  =     38    algorithm
   LDIAG  =      T    sub-space diagonalisation (order eigenvalues)
   LSUBROT=      F    optimize rotation matrix (better conditioning)
   TURBO    =      0    0=normal 1=particle mesh
   IRESTART =      0    0=no restart 2=restart with 2 vectors
   NREBOOT  =      0    no. of reboots
   NMIN     =      0    reboot dimension
   EREF     =   0.00    reference energy to select bands
   IMIX   =      4    mixing-type and parameters
     AMIX     =   0.40;   BMIX     =  1.00
     AMIX_MAG =   1.60;   BMIX_MAG =  1.00
     AMIN     =   0.10
     WC   =   100.;   INIMIX=   1;  MIXPRE=   1;  MAXMIX= -45

 Intra band minimization:
   WEIMIN = 0.0000     energy-eigenvalue tresh-hold
   EBREAK =  0.31E-08  absolut break condition
   DEPER  =   0.30     relativ break condition  

   TIME   =   0.40     timestep for ELM

  volume/ion in A,a.u.               =   14291.67     96444.93
  Fermi-wavevector in a.u.,A,eV,Ry     =   0.093548  0.176781  0.119069  0.008751
  Thomas-Fermi vector in A             =   0.652187
 
 Write flags
   LWAVE        =      T    write WAVECAR
   LDOWNSAMPLE  =      F    k-point downsampling of WAVECAR
   LCHARG       =      T    write CHGCAR
   LVTOT        =      F    write LOCPOT, total local potential
   LVHAR        =      F    write LOCPOT, Hartree potential only
   LELF         =      F    write electronic localiz. function (ELF)
   LORBIT       =      0    0 simple, 1 ext, 2 COOP (PROOUT), +10 PAW based schemes


 Dipole corrections
   LMONO  =      F    monopole corrections only (constant potential shift)
   LDIPOL =      F    correct potential (dipole corrections)
   IDIPOL =      4    1-x, 2-y, 3-z, 4-all directions 
   EPSILON=  1.0000000 bulk dielectric constant

 Exchange correlation treatment:
   GGA     =    --    GGA type
   LEXCH   =     8    internal setting for exchange type
   VOSKOWN=      0    Vosko Wilk Nusair interpolation
   LHFCALC =     F    Hartree Fock is set to
   LHFONE  =     F    Hartree Fock one center treatment
   AEXX    =    0.0000 exact exchange contribution

 Linear response parameters
   LEPSILON=     F    determine dielectric tensor
   LRPA    =     F    only Hartree local field effects (RPA)
   LNABLA  =     F    use nabla operator in PAW spheres
   LVEL    =     F    velocity operator in full k-point grid
   LINTERFAST=   F  fast interpolation
   KINTER  =     0    interpolate to denser k-point grid
   CSHIFT  =0.1000    complex shift for real part using Kramers Kronig
   OMEGAMAX=  -1.0    maximum frequency
   DEG_THRESHOLD= 0.2000000E-02 threshold for treating states as degnerate
   RTIME   =   -0.100 relaxation time in fs
  (WPLASMAI=    0.000 imaginary part of plasma frequency in eV, 0.658/RTIME)
   DFIELD  = 0.0000000 0.0000000 0.0000000 field for delta impulse in time
 
 Orbital magnetization related:
   ORBITALMAG=     F  switch on orbital magnetization
   LCHIMAG   =     F  perturbation theory with respect to B field
   DQ        =  0.001000  dq finite difference perturbation B field
   LLRAUG    =     F  two centre corrections for induced B field



--------------------------------------------------------------------------------------------------------


 Static calculation
 charge density and potential will be updated during run
 non-spin polarized calculation
 Variant of blocked Davidson
 Davidson routine will perform the subspace rotation
 perform sub-space diagonalisation
    after iterative eigenvector-optimisation
 modified Broyden-mixing scheme, WC =      100.0
 initial mixing is a Kerker type mixing with AMIX =  0.4000 and BMIX =      1.0000
 Hartree-type preconditioning will be used
 using additional bands             4
 reciprocal scheme for non local part
 use partial core corrections
 calculate Harris-corrections to forces 
   (improved forces if not selfconsistent)
 use gradient corrections 
 use of overlap-Matrix (Vanderbilt PP)
 Gauss-broadening in eV      SIGMA  =   0.01


--------------------------------------------------------------------------------------------------------


  energy-cutoff  :     1600.00
  volume of cell :    42875.00
      direct lattice vectors                 reciprocal lattice vectors
    35.000000000  0.000000000  0.000000000     0.028571429  0.000000000  0.000000000
     0.000000000 35.000000000  0.000000000     0.000000000  0.028571429  0.000000000
     0.000000000  0.000000000 35.000000000     0.000000000  0.000000000  0.028571429

  length of vectors
    35.000000000 35.000000000 35.000000000     0.028571429  0.028571429  0.028571429


 
 k-points in units of 2pi/SCALE and weight: automatic mesh                          
   0.00000000  0.00000000  0.00000000       1.000
 
 k-points in reciprocal lattice and weights: automatic mesh                          
   0.00000000  0.00000000  0.00000000       1.000
 
 position of ions in fractional coordinates (direct lattice) 
   0.00101170  0.11297612  0.97337987
   0.00000000  0.07881360  0.00000000
   0.00000000  0.10628131  0.00000000
 
 position of ions in cartesian coordinates  (Angst):
   0.03540965  3.95416408 34.06829539
   0.00000000  2.75847600  0.00000000
   0.00000000  3.71984600  0.00000000
 


--------------------------------------------------------------------------------------------------------


 use parallel FFT for orbitals z direction half grid
 k-point   1 :   0.0000 0.0000 0.0000  plane waves: 3115599

 maximum and minimum number of plane-waves per node :    389462   389421

 maximum number of plane-waves:   3115599
 maximum index in each direction: 
   IXMAX=  114   IYMAX=  114   IZMAX=  114
   IXMIN= -114   IYMIN= -114   IZMIN=    0


 parallel 3D FFT for wavefunctions:
    minimum data exchange during FFTs selected (reduces bandwidth)
 parallel 3D FFT for charge:
    minimum data exchange during FFTs selected (reduces bandwidth)


 total amount of memory used by VASP MPI-rank0  3430239. kBytes
=======================================================================

   base      :      30000. kBytes
   nonl-proj :      68538. kBytes
   fftplans  :    1215227. kBytes
   grid      :    2104012. kBytes
   one-center:          1. kBytes
   wavefun   :      12461. kBytes
 
     INWAV:  cpu time    0.0000: real time    0.0000
 Broyden mixing: mesh for mixing (old mesh)
   NGX =229   NGY =229   NGZ =229
  (NGX  =960   NGY  =960   NGZ  =960)
  gives a total of ****** points

 initial charge density was supplied:
 charge density of overlapping atoms calculated
 number of electron       8.0000000 magnetization 
 keeping initial charge density in first step


--------------------------------------------------------------------------------------------------------


 Maximum index for augmentation-charges          1227 (set IRDMAX)


--------------------------------------------------------------------------------------------------------


 First call to EWALD:  gamma=   0.051
 Maximum number of real-space cells 3x 3x 3
 Maximum number of reciprocal cells 3x 3x 3

    FEWALD:  cpu time    0.0008: real time    0.0008


--------------------------------------- Iteration      1(   1)  ---------------------------------------


    POTLOK:  cpu time   22.1239: real time   22.1539
    SETDIJ:  cpu time    0.0552: real time    0.0558
     EDDAV:  cpu time    7.5016: real time    7.6488
       DOS:  cpu time    0.0210: real time    0.0210
    --------------------------------------------
      LOOP:  cpu time   29.7017: real time   29.8795

 eigenvalue-minimisations  :    24
 total energy-change (2. order) : 0.8399299E+02  (-0.1273735E+03)
 number of electron       8.0000000 magnetization 
 augmentation part        8.0000000 magnetization 

 Free energy of the ion-electron system (eV)
  ---------------------------------------------------
  alpha Z        PSCENC =         0.00523035
  Ewald energy   TEWEN  =       151.89277050
  -Hartree energ DENC   =      -509.55289871
  -exchange      EXHF   =         0.00000000
  -V(xc)+E(xc)   XCENC  =        32.22394620
  PAW double counting   =       350.81753176     -352.63395800
  entropy T*S    EENTRO =        -0.00000000
  eigenvalues    EBANDS =       -46.11471248
  atomic energy  EATOM  =       457.35508475
  Solvation  Ediel_sol  =         0.00000000
  ---------------------------------------------------
  free energy    TOTEN  =        83.99299437 eV

  energy without entropy =       83.99299437  energy(sigma->0) =       83.99299437


--------------------------------------------------------------------------------------------------------




--------------------------------------- Iteration      1(   2)  ---------------------------------------


     EDDAV:  cpu time    9.3174: real time   10.3564
       DOS:  cpu time    0.0123: real time    0.0123
    --------------------------------------------
      LOOP:  cpu time    9.3297: real time   10.3687

 eigenvalue-minimisations  :    32
 total energy-change (2. order) :-0.5318176E+02  (-0.5318176E+02)
 number of electron       8.0000000 magnetization 
 augmentation part        8.0000000 magnetization 

 Free energy of the ion-electron system (eV)
  ---------------------------------------------------
  alpha Z        PSCENC =         0.00523035
  Ewald energy   TEWEN  =       151.89277050
  -Hartree energ DENC   =      -509.55289871
  -exchange      EXHF   =         0.00000000
  -V(xc)+E(xc)   XCENC  =        32.22394620
  PAW double counting   =       350.81753176     -352.63395800
  entropy T*S    EENTRO =        -0.00000000
  eigenvalues    EBANDS =       -99.29647669
  atomic energy  EATOM  =       457.35508475
  Solvation  Ediel_sol  =         0.00000000
  ---------------------------------------------------
  free energy    TOTEN  =        30.81123017 eV

  energy without entropy =       30.81123017  energy(sigma->0) =       30.81123017


--------------------------------------------------------------------------------------------------------




--------------------------------------- Iteration      1(   3)  ---------------------------------------


     EDDAV:  cpu time    7.5271: real time    7.5370
       DOS:  cpu time    0.0201: real time    0.0202
    --------------------------------------------
      LOOP:  cpu time    7.5473: real time    7.5572

 eigenvalue-minimisations  :    24
 total energy-change (2. order) :-0.4035869E+02  (-0.4035869E+02)
 number of electron       8.0000000 magnetization 
 augmentation part        8.0000000 magnetization 

 Free energy of the ion-electron system (eV)
  ---------------------------------------------------
  alpha Z        PSCENC =         0.00523035
  Ewald energy   TEWEN  =       151.89277050
  -Hartree energ DENC   =      -509.55289871
  -exchange      EXHF   =         0.00000000
  -V(xc)+E(xc)   XCENC  =        32.22394620
  PAW double counting   =       350.81753176     -352.63395800
  entropy T*S    EENTRO =        -0.00000000
  eigenvalues    EBANDS =      -139.65516333
  atomic energy  EATOM  =       457.35508475
  Solvation  Ediel_sol  =         0.00000000
  ---------------------------------------------------
  free energy    TOTEN  =        -9.54745648 eV

  energy without entropy =       -9.54745648  energy(sigma->0) =       -9.54745648


--------------------------------------------------------------------------------------------------------




--------------------------------------- Iteration      1(   4)  ---------------------------------------


     EDDAV:  cpu time    5.7667: real time    5.7772
       DOS:  cpu time    0.0151: real time    0.0151
    --------------------------------------------
      LOOP:  cpu time    5.7818: real time    5.7923

 eigenvalue-minimisations  :    16
 total energy-change (2. order) :-0.6700211E+01  (-0.6700211E+01)
 number of electron       8.0000000 magnetization 
 augmentation part        8.0000000 magnetization 

 Free energy of the ion-electron system (eV)
  ---------------------------------------------------
  alpha Z        PSCENC =         0.00523035
  Ewald energy   TEWEN  =       151.89277050
  -Hartree energ DENC   =      -509.55289871
  -exchange      EXHF   =         0.00000000
  -V(xc)+E(xc)   XCENC  =        32.22394620
  PAW double counting   =       350.81753176     -352.63395800
  entropy T*S    EENTRO =        -0.00000000
  eigenvalues    EBANDS =      -146.35537463
  atomic energy  EATOM  =       457.35508475
  Solvation  Ediel_sol  =         0.00000000
  ---------------------------------------------------
  free energy    TOTEN  =       -16.24766778 eV

  energy without entropy =      -16.24766778  energy(sigma->0) =      -16.24766778


--------------------------------------------------------------------------------------------------------




--------------------------------------- Iteration      1(   5)  ---------------------------------------


     EDDAV:  cpu time    9.3590: real time    9.3808
       DOS:  cpu time    0.0183: real time    0.0183
    CHARGE:  cpu time    2.8905: real time    2.8972
    MIXING:  cpu time    0.5001: real time    0.5006
    --------------------------------------------
      LOOP:  cpu time   12.7678: real time   12.7969

 eigenvalue-minimisations  :    32
 total energy-change (2. order) :-0.9445142E-01  (-0.9445141E-01)
 number of electron       8.0000000 magnetization 
 augmentation part        0.8421890 magnetization 

 Broyden mixing:
  rms(total) = 0.80657E+00    rms(broyden)= 0.80657E+00
  rms(prec ) = 0.83279E+00
  weight for this iteration     100.00

 Free energy of the ion-electron system (eV)
  ---------------------------------------------------
  alpha Z        PSCENC =         0.00523035
  Ewald energy   TEWEN  =       151.89277050
  -Hartree energ DENC   =      -509.55289871
  -exchange      EXHF   =         0.00000000
  -V(xc)+E(xc)   XCENC  =        32.22394620
  PAW double counting   =       350.81753176     -352.63395800
  entropy T*S    EENTRO =        -0.00000000
  eigenvalues    EBANDS =      -146.44982605
  atomic energy  EATOM  =       457.35508475
  Solvation  Ediel_sol  =         0.00000000
  ---------------------------------------------------
  free energy    TOTEN  =       -16.34211920 eV

  energy without entropy =      -16.34211920  energy(sigma->0) =      -16.34211920


--------------------------------------------------------------------------------------------------------




--------------------------------------- Iteration      1(   6)  ---------------------------------------


    POTLOK:  cpu time   22.0075: real time   22.0349
    SETDIJ:  cpu time    0.0494: real time    0.0494
     EDDAV:  cpu time    5.7015: real time    5.7109
       DOS:  cpu time    0.0075: real time    0.0075
    CHARGE:  cpu time    2.7598: real time    2.7634
    MIXING:  cpu time    0.5314: real time    1.1666
    --------------------------------------------
      LOOP:  cpu time   31.0571: real time   31.7327

 eigenvalue-minimisations  :    16
 total energy-change (2. order) : 0.1926182E+01  (-0.9715077E+00)
 number of electron       8.0000000 magnetization 
 augmentation part        0.7030193 magnetization 

 Broyden mixing:
  rms(total) = 0.32752E+00    rms(broyden)= 0.32752E+00
  rms(prec ) = 0.33307E+00
  weight for this iteration     100.00

 eigenvalues of (default mixing * dielectric matrix)
  average eigenvalue GAMMA=   0.9218
  0.9218

 Free energy of the ion-electron system (eV)
  ---------------------------------------------------
  alpha Z        PSCENC =         0.00523035
  Ewald energy   TEWEN  =       151.89277050
  -Hartree energ DENC   =      -534.06548195
  -exchange      EXHF   =         0.00000000
  -V(xc)+E(xc)   XCENC  =        33.58277985
  PAW double counting   =       446.41441070     -448.59930857
  entropy T*S    EENTRO =        -0.00000000
  eigenvalues    EBANDS =      -121.00142300
  atomic energy  EATOM  =       457.35508475
  Solvation  Ediel_sol  =         0.00000000
  ---------------------------------------------------
  free energy    TOTEN  =       -14.41593738 eV

  energy without entropy =      -14.41593738  energy(sigma->0) =      -14.41593738


--------------------------------------------------------------------------------------------------------




--------------------------------------- Iteration      1(   7)  ---------------------------------------


    POTLOK:  cpu time   21.9680: real time   21.9954
    SETDIJ:  cpu time    0.0497: real time    0.0497
     EDDAV:  cpu time    9.2904: real time    9.3032
       DOS:  cpu time    0.0114: real time    0.0115
    CHARGE:  cpu time    2.7703: real time    2.7784
    MIXING:  cpu time    0.5455: real time    0.5479
    --------------------------------------------
      LOOP:  cpu time   34.6354: real time   34.6861

 eigenvalue-minimisations  :    32
 total energy-change (2. order) : 0.1002397E+00  (-0.1721031E-01)
 number of electron       8.0000000 magnetization 
 augmentation part        0.6991233 magnetization 

 Broyden mixing:
  rms(total) = 0.20942E+00    rms(broyden)= 0.20942E+00
  rms(prec ) = 0.21327E+00
  weight for this iteration     100.00

 eigenvalues of (default mixing * dielectric matrix)
  average eigenvalue GAMMA=   1.7072
  1.0446  2.3699

 Free energy of the ion-electron system (eV)
  ---------------------------------------------------
  alpha Z        PSCENC =         0.00523035
  Ewald energy   TEWEN  =       151.89277050
  -Hartree energ DENC   =      -537.66616475
  -exchange      EXHF   =         0.00000000
  -V(xc)+E(xc)   XCENC  =        33.77232693
  PAW double counting   =       489.33518854     -491.48138788
  entropy T*S    EENTRO =        -0.00000000
  eigenvalues    EBANDS =      -117.52874612
  atomic energy  EATOM  =       457.35508475
  Solvation  Ediel_sol  =         0.00000000
  ---------------------------------------------------
  free energy    TOTEN  =       -14.31569769 eV

  energy without entropy =      -14.31569769  energy(sigma->0) =      -14.31569769


--------------------------------------------------------------------------------------------------------




--------------------------------------- Iteration      1(   8)  ---------------------------------------


    POTLOK:  cpu time   21.9970: real time   22.0250
    SETDIJ:  cpu time    0.0635: real time    0.0636
     EDDAV:  cpu time    9.2737: real time    9.2890
       DOS:  cpu time    0.0040: real time    0.0040
    CHARGE:  cpu time    2.7867: real time    2.7901
    MIXING:  cpu time    0.5348: real time    0.5355
    --------------------------------------------
      LOOP:  cpu time   34.6597: real time   34.7071

 eigenvalue-minimisations  :    32
 total energy-change (2. order) : 0.9299028E-01  (-0.6832637E-02)
 number of electron       8.0000000 magnetization 
 augmentation part        0.6993294 magnetization 

 Broyden mixing:
  rms(total) = 0.19957E-01    rms(broyden)= 0.19957E-01
  rms(prec ) = 0.23795E-01
  weight for this iteration     100.00

 eigenvalues of (default mixing * dielectric matrix)
  average eigenvalue GAMMA=   1.4727
  2.3940  1.0121  1.0121

 Free energy of the ion-electron system (eV)
  ---------------------------------------------------
  alpha Z        PSCENC =         0.00523035
  Ewald energy   TEWEN  =       151.89277050
  -Hartree energ DENC   =      -542.87633386
  -exchange      EXHF   =         0.00000000
  -V(xc)+E(xc)   XCENC  =        34.06489603
  PAW double counting   =       558.42313341     -560.52097864
  entropy T*S    EENTRO =        -0.00000000
  eigenvalues    EBANDS =      -112.56650994
  atomic energy  EATOM  =       457.35508475
  Solvation  Ediel_sol  =         0.00000000
  ---------------------------------------------------
  free energy    TOTEN  =       -14.22270741 eV

  energy without entropy =      -14.22270741  energy(sigma->0) =      -14.22270741


--------------------------------------------------------------------------------------------------------




--------------------------------------- Iteration      1(   9)  ---------------------------------------


    POTLOK:  cpu time   21.9949: real time   22.0230
    SETDIJ:  cpu time    0.0547: real time    0.0547
     EDDAV:  cpu time    9.3268: real time    9.3416
       DOS:  cpu time    0.0198: real time    0.0198
    CHARGE:  cpu time    2.7209: real time    2.7241
    MIXING:  cpu time    0.6128: real time    0.6135
    --------------------------------------------
      LOOP:  cpu time   34.7299: real time   34.7767

 eigenvalue-minimisations  :    32
 total energy-change (2. order) : 0.3512090E-03  (-0.5296795E-03)
 number of electron       8.0000000 magnetization 
 augmentation part        0.6962256 magnetization 

 Broyden mixing:
  rms(total) = 0.14868E-01    rms(broyden)= 0.14868E-01
  rms(prec ) = 0.17926E-01
  weight for this iteration     100.00

 eigenvalues of (default mixing * dielectric matrix)
  average eigenvalue GAMMA=   1.9052
  0.9876  0.9876  2.5488  3.0967

 Free energy of the ion-electron system (eV)
  ---------------------------------------------------
  alpha Z        PSCENC =         0.00523035
  Ewald energy   TEWEN  =       151.89277050
  -Hartree energ DENC   =      -543.71831641
  -exchange      EXHF   =         0.00000000
  -V(xc)+E(xc)   XCENC  =        34.09928022
  PAW double counting   =       557.60428869     -559.70649699
  entropy T*S    EENTRO =        -0.00000000
  eigenvalues    EBANDS =      -111.75419730
  atomic energy  EATOM  =       457.35508475
  Solvation  Ediel_sol  =         0.00000000
  ---------------------------------------------------
  free energy    TOTEN  =       -14.22235620 eV

  energy without entropy =      -14.22235620  energy(sigma->0) =      -14.22235620


--------------------------------------------------------------------------------------------------------




--------------------------------------- Iteration      1(  10)  ---------------------------------------


    POTLOK:  cpu time   21.9020: real time   21.9287
    SETDIJ:  cpu time    0.1577: real time    0.1578
     EDDAV:  cpu time    5.6253: real time    5.6412
       DOS:  cpu time    0.0099: real time    0.0099
    CHARGE:  cpu time    2.7841: real time    2.7925
    MIXING:  cpu time    0.6024: real time    0.6031
    --------------------------------------------
      LOOP:  cpu time   31.0814: real time   31.1331

 eigenvalue-minimisations  :    16
 total energy-change (2. order) :-0.4570048E-02  (-0.4082723E-03)
 number of electron       8.0000000 magnetization 
 augmentation part        0.6962272 magnetization 

 Broyden mixing:
  rms(total) = 0.55251E-02    rms(broyden)= 0.55251E-02
  rms(prec ) = 0.72801E-02
  weight for this iteration     100.00

 eigenvalues of (default mixing * dielectric matrix)
  average eigenvalue GAMMA=   1.8693
  3.2834  0.9950  0.9950  2.0367  2.0367

 Free energy of the ion-electron system (eV)
  ---------------------------------------------------
  alpha Z        PSCENC =         0.00523035
  Ewald energy   TEWEN  =       151.89277050
  -Hartree energ DENC   =      -544.68004542
  -exchange      EXHF   =         0.00000000
  -V(xc)+E(xc)   XCENC  =        34.11595451
  PAW double counting   =       550.49666568     -552.59232658
  entropy T*S    EENTRO =        -0.00000000
  eigenvalues    EBANDS =      -110.82026003
  atomic energy  EATOM  =       457.35508475
  Solvation  Ediel_sol  =         0.00000000
  ---------------------------------------------------
  free energy    TOTEN  =       -14.22692624 eV

  energy without entropy =      -14.22692624  energy(sigma->0) =      -14.22692624


--------------------------------------------------------------------------------------------------------




--------------------------------------- Iteration      1(  11)  ---------------------------------------


    POTLOK:  cpu time   22.0188: real time   22.0462
    SETDIJ:  cpu time    0.0537: real time    0.0537
     EDDAV:  cpu time    9.2930: real time    9.3057
       DOS:  cpu time    0.0139: real time    0.0139
    CHARGE:  cpu time    2.7775: real time    2.7808
    MIXING:  cpu time    0.5826: real time    0.5865
    --------------------------------------------
      LOOP:  cpu time   34.7395: real time   34.7869

 eigenvalue-minimisations  :    32
 total energy-change (2. order) :-0.4229937E-02  (-0.2233945E-03)
 number of electron       8.0000000 magnetization 
 augmentation part        0.6944221 magnetization 

 Broyden mixing:
  rms(total) = 0.60628E-02    rms(broyden)= 0.60628E-02
  rms(prec ) = 0.70311E-02
  weight for this iteration     100.00

 eigenvalues of (default mixing * dielectric matrix)
  average eigenvalue GAMMA=   2.0052
  3.9808  2.8102  2.3740  0.9883  0.9883  0.8895

 Free energy of the ion-electron system (eV)
  ---------------------------------------------------
  alpha Z        PSCENC =         0.00523035
  Ewald energy   TEWEN  =       151.89277050
  -Hartree energ DENC   =      -545.15310835
  -exchange      EXHF   =         0.00000000
  -V(xc)+E(xc)   XCENC  =        34.13174514
  PAW double counting   =       552.74416376     -554.84243528
  entropy T*S    EENTRO =        -0.00000000
  eigenvalues    EBANDS =      -110.36460704
  atomic energy  EATOM  =       457.35508475
  Solvation  Ediel_sol  =         0.00000000
  ---------------------------------------------------
  free energy    TOTEN  =       -14.23115618 eV

  energy without entropy =      -14.23115618  energy(sigma->0) =      -14.23115618


--------------------------------------------------------------------------------------------------------




--------------------------------------- Iteration      1(  12)  ---------------------------------------


    POTLOK:  cpu time   22.0618: real time   22.0938
    SETDIJ:  cpu time    0.0485: real time    0.0485
     EDDAV:  cpu time    7.4266: real time    7.4438
       DOS:  cpu time    0.0052: real time    0.0052
    CHARGE:  cpu time    2.6905: real time    2.6939
    MIXING:  cpu time    0.6753: real time    0.6761
    --------------------------------------------
      LOOP:  cpu time   32.9080: real time   32.9614

 eigenvalue-minimisations  :    24
 total energy-change (2. order) :-0.4396404E-02  (-0.1370296E-03)
 number of electron       8.0000000 magnetization 
 augmentation part        0.6953967 magnetization 

 Broyden mixing:
  rms(total) = 0.16807E-02    rms(broyden)= 0.16807E-02
  rms(prec ) = 0.24880E-02
  weight for this iteration     100.00

 eigenvalues of (default mixing * dielectric matrix)
  average eigenvalue GAMMA=   2.2022
  5.3324  3.0157  2.4606  1.6850  1.0230  0.9493  0.9493

 Free energy of the ion-electron system (eV)
  ---------------------------------------------------
  alpha Z        PSCENC =         0.00523035
  Ewald energy   TEWEN  =       151.89277050
  -Hartree energ DENC   =      -545.14328226
  -exchange      EXHF   =         0.00000000
  -V(xc)+E(xc)   XCENC  =        34.11689502
  PAW double counting   =       551.46845439     -553.56361922
  entropy T*S    EENTRO =        -0.00000000
  eigenvalues    EBANDS =      -110.36708610
  atomic energy  EATOM  =       457.35508475
  Solvation  Ediel_sol  =         0.00000000
  ---------------------------------------------------
  free energy    TOTEN  =       -14.23555259 eV

  energy without entropy =      -14.23555259  energy(sigma->0) =      -14.23555259


--------------------------------------------------------------------------------------------------------




--------------------------------------- Iteration      1(  13)  ---------------------------------------


    POTLOK:  cpu time   22.0649: real time   22.0942
    SETDIJ:  cpu time    0.0489: real time    0.0489
     EDDAV:  cpu time    9.2624: real time    9.2781
       DOS:  cpu time    0.0065: real time    0.0065
    CHARGE:  cpu time    2.8011: real time    2.8045
    MIXING:  cpu time    0.6490: real time    0.6499
    --------------------------------------------
      LOOP:  cpu time   34.8328: real time   34.8821

 eigenvalue-minimisations  :    32
 total energy-change (2. order) :-0.2600719E-02  (-0.3745259E-04)
 number of electron       8.0000000 magnetization 
 augmentation part        0.6950811 magnetization 

 Broyden mixing:
  rms(total) = 0.95528E-03    rms(broyden)= 0.95528E-03
  rms(prec ) = 0.13495E-02
  weight for this iteration     100.00

 eigenvalues of (default mixing * dielectric matrix)
  average eigenvalue GAMMA=   2.2972
  6.1842  3.3128  2.5799  2.2302  1.1888  0.9799  0.9799  0.9216

 Free energy of the ion-electron system (eV)
  ---------------------------------------------------
  alpha Z        PSCENC =         0.00523035
  Ewald energy   TEWEN  =       151.89277050
  -Hartree energ DENC   =      -545.25746216
  -exchange      EXHF   =         0.00000000
  -V(xc)+E(xc)   XCENC  =        34.11601763
  PAW double counting   =       551.77054537     -553.86543729
  entropy T*S    EENTRO =        -0.00000000
  eigenvalues    EBANDS =      -110.25490245
  atomic energy  EATOM  =       457.35508475
  Solvation  Ediel_sol  =         0.00000000
  ---------------------------------------------------
  free energy    TOTEN  =       -14.23815330 eV

  energy without entropy =      -14.23815330  energy(sigma->0) =      -14.23815330


--------------------------------------------------------------------------------------------------------




--------------------------------------- Iteration      1(  14)  ---------------------------------------


    POTLOK:  cpu time   22.0701: real time   22.0997
    SETDIJ:  cpu time    0.0444: real time    0.0445
     EDDAV:  cpu time    9.3021: real time    9.3147
       DOS:  cpu time    0.0069: real time    0.0069
    CHARGE:  cpu time    2.7116: real time    2.7148
    MIXING:  cpu time    0.7211: real time    0.7221
    --------------------------------------------
      LOOP:  cpu time   34.8562: real time   34.9028

 eigenvalue-minimisations  :    32
 total energy-change (2. order) :-0.1430301E-02  (-0.1103247E-04)
 number of electron       8.0000000 magnetization 
 augmentation part        0.6951252 magnetization 

 Broyden mixing:
  rms(total) = 0.48727E-03    rms(broyden)= 0.48727E-03
  rms(prec ) = 0.70243E-03
  weight for this iteration     100.00

 eigenvalues of (default mixing * dielectric matrix)
  average eigenvalue GAMMA=   2.5088
  7.4764  4.1645  2.7576  2.4821  1.8313  0.9693  0.9693  0.9641  0.9641

 Free energy of the ion-electron system (eV)
  ---------------------------------------------------
  alpha Z        PSCENC =         0.00523035
  Ewald energy   TEWEN  =       151.89277050
  -Hartree energ DENC   =      -545.25239697
  -exchange      EXHF   =         0.00000000
  -V(xc)+E(xc)   XCENC  =        34.11301540
  PAW double counting   =       551.60862065     -553.70283443
  entropy T*S    EENTRO =        -0.00000000
  eigenvalues    EBANDS =      -110.25907385
  atomic energy  EATOM  =       457.35508475
  Solvation  Ediel_sol  =         0.00000000
  ---------------------------------------------------
  free energy    TOTEN  =       -14.23958360 eV

  energy without entropy =      -14.23958360  energy(sigma->0) =      -14.23958360


--------------------------------------------------------------------------------------------------------




--------------------------------------- Iteration      1(  15)  ---------------------------------------


    POTLOK:  cpu time   22.0274: real time   22.0681
    SETDIJ:  cpu time    0.0520: real time    0.0521
     EDDAV:  cpu time    5.6298: real time    5.6408
       DOS:  cpu time    0.0014: real time    0.0014
    CHARGE:  cpu time    2.7806: real time    2.7840
    MIXING:  cpu time    0.6834: real time    0.6843
    --------------------------------------------
      LOOP:  cpu time   31.1747: real time   31.2307

 eigenvalue-minimisations  :    16
 total energy-change (2. order) :-0.7904308E-03  (-0.4752304E-05)
 number of electron       8.0000000 magnetization 
 augmentation part        0.6951667 magnetization 

 Broyden mixing:
  rms(total) = 0.36273E-03    rms(broyden)= 0.36273E-03
  rms(prec ) = 0.43511E-03
  weight for this iteration     100.00

 eigenvalues of (default mixing * dielectric matrix)
  average eigenvalue GAMMA=   2.6384
  8.1542  4.7137  3.2564  2.4898  2.4898  1.3955  0.9974  0.9974  0.9449  0.9449

 Free energy of the ion-electron system (eV)
  ---------------------------------------------------
  alpha Z        PSCENC =         0.00523035
  Ewald energy   TEWEN  =       151.89277050
  -Hartree energ DENC   =      -545.23752309
  -exchange      EXHF   =         0.00000000
  -V(xc)+E(xc)   XCENC  =        34.11103647
  PAW double counting   =       551.42823340     -553.52235657
  entropy T*S    EENTRO =        -0.00000000
  eigenvalues    EBANDS =      -110.27284984
  atomic energy  EATOM  =       457.35508475
  Solvation  Ediel_sol  =         0.00000000
  ---------------------------------------------------
  free energy    TOTEN  =       -14.24037404 eV

  energy without entropy =      -14.24037404  energy(sigma->0) =      -14.24037404


--------------------------------------------------------------------------------------------------------




--------------------------------------- Iteration      1(  16)  ---------------------------------------


    POTLOK:  cpu time   22.0259: real time   22.0594
    SETDIJ:  cpu time    0.0425: real time    0.0425
     EDDAV:  cpu time    9.2789: real time    9.2917
       DOS:  cpu time    0.0050: real time    0.0050
    CHARGE:  cpu time    2.7861: real time    2.7935
    MIXING:  cpu time    0.7158: real time    0.7168
    --------------------------------------------
      LOOP:  cpu time   34.8542: real time   34.9089

 eigenvalue-minimisations  :    32
 total energy-change (2. order) :-0.3535328E-03  (-0.1378317E-05)
 number of electron       8.0000000 magnetization 
 augmentation part        0.6950893 magnetization 

 Broyden mixing:
  rms(total) = 0.26152E-03    rms(broyden)= 0.26152E-03
  rms(prec ) = 0.28375E-03
  weight for this iteration     100.00

 eigenvalues of (default mixing * dielectric matrix)
  average eigenvalue GAMMA=   2.6560
  8.5834  5.1918  3.5192  2.7875  2.4327  1.8600  1.0111  0.9886  0.9886  0.9266
  0.9266

 Free energy of the ion-electron system (eV)
  ---------------------------------------------------
  alpha Z        PSCENC =         0.00523035
  Ewald energy   TEWEN  =       151.89277050
  -Hartree energ DENC   =      -545.25639499
  -exchange      EXHF   =         0.00000000
  -V(xc)+E(xc)   XCENC  =        34.11161600
  PAW double counting   =       551.51904568     -553.61350670
  entropy T*S    EENTRO =        -0.00000000
  eigenvalues    EBANDS =      -110.25457315
  atomic energy  EATOM  =       457.35508475
  Solvation  Ediel_sol  =         0.00000000
  ---------------------------------------------------
  free energy    TOTEN  =       -14.24072757 eV

  energy without entropy =      -14.24072757  energy(sigma->0) =      -14.24072757


--------------------------------------------------------------------------------------------------------




--------------------------------------- Iteration      1(  17)  ---------------------------------------


    POTLOK:  cpu time   22.0343: real time   22.0660
    SETDIJ:  cpu time    0.0396: real time    0.0396
     EDDAV:  cpu time    5.7603: real time    5.7681
       DOS:  cpu time    0.0009: real time    0.0009
    CHARGE:  cpu time    2.7748: real time    2.7780
    MIXING:  cpu time    0.7572: real time    0.7583
    --------------------------------------------
      LOOP:  cpu time   31.3670: real time   31.4108

 eigenvalue-minimisations  :    16
 total energy-change (2. order) :-0.1046352E-03  (-0.9077319E-07)
 number of electron       8.0000000 magnetization 
 augmentation part        0.6951082 magnetization 

 Broyden mixing:
  rms(total) = 0.11806E-03    rms(broyden)= 0.11806E-03
  rms(prec ) = 0.13198E-03
  weight for this iteration     100.00

 eigenvalues of (default mixing * dielectric matrix)
  average eigenvalue GAMMA=   2.7056
  9.0335  5.5923  3.7600  2.8698  2.5833  2.3833  1.4231  0.9258  0.9258  0.9961
  0.9961  0.9779

 Free energy of the ion-electron system (eV)
  ---------------------------------------------------
  alpha Z        PSCENC =         0.00523035
  Ewald energy   TEWEN  =       151.89277050
  -Hartree energ DENC   =      -545.25202239
  -exchange      EXHF   =         0.00000000
  -V(xc)+E(xc)   XCENC  =        34.11115780
  PAW double counting   =       551.53142650     -553.62586806
  entropy T*S    EENTRO =        -0.00000000
  eigenvalues    EBANDS =      -110.25861164
  atomic energy  EATOM  =       457.35508475
  Solvation  Ediel_sol  =         0.00000000
  ---------------------------------------------------
  free energy    TOTEN  =       -14.24083220 eV

  energy without entropy =      -14.24083220  energy(sigma->0) =      -14.24083220


--------------------------------------------------------------------------------------------------------




--------------------------------------- Iteration      1(  18)  ---------------------------------------


    POTLOK:  cpu time   22.0094: real time   22.0420
    SETDIJ:  cpu time    0.0413: real time    0.0413
     EDDAV:  cpu time    9.3439: real time    9.3568
       DOS:  cpu time    0.0032: real time    0.0032
    CHARGE:  cpu time    2.7715: real time    2.7750
    MIXING:  cpu time    0.7555: real time    0.7566
    --------------------------------------------
      LOOP:  cpu time   34.9247: real time   34.9749

 eigenvalue-minimisations  :    32
 total energy-change (2. order) :-0.6028302E-04  (-0.8460383E-07)
 number of electron       8.0000000 magnetization 
 augmentation part        0.6951387 magnetization 

 Broyden mixing:
  rms(total) = 0.11304E-03    rms(broyden)= 0.11304E-03
  rms(prec ) = 0.11888E-03
  weight for this iteration     100.00

 eigenvalues of (default mixing * dielectric matrix)
  average eigenvalue GAMMA=   2.7546
  9.3392  5.9626  4.2261  3.0984  2.6739  2.4400  2.0564  0.9410  0.9410  1.0006
  1.0006  1.0653  1.0653

 Free energy of the ion-electron system (eV)
  ---------------------------------------------------
  alpha Z        PSCENC =         0.00523035
  Ewald energy   TEWEN  =       151.89277050
  -Hartree energ DENC   =      -545.24769900
  -exchange      EXHF   =         0.00000000
  -V(xc)+E(xc)   XCENC  =        34.11079274
  PAW double counting   =       551.51810108     -553.61243328
  entropy T*S    EENTRO =        -0.00000000
  eigenvalues    EBANDS =      -110.26273961
  atomic energy  EATOM  =       457.35508475
  Solvation  Ediel_sol  =         0.00000000
  ---------------------------------------------------
  free energy    TOTEN  =       -14.24089249 eV

  energy without entropy =      -14.24089249  energy(sigma->0) =      -14.24089249


--------------------------------------------------------------------------------------------------------




--------------------------------------- Iteration      1(  19)  ---------------------------------------


    POTLOK:  cpu time   21.9840: real time   22.0115
    SETDIJ:  cpu time    0.0446: real time    0.0446
     EDDAV:  cpu time    5.8036: real time    5.8198
       DOS:  cpu time    0.0044: real time    0.0044
    CHARGE:  cpu time    2.7804: real time    2.7836
    MIXING:  cpu time    0.7996: real time    0.8009
    --------------------------------------------
      LOOP:  cpu time   31.4166: real time   31.4649

 eigenvalue-minimisations  :    16
 total energy-change (2. order) :-0.3095544E-04  (-0.3727130E-07)
 number of electron       8.0000000 magnetization 
 augmentation part        0.6951181 magnetization 

 Broyden mixing:
  rms(total) = 0.29945E-04    rms(broyden)= 0.29945E-04
  rms(prec ) = 0.33437E-04
  weight for this iteration     100.00

 eigenvalues of (default mixing * dielectric matrix)
  average eigenvalue GAMMA=   2.7904
  9.4666  6.4633  4.6177  3.3255  2.6714  2.5530  2.3707  1.6575  0.9439  0.9439
  0.9893  0.9893  1.0368  1.0368

 Free energy of the ion-electron system (eV)
  ---------------------------------------------------
  alpha Z        PSCENC =         0.00523035
  Ewald energy   TEWEN  =       151.89277050
  -Hartree energ DENC   =      -545.25153652
  -exchange      EXHF   =         0.00000000
  -V(xc)+E(xc)   XCENC  =        34.11096386
  PAW double counting   =       551.51178237     -553.60613283
  entropy T*S    EENTRO =        -0.00000000
  eigenvalues    EBANDS =      -110.25908591
  atomic energy  EATOM  =       457.35508475
  Solvation  Ediel_sol  =         0.00000000
  ---------------------------------------------------
  free energy    TOTEN  =       -14.24092344 eV

  energy without entropy =      -14.24092344  energy(sigma->0) =      -14.24092344


--------------------------------------------------------------------------------------------------------




--------------------------------------- Iteration      1(  20)  ---------------------------------------


    POTLOK:  cpu time   21.9464: real time   21.9839
    SETDIJ:  cpu time    0.0459: real time    0.0459
     EDDAV:  cpu time    9.2701: real time    9.2876
       DOS:  cpu time    0.0084: real time    0.0084
    CHARGE:  cpu time    2.7393: real time    2.7426
    MIXING:  cpu time    0.8780: real time    0.8794
    --------------------------------------------
      LOOP:  cpu time   34.8880: real time   34.9477

 eigenvalue-minimisations  :    32
 total energy-change (2. order) :-0.1112454E-04  (-0.4424910E-08)
 number of electron       8.0000000 magnetization 
 augmentation part        0.6951222 magnetization 

 Broyden mixing:
  rms(total) = 0.13891E-04    rms(broyden)= 0.13891E-04
  rms(prec ) = 0.15814E-04
  weight for this iteration     100.00

 eigenvalues of (default mixing * dielectric matrix)
  average eigenvalue GAMMA=   2.8302
  9.5407  6.8605  4.8310  3.7950  2.8473  2.5187  2.3308  2.3308  1.4445  0.9442
  0.9442  1.0406  1.0406  0.9919  0.9919

 Free energy of the ion-electron system (eV)
  ---------------------------------------------------
  alpha Z        PSCENC =         0.00523035
  Ewald energy   TEWEN  =       151.89277050
  -Hartree energ DENC   =      -545.25148641
  -exchange      EXHF   =         0.00000000
  -V(xc)+E(xc)   XCENC  =        34.11095516
  PAW double counting   =       551.51234128     -553.60667520
  entropy T*S    EENTRO =        -0.00000000
  eigenvalues    EBANDS =      -110.25915500
  atomic energy  EATOM  =       457.35508475
  Solvation  Ediel_sol  =         0.00000000
  ---------------------------------------------------
  free energy    TOTEN  =       -14.24093457 eV

  energy without entropy =      -14.24093457  energy(sigma->0) =      -14.24093457


--------------------------------------------------------------------------------------------------------




--------------------------------------- Iteration      1(  21)  ---------------------------------------


    POTLOK:  cpu time   21.9985: real time   22.0284
    SETDIJ:  cpu time    0.0468: real time    0.0468
     EDDAV:  cpu time    5.7858: real time    5.7937
       DOS:  cpu time    0.0054: real time    0.0054
    CHARGE:  cpu time    2.7722: real time    2.7756
    MIXING:  cpu time    0.8823: real time    0.8835
    --------------------------------------------
      LOOP:  cpu time   31.4909: real time   31.5335

 eigenvalue-minimisations  :    16
 total energy-change (2. order) :-0.5232715E-05  (-0.1531625E-08)
 number of electron       8.0000000 magnetization 
 augmentation part        0.6951218 magnetization 

 Broyden mixing:
  rms(total) = 0.66844E-05    rms(broyden)= 0.66844E-05
  rms(prec ) = 0.78609E-05
  weight for this iteration     100.00

 eigenvalues of (default mixing * dielectric matrix)
  average eigenvalue GAMMA=   2.8319
  9.6741  7.1261  5.2280  4.0625  3.0981  2.6682  2.5362  2.1784  1.7481  0.9430
  0.9430  0.9545  1.0114  1.0114  1.0634  1.0634

 Free energy of the ion-electron system (eV)
  ---------------------------------------------------
  alpha Z        PSCENC =         0.00523035
  Ewald energy   TEWEN  =       151.89277050
  -Hartree energ DENC   =      -545.25133434
  -exchange      EXHF   =         0.00000000
  -V(xc)+E(xc)   XCENC  =        34.11094195
  PAW double counting   =       551.51312641     -553.60747370
  entropy T*S    EENTRO =        -0.00000000
  eigenvalues    EBANDS =      -110.25928572
  atomic energy  EATOM  =       457.35508475
  Solvation  Ediel_sol  =         0.00000000
  ---------------------------------------------------
  free energy    TOTEN  =       -14.24093980 eV

  energy without entropy =      -14.24093980  energy(sigma->0) =      -14.24093980


--------------------------------------------------------------------------------------------------------




--------------------------------------- Iteration      1(  22)  ---------------------------------------


    POTLOK:  cpu time   21.9872: real time   22.0145
    SETDIJ:  cpu time    0.0394: real time    0.0395
     EDDAV:  cpu time    5.7216: real time    5.7304
       DOS:  cpu time    0.0002: real time    0.0001
    CHARGE:  cpu time    2.7736: real time    2.7770
    MIXING:  cpu time    0.9059: real time    0.9073
    --------------------------------------------
      LOOP:  cpu time   31.4279: real time   31.4688

 eigenvalue-minimisations  :    16
 total energy-change (2. order) :-0.2609317E-05  (-0.1016756E-08)
 number of electron       8.0000000 magnetization 
 augmentation part        0.6951217 magnetization 

 Broyden mixing:
  rms(total) = 0.36192E-05    rms(broyden)= 0.36192E-05
  rms(prec ) = 0.41276E-05
  weight for this iteration     100.00

 eigenvalues of (default mixing * dielectric matrix)
  average eigenvalue GAMMA=   2.8388
  9.7257  7.3091  5.4956  4.1453  3.3374  2.7675  2.4428  2.2773  2.2773  1.5542
  1.0422  1.0422  0.9430  0.9430  1.0053  1.0053  0.9464

 Free energy of the ion-electron system (eV)
  ---------------------------------------------------
  alpha Z        PSCENC =         0.00523035
  Ewald energy   TEWEN  =       151.89277050
  -Hartree energ DENC   =      -545.25134021
  -exchange      EXHF   =         0.00000000
  -V(xc)+E(xc)   XCENC  =        34.11093986
  PAW double counting   =       551.51549042     -553.60984668
  entropy T*S    EENTRO =        -0.00000000
  eigenvalues    EBANDS =      -110.25927139
  atomic energy  EATOM  =       457.35508475
  Solvation  Ediel_sol  =         0.00000000
  ---------------------------------------------------
  free energy    TOTEN  =       -14.24094241 eV

  energy without entropy =      -14.24094241  energy(sigma->0) =      -14.24094241


--------------------------------------------------------------------------------------------------------




--------------------------------------- Iteration      1(  23)  ---------------------------------------


    POTLOK:  cpu time   21.9759: real time   22.0082
    SETDIJ:  cpu time    0.0480: real time    0.0480
     EDDAV:  cpu time    9.3790: real time    9.3945
       DOS:  cpu time    0.0107: real time    0.0107
    CHARGE:  cpu time    2.7842: real time    2.7876
    MIXING:  cpu time    0.9300: real time    0.9314
    --------------------------------------------
      LOOP:  cpu time   35.1279: real time   35.1804

 eigenvalue-minimisations  :    32
 total energy-change (2. order) :-0.9617877E-06  (-0.3567120E-09)
 number of electron       8.0000000 magnetization 
 augmentation part        0.6951223 magnetization 

 Broyden mixing:
  rms(total) = 0.28308E-05    rms(broyden)= 0.28308E-05
  rms(prec ) = 0.30584E-05
  weight for this iteration     100.00

 eigenvalues of (default mixing * dielectric matrix)
  average eigenvalue GAMMA=   2.8683
  9.7602  7.6856  5.8280  4.5968  3.6042  2.9795  2.6478  2.4703  2.1381  1.8680
  1.0911  1.0911  0.9438  0.9438  1.0153  1.0153  0.9755  0.9755

 Free energy of the ion-electron system (eV)
  ---------------------------------------------------
  alpha Z        PSCENC =         0.00523035
  Ewald energy   TEWEN  =       151.89277050
  -Hartree energ DENC   =      -545.25124132
  -exchange      EXHF   =         0.00000000
  -V(xc)+E(xc)   XCENC  =        34.11093200
  PAW double counting   =       551.51409144     -553.60844143
  entropy T*S    EENTRO =        -0.00000000
  eigenvalues    EBANDS =      -110.25936965
  atomic energy  EATOM  =       457.35508475
  Solvation  Ediel_sol  =         0.00000000
  ---------------------------------------------------
  free energy    TOTEN  =       -14.24094337 eV

  energy without entropy =      -14.24094337  energy(sigma->0) =      -14.24094337


--------------------------------------------------------------------------------------------------------




--------------------------------------- Iteration      1(  24)  ---------------------------------------


    POTLOK:  cpu time   21.9002: real time   21.9314
    SETDIJ:  cpu time    0.0553: real time    0.0554
     EDDAV:  cpu time    5.7086: real time    5.7164
       DOS:  cpu time    0.0028: real time    0.0028
    CHARGE:  cpu time    2.7262: real time    2.7316
    MIXING:  cpu time    1.0142: real time    1.0157
    --------------------------------------------
      LOOP:  cpu time   31.4075: real time   31.4532

 eigenvalue-minimisations  :    16
 total energy-change (2. order) :-0.4750319E-06  (-0.2489315E-09)
 number of electron       8.0000000 magnetization 
 augmentation part        0.6951218 magnetization 

 Broyden mixing:
  rms(total) = 0.17213E-05    rms(broyden)= 0.17213E-05
  rms(prec ) = 0.18037E-05
  weight for this iteration     100.00

 eigenvalues of (default mixing * dielectric matrix)
  average eigenvalue GAMMA=   2.8742
  9.7826  7.8540  5.9962  4.7398  3.7923  2.9311  2.6105  2.6105  2.2252  2.2252
  1.8171  0.9435  0.9435  1.0662  1.0662  0.9619  1.0040  1.0040  1.0354

 Free energy of the ion-electron system (eV)
  ---------------------------------------------------
  alpha Z        PSCENC =         0.00523035
  Ewald energy   TEWEN  =       151.89277050
  -Hartree energ DENC   =      -545.25128259
  -exchange      EXHF   =         0.00000000
  -V(xc)+E(xc)   XCENC  =        34.11093323
  PAW double counting   =       551.51386925     -553.60821626
  entropy T*S    EENTRO =        -0.00000000
  eigenvalues    EBANDS =      -110.25933306
  atomic energy  EATOM  =       457.35508475
  Solvation  Ediel_sol  =         0.00000000
  ---------------------------------------------------
  free energy    TOTEN  =       -14.24094385 eV

  energy without entropy =      -14.24094385  energy(sigma->0) =      -14.24094385


--------------------------------------------------------------------------------------------------------




--------------------------------------- Iteration      1(  25)  ---------------------------------------


    POTLOK:  cpu time   21.8714: real time   21.9050
    SETDIJ:  cpu time    0.0484: real time    0.0484
     EDDAV:  cpu time    9.2843: real time    9.2979
       DOS:  cpu time    0.0106: real time    0.0106
    CHARGE:  cpu time    2.8121: real time    2.8154
    MIXING:  cpu time    1.0319: real time    1.0334
    --------------------------------------------
      LOOP:  cpu time   35.0587: real time   35.1107

 eigenvalue-minimisations  :    32
 total energy-change (2. order) :-0.1503655E-06  (-0.1254996E-09)
 number of electron       8.0000000 magnetization 
 augmentation part        0.6951221 magnetization 

 Broyden mixing:
  rms(total) = 0.79601E-06    rms(broyden)= 0.79601E-06
  rms(prec ) = 0.85476E-06
  weight for this iteration     100.00

 eigenvalues of (default mixing * dielectric matrix)
  average eigenvalue GAMMA=   2.8659
  9.7981  8.0835  6.2871  5.0165  4.0147  3.2873  2.7805  2.5447  2.4721  2.1609
  1.8816  1.0800  1.0800  0.9455  0.9455  1.0145  1.0145  0.9665  0.9725  0.9725

 Free energy of the ion-electron system (eV)
  ---------------------------------------------------
  alpha Z        PSCENC =         0.00523035
  Ewald energy   TEWEN  =       151.89277050
  -Hartree energ DENC   =      -545.25125226
  -exchange      EXHF   =         0.00000000
  -V(xc)+E(xc)   XCENC  =        34.11093184
  PAW double counting   =       551.51404289     -553.60839124
  entropy T*S    EENTRO =        -0.00000000
  eigenvalues    EBANDS =      -110.25936083
  atomic energy  EATOM  =       457.35508475
  Solvation  Ediel_sol  =         0.00000000
  ---------------------------------------------------
  free energy    TOTEN  =       -14.24094400 eV

  energy without entropy =      -14.24094400  energy(sigma->0) =      -14.24094400


--------------------------------------------------------------------------------------------------------




--------------------------------------- Iteration      1(  26)  ---------------------------------------


    POTLOK:  cpu time   21.8293: real time   21.8613
    SETDIJ:  cpu time    0.0450: real time    0.0450
     EDDAV:  cpu time    9.2514: real time    9.2699
       DOS:  cpu time    0.0053: real time    0.0053
    --------------------------------------------
      LOOP:  cpu time   31.1310: real time   31.1815

 eigenvalue-minimisations  :    32
 total energy-change (2. order) :-0.7582287E-07  (-0.8149570E-10)
 number of electron       8.0000000 magnetization 
 augmentation part        0.6951221 magnetization 

 Free energy of the ion-electron system (eV)
  ---------------------------------------------------
  alpha Z        PSCENC =         0.00523035
  Ewald energy   TEWEN  =       151.89277050
  -Hartree energ DENC   =      -545.25126503
  -exchange      EXHF   =         0.00000000
  -V(xc)+E(xc)   XCENC  =        34.11093271
  PAW double counting   =       551.51416664     -553.60851599
  entropy T*S    EENTRO =        -0.00000000
  eigenvalues    EBANDS =      -110.25934800
  atomic energy  EATOM  =       457.35508475
  Solvation  Ediel_sol  =         0.00000000
  ---------------------------------------------------
  free energy    TOTEN  =       -14.24094407 eV

  energy without entropy =      -14.24094407  energy(sigma->0) =      -14.24094407


--------------------------------------------------------------------------------------------------------




 average (electrostatic) potential at core
  the test charge radii are     0.5201  0.7215
  (the norm of the test charge is              1.0000)
       1 -44.7940       2 -44.7940       3 -80.5817
 
 
 
 E-fermi :  -7.1768     XC(G=0):  -0.0211     alpha+bet : -0.0030


 k-point     1 :       0.0000    0.0000    0.0000
  band No.  band energies     occupation 
      1     -25.4172      2.00000
      2     -13.1689      2.00000
      3      -9.3044      2.00000
      4      -7.2392      2.00000
      5      -0.9621      0.00000
      6      -0.0019      0.00000
      7       0.1029      0.00000
      8       0.1118      0.00000


--------------------------------------------------------------------------------------------------------


 soft charge-density along one line, spin component            1
         0         1         2         3         4         5         6         7         8         9
 total charge-density along one line
 
 pseudopotential strength for first ion, spin component:            1
 -2.381  -4.111   0.005  -0.016   0.001
 -4.111  -7.014   0.009  -0.031   0.001
  0.005   0.009  -0.321  -0.008   0.000
 -0.016  -0.031  -0.008  -0.295  -0.001
  0.001   0.001   0.000  -0.001  -0.324
 total augmentation occupancy for first ion, spin component:            1
  3.784  -0.789  -0.194   0.725  -0.028
 -0.789   0.219   0.034  -0.147   0.006
 -0.194   0.034   0.036  -0.029   0.001
  0.725  -0.147  -0.029   0.143  -0.004
 -0.028   0.006   0.001  -0.004   0.044


------------------------ aborting loop because EDIFF is reached ----------------------------------------



 DIPCOR: dipole corrections for dipol
 direction  1 min pos   573, direction  2 min pos   568, direction  3 min pos   516,
 dipolmoment          -0.011385      0.233756      0.299544 electrons x Angstroem
 Tr[quadrupol]         2.471154

 energy correction for charged system         0.000000 eV
 dipol+quadrupol energy correction            0.000102 eV
 added-field ion interaction          0.000000 eV  (added to PSCEN)

 
  *************** adding dipol energy to TOTEN NOW **************** 
    CHARGE:  cpu time    2.7936: real time    2.7972
    FORLOC:  cpu time    0.6748: real time    0.6755
    FORNL :  cpu time    0.1092: real time    0.1093
    STRESS:  cpu time    3.1819: real time    3.1863
    FORCOR:  cpu time   20.8295: real time   20.8625
    FORHAR:  cpu time    6.1623: real time    6.1698
    MIXING:  cpu time    1.0849: real time    1.0865
    OFIELD:  cpu time    0.0000: real time    0.0000

  FORCE on cell =-STRESS in cart. coord.  units (eV):
  Direction    XX          YY          ZZ          XY          YZ          ZX
  --------------------------------------------------------------------------------------
  Alpha Z     0.00523     0.00523     0.00523
  Ewald     -12.32922    88.67172    75.55001     0.98150   -25.82530    -3.34380
  Hartree   170.70721   188.37196   186.17211     0.16441    -4.32596    -0.58821
  E(xc)     -36.51399   -36.09632   -36.14366     0.00354    -0.09306    -0.01409
  Local    -267.68732  -355.81275  -344.24696    -0.86506    22.76164     2.91257
  n-local   -30.96913   -30.71174   -30.91561     0.01540    -0.40519    -0.00204
  augment     8.18840     6.15308     6.39229    -0.01788     0.47042     0.06836
  Kinetic   168.59854   139.97176   143.64739    -0.27500     7.23584     0.94964
  Fock        0.00000     0.00000     0.00000     0.00000     0.00000     0.00000
  -------------------------------------------------------------------------------------
  Total      -0.00028     0.55294     0.46080     0.00690    -0.18162    -0.01756
  in kB      -0.00001     0.02066     0.01722     0.00026    -0.00679    -0.00066
  external pressure =        0.01 kB  Pullay stress =        0.00 kB


 VOLUME and BASIS-vectors are now :
 -----------------------------------------------------------------------------
  energy-cutoff  :     1600.00
  volume of cell :    42875.00
      direct lattice vectors                 reciprocal lattice vectors
    35.000000000  0.000000000  0.000000000     0.028571429  0.000000000  0.000000000
     0.000000000 35.000000000  0.000000000     0.000000000  0.028571429  0.000000000
     0.000000000  0.000000000 35.000000000     0.000000000  0.000000000  0.028571429

  length of vectors
    35.000000000 35.000000000 35.000000000     0.028571429  0.028571429  0.028571429


 FORCES acting on ions
    electron-ion (+dipol)            ewald-force                    non-local-force                 convergence-correction
 -----------------------------------------------------------------------------------------------
   -.325E+01 -.251E+02 0.856E+02   0.359E+01 0.277E+02 -.944E+02   -.315E+00 -.238E+01 0.830E+01   0.490E-07 -.129E-06 -.929E-06
   0.133E+00 0.892E+02 -.350E+01   -.146E+00 -.984E+02 0.385E+01   0.108E-01 0.864E+01 -.283E+00   0.284E-07 -.883E-06 -.349E-06
   0.194E+01 -.398E+02 -.510E+02   -.344E+01 0.707E+02 0.906E+02   0.149E+01 -.305E+02 -.391E+02   0.444E-06 -.746E-05 -.968E-05
 -----------------------------------------------------------------------------------------------
   -.118E+01 0.243E+02 0.311E+02   0.000E+00 0.142E-13 0.000E+00   0.118E+01 -.243E+02 -.311E+02   0.521E-06 -.848E-05 -.110E-04
 
 
 POSITION                                       TOTAL-FORCE (eV/Angst)
 -----------------------------------------------------------------------------------
      0.03541      3.95416     34.06830         0.018852      0.195007     -0.496016
      0.00000      2.75848      0.00000        -0.002588     -0.528905      0.068110
      0.00000      3.71985      0.00000        -0.016264      0.333899      0.427906
 -----------------------------------------------------------------------------------
    total drift:                                0.000001      0.000023     -0.000015


--------------------------------------------------------------------------------------------------------



  FREE ENERGIE OF THE ION-ELECTRON SYSTEM (eV)
  ---------------------------------------------------
  free  energy   TOTEN  =       -14.24084243 eV

  energy  without entropy=      -14.24084243  energy(sigma->0) =      -14.24084243
 


--------------------------------------------------------------------------------------------------------


    POTLOK:  cpu time   21.9896: real time   22.0187


--------------------------------------------------------------------------------------------------------


 writing wavefunctions
     LOOP+:  cpu time 1392.4711: real time 1395.9807
    4ORBIT:  cpu time    0.0000: real time    0.0000

 total amount of memory used by VASP MPI-rank0  3430239. kBytes
=======================================================================

   base      :      30000. kBytes
   nonl-proj :      68538. kBytes
   fftplans  :    1215227. kBytes
   grid      :    2104012. kBytes
   one-center:          1. kBytes
   wavefun   :      12461. kBytes
 
  
  
 General timing and accounting informations for this job:
 ========================================================
  
                  Total CPU time used (sec):     2030.580
                            User time (sec):     1924.943
                          System time (sec):      105.636
                         Elapsed time (sec):     2036.819
  
                   Maximum memory used (kb):     4230932.
                   Average memory used (kb):           0.
  
                          Minor page faults:     42154545
                          Major page faults:           87
                 Voluntary context switches:        11811
