 vasp.6.1.2 22Jul20 (build Jan  6 2021 09:55:43) gamma-only                      
 executed on             LinuxPGI date 2021.03.02  02:12:49
 running on   32 total cores
 distrk:  each k-point on   32 cores,    1 groups
 distr:  one band on NCORE=   8 cores,    4 groups


--------------------------------------------------------------------------------------------------------


 INCAR:
 POTCAR:    PAW_PBE H 15Jun2001                   
 POTCAR:    PAW_PBE C 08Apr2002                   
 POTCAR:    PAW_PBE O 08Apr2002                   
 POTCAR:    PAW_PBE H 15Jun2001                   
   VRHFIN =H: ultrasoft test                                                                        
   LEXCH  = PE                                                                                      
   EATOM  =    12.4884 eV,    0.9179 Ry                                                             
                                                                                                    
   TITEL  = PAW_PBE H 15Jun2001                                                                     
   LULTRA =        F    use ultrasoft PP ?                                                          
   IUNSCR =        0    unscreen: 0-lin 1-nonlin 2-no                                               
   RPACOR =    0.000    partial core radius                                                         
   POMASS =    1.000; ZVAL   =    1.000    mass and valenz                                          
   RCORE  =    1.100    outmost cutoff radius                                                       
   RWIGS  =    0.700; RWIGS  =    0.370    wigner-seitz radius (au A)                               
   ENMAX  =  250.000; ENMIN  =  200.000 eV                                                          
   RCLOC  =    0.701    cutoff for local pot                                                        
   LCOR   =        T    correct aug charges                                                         
   LPAW   =        T    paw PP                                                                      
   EAUG   =  400.000                                                                                
   RMAX   =    1.123    core radius for proj-oper                                                   
   RAUG   =    1.200    factor for augmentation sphere                                              
   RDEP   =    1.112    radius for radial grids                                                     
   RDEPT  =    0.926    core radius for aug-charge                                                  
                                                                                                    
   Atomic configuration                                                                             
    2 entries                                                                                       
     n  l   j            E        occ.                                                              
     1  0  0.50        -6.4927   1.0000                                                             
     2  1  0.50        -3.4015   0.0000                                                             
   Description                                                                                      
     l       E           TYP  RCUT    TYP  RCUT                                                     
     0     -6.4927494     23  1.100                                                                 
     0      6.8029130     23  1.100                                                                 
     1     -4.0817478     23  1.100                                                                 
  local pseudopotential read in
  atomic valenz-charges read in
  non local Contribution for L=            0  read in
    real space projection operators read in
  non local Contribution for L=            0  read in
    real space projection operators read in
  non local Contribution for L=            1  read in
    real space projection operators read in
    PAW grid and wavefunctions read in
 
   number of l-projection  operators is LMAX  =            3
   number of lm-projection operators is LMMAX =            5
 
 POTCAR:    PAW_PBE C 08Apr2002                   
   VRHFIN =C: s2p2                                                                                  
   LEXCH  = PE                                                                                      
   EATOM  =   147.1560 eV,   10.8157 Ry                                                             
                                                                                                    
   TITEL  = PAW_PBE C 08Apr2002                                                                     
   LULTRA =        F    use ultrasoft PP ?                                                          
   IUNSCR =        1    unscreen: 0-lin 1-nonlin 2-no                                               
   RPACOR =    1.200    partial core radius                                                         
   POMASS =   12.011; ZVAL   =    4.000    mass and valenz                                          
   RCORE  =    1.500    outmost cutoff radius                                                       
   RWIGS  =    1.630; RWIGS  =    0.863    wigner-seitz radius (au A)                               
   ENMAX  =  400.000; ENMIN  =  300.000 eV                                                          
   ICORE  =        2    local potential                                                             
   LCOR   =        T    correct aug charges                                                         
   LPAW   =        T    paw PP                                                                      
   EAUG   =  644.873                                                                                
   DEXC   =    0.000                                                                                
   RMAX   =    1.529    core radius for proj-oper                                                   
   RAUG   =    1.300    factor for augmentation sphere                                              
   RDEP   =    1.501    radius for radial grids                                                     
   RDEPT  =    1.300    core radius for aug-charge                                                  
                                                                                                    
   Atomic configuration                                                                             
    4 entries                                                                                       
     n  l   j            E        occ.                                                              
     1  0  0.50      -273.3789   2.0000                                                             
     2  0  0.50       -13.7508   2.0000                                                             
     2  1  0.50        -5.2854   2.0000                                                             
     3  2  1.50        -5.4423   0.0000                                                             
   Description                                                                                      
     l       E           TYP  RCUT    TYP  RCUT                                                     
     0    -13.7508458     23  1.200                                                                 
     0     -8.2022199     23  1.200                                                                 
     1     -5.2854383     23  1.500                                                                 
     1     34.0145650     23  1.500                                                                 
     2     -5.4423304      7  1.500                                                                 
  local pseudopotential read in
  partial core-charges read in
  partial kinetic energy density read in
  atomic valenz-charges read in
  non local Contribution for L=            0  read in
    real space projection operators read in
  non local Contribution for L=            0  read in
    real space projection operators read in
  non local Contribution for L=            1  read in
    real space projection operators read in
  non local Contribution for L=            1  read in
    real space projection operators read in
    PAW grid and wavefunctions read in
 
   number of l-projection  operators is LMAX  =            4
   number of lm-projection operators is LMMAX =            8
 
 POTCAR:    PAW_PBE O 08Apr2002                   
   VRHFIN =O: s2p4                                                                                  
   LEXCH  = PE                                                                                      
   EATOM  =   432.3788 eV,   31.7789 Ry                                                             
                                                                                                    
   TITEL  = PAW_PBE O 08Apr2002                                                                     
   LULTRA =        F    use ultrasoft PP ?                                                          
   IUNSCR =        1    unscreen: 0-lin 1-nonlin 2-no                                               
   RPACOR =    1.200    partial core radius                                                         
   POMASS =   16.000; ZVAL   =    6.000    mass and valenz                                          
   RCORE  =    1.520    outmost cutoff radius                                                       
   RWIGS  =    1.550; RWIGS  =    0.820    wigner-seitz radius (au A)                               
   ENMAX  =  400.000; ENMIN  =  300.000 eV                                                          
   ICORE  =        2    local potential                                                             
   LCOR   =        T    correct aug charges                                                         
   LPAW   =        T    paw PP                                                                      
   EAUG   =  605.392                                                                                
   DEXC   =    0.000                                                                                
   RMAX   =    1.553    core radius for proj-oper                                                   
   RAUG   =    1.300    factor for augmentation sphere                                              
   RDEP   =    1.550    radius for radial grids                                                     
   RDEPT  =    1.329    core radius for aug-charge                                                  
                                                                                                    
   Atomic configuration                                                                             
    4 entries                                                                                       
     n  l   j            E        occ.                                                              
     1  0  0.50      -514.6923   2.0000                                                             
     2  0  0.50       -23.9615   2.0000                                                             
     2  1  0.50        -9.0305   4.0000                                                             
     3  2  1.50        -9.5241   0.0000                                                             
   Description                                                                                      
     l       E           TYP  RCUT    TYP  RCUT                                                     
     0    -23.9615318     23  1.200                                                                 
     0     -9.5240782     23  1.200                                                                 
     1     -9.0304911     23  1.520                                                                 
     1      8.1634956     23  1.520                                                                 
     2     -9.5240782      7  1.500                                                                 
  local pseudopotential read in
  partial core-charges read in
  partial kinetic energy density read in
  kinetic energy density of atom read in
  atomic valenz-charges read in
  non local Contribution for L=            0  read in
    real space projection operators read in
  non local Contribution for L=            0  read in
    real space projection operators read in
  non local Contribution for L=            1  read in
    real space projection operators read in
  non local Contribution for L=            1  read in
    real space projection operators read in
    PAW grid and wavefunctions read in
 
   number of l-projection  operators is LMAX  =            4
   number of lm-projection operators is LMMAX =            8
 
  PAW_PBE H 15Jun2001                   :
 energy of atom  1       EATOM=  -12.4884
 kinetic energy error for atom=    0.0000 (will be added to EATOM!!)
  PAW_PBE C 08Apr2002                   :
 energy of atom  2       EATOM= -147.1560
 kinetic energy error for atom=    0.0002 (will be added to EATOM!!)
  PAW_PBE O 08Apr2002                   :
 energy of atom  3       EATOM= -432.3788
 kinetic energy error for atom=    0.0005 (will be added to EATOM!!)
 
 
 POSCAR:  H  C  O
  positions in cartesian coordinates
  No initial velocities read in
 exchange correlation table for  LEXCH =        8
   RHO(1)=    0.500       N(1)  =     2000
   RHO(2)=  100.500       N(2)  =     4000
 


--------------------------------------------------------------------------------------------------------


 ion  position               nearest neighbor table
   1  0.001  0.116  0.973-   6 0.96
   2  0.000  0.082  0.000-   6 0.96
   3  0.000  0.003  0.000-   4 1.17   5 1.17
   4  0.000  0.036  0.000-   3 1.17
   5  0.000  0.969  0.000-   3 1.17
   6  0.000  0.109  0.000-   2 0.96   1 0.96
 
  LATTYP: Found a simple cubic cell.
 ALAT       =    35.0000000000
  
  Lattice vectors:
  
 A1 = (  35.0000000000,   0.0000000000,   0.0000000000)
 A2 = (   0.0000000000,  35.0000000000,   0.0000000000)
 A3 = (   0.0000000000,   0.0000000000,  35.0000000000)


Analysis of symmetry for initial positions (statically):
=====================================================================
 Subroutine PRICEL returns:
 Original cell was already a primitive cell.
 

 Routine SETGRP: Setting up the symmetry group for a 
 simple cubic supercell.


 Subroutine GETGRP returns: Found  1 space group operations
 (whereof  1 operations were pure point group operations)
 out of a pool of 48 trial point group operations.


The static configuration has the point symmetry C_1 .


Analysis of symmetry for dynamics (positions and initial velocities):
=====================================================================
 Subroutine PRICEL returns:
 Original cell was already a primitive cell.
 

 Routine SETGRP: Setting up the symmetry group for a 
 simple cubic supercell.


 Subroutine GETGRP returns: Found  1 space group operations
 (whereof  1 operations were pure point group operations)
 out of a pool of 48 trial point group operations.


The dynamic configuration has the point symmetry C_1 .


 Subroutine INISYM returns: Found  1 space group operations
 (whereof  1 operations are pure point group operations),
 and found     1 'primitive' translations


----------------------------------------------------------------------------------------

                                     Primitive cell                                     

  volume of cell :   42875.0000

  direct lattice vectors                    reciprocal lattice vectors
    35.000000000  0.000000000  0.000000000     0.028571429  0.000000000  0.000000000
     0.000000000 35.000000000  0.000000000     0.000000000  0.028571429  0.000000000
     0.000000000  0.000000000 35.000000000     0.000000000  0.000000000  0.028571429

  length of vectors
    35.000000000 35.000000000 35.000000000     0.028571429  0.028571429  0.028571429

  position of ions in fractional coordinates (direct lattice)
     0.001011704  0.115833259  0.973379868
     0.000000000  0.081670743  0.000000000
     0.000000000  0.002521600  0.000000000
     0.000000000  0.035956457  0.000000000
     0.000000000  0.969086743  0.000000000
     0.000000000  0.109138457  0.000000000

  ion indices of the primitive-cell ions
   primitive index   ion index
                 1           1
                 2           2
                 3           3
                 4           4
                 5           5
                 6           6

----------------------------------------------------------------------------------------

 
 
 KPOINTS: automatic mesh                          

Automatic generation of k-mesh.
Space group operators:
 irot       det(A)        alpha          n_x          n_y          n_z        tau_x        tau_y        tau_z
    1     1.000000     0.000000     1.000000     0.000000     0.000000     0.000000     0.000000     0.000000
 
 Subroutine IBZKPT returns following result:
 ===========================================
 
 Found      1 irreducible k-points:
 
 Following reciprocal coordinates:
            Coordinates               Weight
  0.000000  0.000000  0.000000      1.000000
 
 Following cartesian coordinates:
            Coordinates               Weight
  0.000000  0.000000  0.000000      1.000000
 


--------------------------------------------------------------------------------------------------------




 Dimension of arrays:
   k-points           NKPTS =      1   k-points in BZ     NKDIM =      1   number of bands    NBANDS=     16
   number of dos      NEDOS =    301   number of ions     NIONS =      6
   non local maximal  LDIM  =      4   non local SUM 2l+1 LMDIM =      8
   total plane-waves  NPLWV = ******
   max r-space proj   IRMAX =      1   max aug-charges    IRDMAX=  33660
   dimension x,y,z NGX =   480 NGY =  480 NGZ =  480
   dimension x,y,z NGXF=   960 NGYF=  960 NGZF=  960
   support grid    NGXF=   960 NGYF=  960 NGZF=  960
   ions per type =               2   1   3
   NGX,Y,Z   is equivalent  to a cutoff of  22.80, 22.80, 22.80 a.u.
   NGXF,Y,Z  is equivalent  to a cutoff of  45.60, 45.60, 45.60 a.u.

 SYSTEM =  C                                       
 POSCAR =   H  C  O                                

 Startparameter for this run:
   NWRITE =      2    write-flag & timer
   PREC   = acc       normal or accurate (medium, high low for compatibility)
   ISTART =      0    job   : 0-new  1-cont  2-samecut
   ICHARG =      2    charge: 1-file 2-atom 10-const
   ISPIN  =      1    spin polarized calculation?
   LNONCOLLINEAR =      F non collinear calculations
   LSORBIT =      F    spin-orbit coupling
   INIWAV =      1    electr: 0-lowe 1-rand  2-diag
   LASPH  =      T    aspherical Exc in radial PAW
   METAGGA=      F    non-selfconsistent MetaGGA calc.

 Electronic Relaxation 1
   ENCUT  = 1600.0 eV 117.60 Ry   10.84 a.u. 114.15114.15114.15*2*pi/ulx,y,z
   ENINI  = 1600.0     initial cutoff
   ENAUG  =  644.9 eV  augmentation charge cutoff
   NELM   =     60;   NELMIN=  2; NELMDL= -5     # of ELM steps 
   EDIFF  = 0.1E-06   stopping-criterion for ELM
   LREAL  =      F    real-space projection
   NLSPLINE    = F    spline interpolate recip. space projectors
   LCOMPAT=      F    compatible to vasp.4.4
   GGA_COMPAT  = T    GGA compatible to vasp.4.4-vasp.4.6
   LMAXPAW     = -100 max onsite density
   LMAXMIX     =    2 max onsite mixed and CHGCAR
   VOSKOWN=      0    Vosko Wilk Nusair interpolation
   ROPT   =    0.00000   0.00000   0.00000
 Ionic relaxation
   EDIFFG = 0.1E-05   stopping-criterion for IOM
   NSW    =      0    number of steps for IOM
   NBLOCK =      1;   KBLOCK =      1    inner block; outer block 
   IBRION =     -1    ionic relax: 0-MD 1-quasi-New 2-CG
   NFREE  =      0    steps in history (QN), initial steepest desc. (CG)
   ISIF   =      2    stress and relaxation
   IWAVPR =     10    prediction:  0-non 1-charg 2-wave 3-comb
   ISYM   =      2    0-nonsym 1-usesym 2-fastsym
   LCORR  =      T    Harris-Foulkes like correction to forces

   POTIM  = 0.5000    time-step for ionic-motion
   TEIN   =    0.0    initial temperature
   TEBEG  =    0.0;   TEEND  =   0.0 temperature during run
   SMASS  =  -3.00    Nose mass-parameter (am)
   estimated Nose-frequenzy (Omega)   =  0.10E-29 period in steps = 0.13E+47 mass=  -0.280E-25a.u.
   SCALEE = 1.0000    scale energy and forces
   NPACO  =    256;   APACO  = 16.0  distance and # of slots for P.C.
   PSTRESS=    0.0 pullay stress

  Mass of Ions in am
   POMASS =   1.00 12.01 16.00
  Ionic Valenz
   ZVAL   =   1.00  4.00  6.00
  Atomic Wigner-Seitz radii
   RWIGS  =  -1.00 -1.00 -1.00
  virtual crystal weights 
   VCA    =   1.00  1.00  1.00
   NELECT =      24.0000    total number of electrons
   NUPDOWN=      -1.0000    fix difference up-down

 DOS related values:
   EMIN   =  10.00;   EMAX   =-10.00  energy-range for DOS
   EFERMI =   0.00
   ISMEAR =     0;   SIGMA  =   0.01  broadening in eV -4-tet -1-fermi 0-gaus

 Electronic relaxation 2 (details)
   IALGO  =     38    algorithm
   LDIAG  =      T    sub-space diagonalisation (order eigenvalues)
   LSUBROT=      F    optimize rotation matrix (better conditioning)
   TURBO    =      0    0=normal 1=particle mesh
   IRESTART =      0    0=no restart 2=restart with 2 vectors
   NREBOOT  =      0    no. of reboots
   NMIN     =      0    reboot dimension
   EREF     =   0.00    reference energy to select bands
   IMIX   =      4    mixing-type and parameters
     AMIX     =   0.40;   BMIX     =  1.00
     AMIX_MAG =   1.60;   BMIX_MAG =  1.00
     AMIN     =   0.10
     WC   =   100.;   INIMIX=   1;  MIXPRE=   1;  MAXMIX= -45

 Intra band minimization:
   WEIMIN = 0.0000     energy-eigenvalue tresh-hold
   EBREAK =  0.16E-08  absolut break condition
   DEPER  =   0.30     relativ break condition  

   TIME   =   0.40     timestep for ELM

  volume/ion in A,a.u.               =    7145.83     48222.46
  Fermi-wavevector in a.u.,A,eV,Ry     =   0.134920  0.254962  0.247673  0.018203
  Thomas-Fermi vector in A             =   0.783236
 
 Write flags
   LWAVE        =      T    write WAVECAR
   LDOWNSAMPLE  =      F    k-point downsampling of WAVECAR
   LCHARG       =      T    write CHGCAR
   LVTOT        =      F    write LOCPOT, total local potential
   LVHAR        =      F    write LOCPOT, Hartree potential only
   LELF         =      F    write electronic localiz. function (ELF)
   LORBIT       =      0    0 simple, 1 ext, 2 COOP (PROOUT), +10 PAW based schemes


 Dipole corrections
   LMONO  =      F    monopole corrections only (constant potential shift)
   LDIPOL =      F    correct potential (dipole corrections)
   IDIPOL =      4    1-x, 2-y, 3-z, 4-all directions 
   EPSILON=  1.0000000 bulk dielectric constant

 Exchange correlation treatment:
   GGA     =    --    GGA type
   LEXCH   =     8    internal setting for exchange type
   VOSKOWN=      0    Vosko Wilk Nusair interpolation
   LHFCALC =     F    Hartree Fock is set to
   LHFONE  =     F    Hartree Fock one center treatment
   AEXX    =    0.0000 exact exchange contribution

 Linear response parameters
   LEPSILON=     F    determine dielectric tensor
   LRPA    =     F    only Hartree local field effects (RPA)
   LNABLA  =     F    use nabla operator in PAW spheres
   LVEL    =     F    velocity operator in full k-point grid
   LINTERFAST=   F  fast interpolation
   KINTER  =     0    interpolate to denser k-point grid
   CSHIFT  =0.1000    complex shift for real part using Kramers Kronig
   OMEGAMAX=  -1.0    maximum frequency
   DEG_THRESHOLD= 0.2000000E-02 threshold for treating states as degnerate
   RTIME   =   -0.100 relaxation time in fs
  (WPLASMAI=    0.000 imaginary part of plasma frequency in eV, 0.658/RTIME)
   DFIELD  = 0.0000000 0.0000000 0.0000000 field for delta impulse in time
 
 Orbital magnetization related:
   ORBITALMAG=     F  switch on orbital magnetization
   LCHIMAG   =     F  perturbation theory with respect to B field
   DQ        =  0.001000  dq finite difference perturbation B field
   LLRAUG    =     F  two centre corrections for induced B field



--------------------------------------------------------------------------------------------------------


 Static calculation
 charge density and potential will be updated during run
 non-spin polarized calculation
 Variant of blocked Davidson
 Davidson routine will perform the subspace rotation
 perform sub-space diagonalisation
    after iterative eigenvector-optimisation
 modified Broyden-mixing scheme, WC =      100.0
 initial mixing is a Kerker type mixing with AMIX =  0.4000 and BMIX =      1.0000
 Hartree-type preconditioning will be used
 using additional bands             4
 reciprocal scheme for non local part
 use partial core corrections
 calculate Harris-corrections to forces 
   (improved forces if not selfconsistent)
 use gradient corrections 
 use of overlap-Matrix (Vanderbilt PP)
 Gauss-broadening in eV      SIGMA  =   0.01


--------------------------------------------------------------------------------------------------------


  energy-cutoff  :     1600.00
  volume of cell :    42875.00
      direct lattice vectors                 reciprocal lattice vectors
    35.000000000  0.000000000  0.000000000     0.028571429  0.000000000  0.000000000
     0.000000000 35.000000000  0.000000000     0.000000000  0.028571429  0.000000000
     0.000000000  0.000000000 35.000000000     0.000000000  0.000000000  0.028571429

  length of vectors
    35.000000000 35.000000000 35.000000000     0.028571429  0.028571429  0.028571429


 
 k-points in units of 2pi/SCALE and weight: automatic mesh                          
   0.00000000  0.00000000  0.00000000       1.000
 
 k-points in reciprocal lattice and weights: automatic mesh                          
   0.00000000  0.00000000  0.00000000       1.000
 
 position of ions in fractional coordinates (direct lattice) 
   0.00101170  0.11583326  0.97337987
   0.00000000  0.08167074  0.00000000
   0.00000000  0.00252160  0.00000000
   0.00000000  0.03595646  0.00000000
   0.00000000  0.96908674  0.00000000
   0.00000000  0.10913846  0.00000000
 
 position of ions in cartesian coordinates  (Angst):
   0.03540965  4.05416408 34.06829539
   0.00000000  2.85847600  0.00000000
   0.00000000  0.08825600  0.00000000
   0.00000000  1.25847600  0.00000000
   0.00000000 33.91803600  0.00000000
   0.00000000  3.81984600  0.00000000
 


--------------------------------------------------------------------------------------------------------


 use parallel FFT for orbitals z direction half grid
 k-point   1 :   0.0000 0.0000 0.0000  plane waves: 3115599

 maximum and minimum number of plane-waves per node :    389462   389421

 maximum number of plane-waves:   3115599
 maximum index in each direction: 
   IXMAX=  114   IYMAX=  114   IZMAX=  114
   IXMIN= -114   IYMIN= -114   IZMIN=    0


 parallel 3D FFT for wavefunctions:
    minimum data exchange during FFTs selected (reduces bandwidth)
 parallel 3D FFT for charge:
    minimum data exchange during FFTs selected (reduces bandwidth)


 total amount of memory used by VASP MPI-rank0  3707962. kBytes
=======================================================================

   base      :      30000. kBytes
   nonl-proj :     112154. kBytes
   fftplans  :    1215227. kBytes
   grid      :    2325657. kBytes
   one-center:          1. kBytes
   wavefun   :      24923. kBytes
 
     INWAV:  cpu time    0.0000: real time    0.0000
 Broyden mixing: mesh for mixing (old mesh)
   NGX =229   NGY =229   NGZ =229
  (NGX  =960   NGY  =960   NGZ  =960)
  gives a total of ****** points

 initial charge density was supplied:
 charge density of overlapping atoms calculated
 number of electron      24.0000000 magnetization 
 keeping initial charge density in first step


--------------------------------------------------------------------------------------------------------


 Maximum index for augmentation-charges          1234 (set IRDMAX)


--------------------------------------------------------------------------------------------------------


 First call to EWALD:  gamma=   0.051
 Maximum number of real-space cells 3x 3x 3
 Maximum number of reciprocal cells 3x 3x 3

    FEWALD:  cpu time    0.0010: real time    0.0010


--------------------------------------- Iteration      1(   1)  ---------------------------------------


    POTLOK:  cpu time   23.8959: real time   23.9286
    SETDIJ:  cpu time    0.0527: real time    0.0543
     EDDAV:  cpu time   14.6799: real time   14.8806
       DOS:  cpu time    0.0049: real time    0.0049
    --------------------------------------------
      LOOP:  cpu time   38.6334: real time   38.8684

 eigenvalue-minimisations  :    48
 total energy-change (2. order) : 0.2504796E+03  (-0.4662291E+03)
 number of electron      24.0000000 magnetization 
 augmentation part       24.0000000 magnetization 

 Free energy of the ion-electron system (eV)
  ---------------------------------------------------
  alpha Z        PSCENC =         0.05311416
  Ewald energy   TEWEN  =      1224.20150596
  -Hartree energ DENC   =     -2384.90524261
  -exchange      EXHF   =         0.00000000
  -V(xc)+E(xc)   XCENC  =       100.19156677
  PAW double counting   =      1152.43853192    -1158.42170530
  entropy T*S    EENTRO =        -0.00273254
  eigenvalues    EBANDS =      -152.34297808
  atomic energy  EATOM  =      1469.26749561
  Solvation  Ediel_sol  =         0.00000000
  ---------------------------------------------------
  free energy    TOTEN  =       250.47955590 eV

  energy without entropy =      250.48228844  energy(sigma->0) =      250.48092217


--------------------------------------------------------------------------------------------------------




--------------------------------------- Iteration      1(   2)  ---------------------------------------


     EDDAV:  cpu time   18.2651: real time   18.2943
       DOS:  cpu time    0.0023: real time    0.0023
    --------------------------------------------
      LOOP:  cpu time   18.2674: real time   18.2967

 eigenvalue-minimisations  :    64
 total energy-change (2. order) :-0.1465090E+03  (-0.1463473E+03)
 number of electron      24.0000000 magnetization 
 augmentation part       24.0000000 magnetization 

 Free energy of the ion-electron system (eV)
  ---------------------------------------------------
  alpha Z        PSCENC =         0.05311416
  Ewald energy   TEWEN  =      1224.20150596
  -Hartree energ DENC   =     -2384.90524261
  -exchange      EXHF   =         0.00000000
  -V(xc)+E(xc)   XCENC  =       100.19156677
  PAW double counting   =      1152.43853192    -1158.42170530
  entropy T*S    EENTRO =        -0.00000041
  eigenvalues    EBANDS =      -298.85469644
  atomic energy  EATOM  =      1469.26749561
  Solvation  Ediel_sol  =         0.00000000
  ---------------------------------------------------
  free energy    TOTEN  =       103.97056967 eV

  energy without entropy =      103.97057008  energy(sigma->0) =      103.97056987


--------------------------------------------------------------------------------------------------------




--------------------------------------- Iteration      1(   3)  ---------------------------------------


     EDDAV:  cpu time   14.6667: real time   14.6904
       DOS:  cpu time    0.0015: real time    0.0015
    --------------------------------------------
      LOOP:  cpu time   14.6682: real time   14.6919

 eigenvalue-minimisations  :    48
 total energy-change (2. order) :-0.1063599E+03  (-0.1062442E+03)
 number of electron      24.0000000 magnetization 
 augmentation part       24.0000000 magnetization 

 Free energy of the ion-electron system (eV)
  ---------------------------------------------------
  alpha Z        PSCENC =         0.05311416
  Ewald energy   TEWEN  =      1224.20150596
  -Hartree energ DENC   =     -2384.90524261
  -exchange      EXHF   =         0.00000000
  -V(xc)+E(xc)   XCENC  =       100.19156677
  PAW double counting   =      1152.43853192    -1158.42170530
  entropy T*S    EENTRO =        -0.00000000
  eigenvalues    EBANDS =      -405.21460025
  atomic energy  EATOM  =      1469.26749561
  Solvation  Ediel_sol  =         0.00000000
  ---------------------------------------------------
  free energy    TOTEN  =        -2.38933373 eV

  energy without entropy =       -2.38933373  energy(sigma->0) =       -2.38933373


--------------------------------------------------------------------------------------------------------




--------------------------------------- Iteration      1(   4)  ---------------------------------------


     EDDAV:  cpu time   11.0639: real time   11.0837
       DOS:  cpu time    0.0008: real time    0.0008
    --------------------------------------------
      LOOP:  cpu time   11.0648: real time   11.0846

 eigenvalue-minimisations  :    32
 total energy-change (2. order) :-0.3724577E+02  (-0.3724242E+02)
 number of electron      24.0000000 magnetization 
 augmentation part       24.0000000 magnetization 

 Free energy of the ion-electron system (eV)
  ---------------------------------------------------
  alpha Z        PSCENC =         0.05311416
  Ewald energy   TEWEN  =      1224.20150596
  -Hartree energ DENC   =     -2384.90524261
  -exchange      EXHF   =         0.00000000
  -V(xc)+E(xc)   XCENC  =       100.19156677
  PAW double counting   =      1152.43853192    -1158.42170530
  entropy T*S    EENTRO =        -0.00000000
  eigenvalues    EBANDS =      -442.46036919
  atomic energy  EATOM  =      1469.26749561
  Solvation  Ediel_sol  =         0.00000000
  ---------------------------------------------------
  free energy    TOTEN  =       -39.63510267 eV

  energy without entropy =      -39.63510267  energy(sigma->0) =      -39.63510267


--------------------------------------------------------------------------------------------------------




--------------------------------------- Iteration      1(   5)  ---------------------------------------


     EDDAV:  cpu time   11.1327: real time   11.1504
       DOS:  cpu time    0.0014: real time    0.0014
    CHARGE:  cpu time    3.5027: real time    3.5073
    MIXING:  cpu time    0.4830: real time    0.4837
    --------------------------------------------
      LOOP:  cpu time   15.1198: real time   15.1428

 eigenvalue-minimisations  :    32
 total energy-change (2. order) :-0.1338383E+01  (-0.1338379E+01)
 number of electron      23.9999999 magnetization 
 augmentation part        2.3641684 magnetization 

 Broyden mixing:
  rms(total) = 0.12278E+01    rms(broyden)= 0.12278E+01
  rms(prec ) = 0.12591E+01
  weight for this iteration     100.00

 Free energy of the ion-electron system (eV)
  ---------------------------------------------------
  alpha Z        PSCENC =         0.05311416
  Ewald energy   TEWEN  =      1224.20150596
  -Hartree energ DENC   =     -2384.90524261
  -exchange      EXHF   =         0.00000000
  -V(xc)+E(xc)   XCENC  =       100.19156677
  PAW double counting   =      1152.43853192    -1158.42170530
  entropy T*S    EENTRO =        -0.00000000
  eigenvalues    EBANDS =      -443.79875223
  atomic energy  EATOM  =      1469.26749561
  Solvation  Ediel_sol  =         0.00000000
  ---------------------------------------------------
  free energy    TOTEN  =       -40.97348572 eV

  energy without entropy =      -40.97348572  energy(sigma->0) =      -40.97348572


--------------------------------------------------------------------------------------------------------




--------------------------------------- Iteration      1(   6)  ---------------------------------------


    POTLOK:  cpu time   23.7243: real time   23.7567
    SETDIJ:  cpu time    0.0534: real time    0.0534
     EDDAV:  cpu time   11.1086: real time   11.1264
       DOS:  cpu time    0.0023: real time    0.0023
    CHARGE:  cpu time    3.3809: real time    3.3855
    MIXING:  cpu time    0.5069: real time    0.5161
    --------------------------------------------
      LOOP:  cpu time   38.7764: real time   38.8404

 eigenvalue-minimisations  :    32
 total energy-change (2. order) : 0.3511682E+01  (-0.1592644E+01)
 number of electron      23.9999999 magnetization 
 augmentation part        2.0596120 magnetization 

 Broyden mixing:
  rms(total) = 0.52605E+00    rms(broyden)= 0.52605E+00
  rms(prec ) = 0.53274E+00
  weight for this iteration     100.00

 eigenvalues of (default mixing * dielectric matrix)
  average eigenvalue GAMMA=   1.0175
  1.0175

 Free energy of the ion-electron system (eV)
  ---------------------------------------------------
  alpha Z        PSCENC =         0.05311416
  Ewald energy   TEWEN  =      1224.20150596
  -Hartree energ DENC   =     -2433.26598394
  -exchange      EXHF   =         0.00000000
  -V(xc)+E(xc)   XCENC  =       103.01153032
  PAW double counting   =      1511.67633187    -1518.45501417
  entropy T*S    EENTRO =        -0.00000000
  eigenvalues    EBANDS =      -393.95078380
  atomic energy  EATOM  =      1469.26749561
  Solvation  Ediel_sol  =         0.00000000
  ---------------------------------------------------
  free energy    TOTEN  =       -37.46180399 eV

  energy without entropy =      -37.46180399  energy(sigma->0) =      -37.46180399


--------------------------------------------------------------------------------------------------------




--------------------------------------- Iteration      1(   7)  ---------------------------------------


    POTLOK:  cpu time   23.7205: real time   23.7533
    SETDIJ:  cpu time    0.0626: real time    0.0626
     EDDAV:  cpu time   14.7047: real time   14.7281
       DOS:  cpu time    0.0020: real time    0.0020
    CHARGE:  cpu time    3.4266: real time    3.4315
    MIXING:  cpu time    0.4642: real time    0.4649
    --------------------------------------------
      LOOP:  cpu time   42.3805: real time   42.4424

 eigenvalue-minimisations  :    48
 total energy-change (2. order) : 0.2297421E+00  (-0.4663818E-01)
 number of electron      23.9999999 magnetization 
 augmentation part        2.0570431 magnetization 

 Broyden mixing:
  rms(total) = 0.31340E+00    rms(broyden)= 0.31340E+00
  rms(prec ) = 0.31795E+00
  weight for this iteration     100.00

 eigenvalues of (default mixing * dielectric matrix)
  average eigenvalue GAMMA=   1.6776
  1.0516  2.3036

 Free energy of the ion-electron system (eV)
  ---------------------------------------------------
  alpha Z        PSCENC =         0.05311416
  Ewald energy   TEWEN  =      1224.20150596
  -Hartree energ DENC   =     -2442.30025357
  -exchange      EXHF   =         0.00000000
  -V(xc)+E(xc)   XCENC  =       103.47200508
  PAW double counting   =      1744.93483373    -1751.62765788
  entropy T*S    EENTRO =        -0.00000000
  eigenvalues    EBANDS =      -385.23310502
  atomic energy  EATOM  =      1469.26749561
  Solvation  Ediel_sol  =         0.00000000
  ---------------------------------------------------
  free energy    TOTEN  =       -37.23206192 eV

  energy without entropy =      -37.23206192  energy(sigma->0) =      -37.23206192


--------------------------------------------------------------------------------------------------------




--------------------------------------- Iteration      1(   8)  ---------------------------------------


    POTLOK:  cpu time   23.7451: real time   23.7776
    SETDIJ:  cpu time    0.0499: real time    0.0499
     EDDAV:  cpu time   14.7051: real time   14.7286
       DOS:  cpu time    0.0020: real time    0.0020
    CHARGE:  cpu time    3.4696: real time    3.4747
    MIXING:  cpu time    0.7276: real time    0.7285
    --------------------------------------------
      LOOP:  cpu time   42.6993: real time   42.7613

 eigenvalue-minimisations  :    48
 total energy-change (2. order) : 0.1625605E+00  (-0.3146265E-01)
 number of electron      23.9999999 magnetization 
 augmentation part        2.0595937 magnetization 

 Broyden mixing:
  rms(total) = 0.71366E-01    rms(broyden)= 0.71366E-01
  rms(prec ) = 0.75338E-01
  weight for this iteration     100.00

 eigenvalues of (default mixing * dielectric matrix)
  average eigenvalue GAMMA=   1.3621
  2.4062  1.0200  0.6602

 Free energy of the ion-electron system (eV)
  ---------------------------------------------------
  alpha Z        PSCENC =         0.05311416
  Ewald energy   TEWEN  =      1224.20150596
  -Hartree energ DENC   =     -2453.43285444
  -exchange      EXHF   =         0.00000000
  -V(xc)+E(xc)   XCENC  =       104.05098174
  PAW double counting   =      2086.79636827    -2093.43554063
  entropy T*S    EENTRO =        -0.00000000
  eigenvalues    EBANDS =      -374.57057206
  atomic energy  EATOM  =      1469.26749561
  Solvation  Ediel_sol  =         0.00000000
  ---------------------------------------------------
  free energy    TOTEN  =       -37.06950139 eV

  energy without entropy =      -37.06950139  energy(sigma->0) =      -37.06950139


--------------------------------------------------------------------------------------------------------




--------------------------------------- Iteration      1(   9)  ---------------------------------------


    POTLOK:  cpu time   23.6328: real time   23.6653
    SETDIJ:  cpu time    0.0585: real time    0.0586
     EDDAV:  cpu time   11.0668: real time   11.0856
       DOS:  cpu time    0.0017: real time    0.0017
    CHARGE:  cpu time    3.4248: real time    3.4299
    MIXING:  cpu time    0.5054: real time    0.5062
    --------------------------------------------
      LOOP:  cpu time   38.6899: real time   38.7472

 eigenvalue-minimisations  :    32
 total energy-change (2. order) : 0.1256209E-01  (-0.4202783E-02)
 number of electron      23.9999999 magnetization 
 augmentation part        2.0505273 magnetization 

 Broyden mixing:
  rms(total) = 0.35239E-01    rms(broyden)= 0.35239E-01
  rms(prec ) = 0.38805E-01
  weight for this iteration     100.00

 eigenvalues of (default mixing * dielectric matrix)
  average eigenvalue GAMMA=   1.3945
  2.4585  1.2646  0.9276  0.9276

 Free energy of the ion-electron system (eV)
  ---------------------------------------------------
  alpha Z        PSCENC =         0.05311416
  Ewald energy   TEWEN  =      1224.20150596
  -Hartree energ DENC   =     -2454.47376936
  -exchange      EXHF   =         0.00000000
  -V(xc)+E(xc)   XCENC  =       104.11238231
  PAW double counting   =      2108.00548635    -2114.64499765
  entropy T*S    EENTRO =        -0.00000000
  eigenvalues    EBANDS =      -373.57815669
  atomic energy  EATOM  =      1469.26749561
  Solvation  Ediel_sol  =         0.00000000
  ---------------------------------------------------
  free energy    TOTEN  =       -37.05693930 eV

  energy without entropy =      -37.05693930  energy(sigma->0) =      -37.05693930


--------------------------------------------------------------------------------------------------------




--------------------------------------- Iteration      1(  10)  ---------------------------------------


    POTLOK:  cpu time   23.7189: real time   23.7511
    SETDIJ:  cpu time    0.0749: real time    0.0750
     EDDAV:  cpu time   14.7014: real time   14.7249
       DOS:  cpu time    0.0018: real time    0.0018
    CHARGE:  cpu time    3.4310: real time    3.4358
    MIXING:  cpu time    0.5156: real time    0.5164
    --------------------------------------------
      LOOP:  cpu time   42.4436: real time   42.5050

 eigenvalue-minimisations  :    48
 total energy-change (2. order) : 0.1695096E-02  (-0.1431793E-02)
 number of electron      23.9999999 magnetization 
 augmentation part        2.0466296 magnetization 

 Broyden mixing:
  rms(total) = 0.16345E-01    rms(broyden)= 0.16345E-01
  rms(prec ) = 0.19965E-01
  weight for this iteration     100.00

 eigenvalues of (default mixing * dielectric matrix)
  average eigenvalue GAMMA=   1.3826
  2.4259  1.2525  1.2525  0.8482  1.1339

 Free energy of the ion-electron system (eV)
  ---------------------------------------------------
  alpha Z        PSCENC =         0.05311416
  Ewald energy   TEWEN  =      1224.20150596
  -Hartree energ DENC   =     -2454.96949449
  -exchange      EXHF   =         0.00000000
  -V(xc)+E(xc)   XCENC  =       104.12590761
  PAW double counting   =      2116.19677613    -2122.81382188
  entropy T*S    EENTRO =        -0.00000000
  eigenvalues    EBANDS =      -373.11672730
  atomic energy  EATOM  =      1469.26749561
  Solvation  Ediel_sol  =         0.00000000
  ---------------------------------------------------
  free energy    TOTEN  =       -37.05524420 eV

  energy without entropy =      -37.05524420  energy(sigma->0) =      -37.05524420


--------------------------------------------------------------------------------------------------------




--------------------------------------- Iteration      1(  11)  ---------------------------------------


    POTLOK:  cpu time   23.8026: real time   23.8351
    SETDIJ:  cpu time    0.0508: real time    0.0508
     EDDAV:  cpu time   14.7190: real time   14.7424
       DOS:  cpu time    0.0017: real time    0.0017
    CHARGE:  cpu time    3.4511: real time    3.4560
    MIXING:  cpu time    0.5858: real time    0.5867
    --------------------------------------------
      LOOP:  cpu time   42.6110: real time   42.6728

 eigenvalue-minimisations  :    48
 total energy-change (2. order) :-0.2168449E-02  (-0.3660720E-03)
 number of electron      23.9999999 magnetization 
 augmentation part        2.0482501 magnetization 

 Broyden mixing:
  rms(total) = 0.11439E-01    rms(broyden)= 0.11439E-01
  rms(prec ) = 0.14608E-01
  weight for this iteration     100.00

 eigenvalues of (default mixing * dielectric matrix)
  average eigenvalue GAMMA=   1.4563
  2.5743  2.4576  0.9464  0.9464  1.0023  0.8109

 Free energy of the ion-electron system (eV)
  ---------------------------------------------------
  alpha Z        PSCENC =         0.05311416
  Ewald energy   TEWEN  =      1224.20150596
  -Hartree energ DENC   =     -2455.20918227
  -exchange      EXHF   =         0.00000000
  -V(xc)+E(xc)   XCENC  =       104.12128460
  PAW double counting   =      2114.23688037    -2120.84302287
  entropy T*S    EENTRO =        -0.00000000
  eigenvalues    EBANDS =      -372.88548822
  atomic energy  EATOM  =      1469.26749561
  Solvation  Ediel_sol  =         0.00000000
  ---------------------------------------------------
  free energy    TOTEN  =       -37.05741265 eV

  energy without entropy =      -37.05741265  energy(sigma->0) =      -37.05741265


--------------------------------------------------------------------------------------------------------




--------------------------------------- Iteration      1(  12)  ---------------------------------------


    POTLOK:  cpu time   23.7804: real time   23.8129
    SETDIJ:  cpu time    0.0510: real time    0.0510
     EDDAV:  cpu time   12.9649: real time   12.9856
       DOS:  cpu time    0.0043: real time    0.0043
    CHARGE:  cpu time    3.3778: real time    3.3829
    MIXING:  cpu time    0.6019: real time    0.6029
    --------------------------------------------
      LOOP:  cpu time   40.7803: real time   40.8395

 eigenvalue-minimisations  :    40
 total energy-change (2. order) :-0.3249721E-02  (-0.3299227E-03)
 number of electron      23.9999999 magnetization 
 augmentation part        2.0462285 magnetization 

 Broyden mixing:
  rms(total) = 0.76024E-02    rms(broyden)= 0.76024E-02
  rms(prec ) = 0.96865E-02
  weight for this iteration     100.00

 eigenvalues of (default mixing * dielectric matrix)
  average eigenvalue GAMMA=   1.5448
  3.2248  2.4930  1.3502  0.9442  0.9442  0.9288  0.9288

 Free energy of the ion-electron system (eV)
  ---------------------------------------------------
  alpha Z        PSCENC =         0.05311416
  Ewald energy   TEWEN  =      1224.20150596
  -Hartree energ DENC   =     -2455.74734246
  -exchange      EXHF   =         0.00000000
  -V(xc)+E(xc)   XCENC  =       104.13246615
  PAW double counting   =      2114.27411722    -2120.87032372
  entropy T*S    EENTRO =        -0.00000000
  eigenvalues    EBANDS =      -372.37169529
  atomic energy  EATOM  =      1469.26749561
  Solvation  Ediel_sol  =         0.00000000
  ---------------------------------------------------
  free energy    TOTEN  =       -37.06066237 eV

  energy without entropy =      -37.06066237  energy(sigma->0) =      -37.06066237


--------------------------------------------------------------------------------------------------------




--------------------------------------- Iteration      1(  13)  ---------------------------------------


    POTLOK:  cpu time   23.7782: real time   23.8141
    SETDIJ:  cpu time    0.0595: real time    0.0595
     EDDAV:  cpu time   12.8707: real time   12.8914
       DOS:  cpu time    0.0017: real time    0.0017
    CHARGE:  cpu time    3.3532: real time    3.3581
    MIXING:  cpu time    0.7120: real time    0.7130
    --------------------------------------------
      LOOP:  cpu time   40.7753: real time   40.8378

 eigenvalue-minimisations  :    40
 total energy-change (2. order) :-0.4690986E-02  (-0.1556166E-03)
 number of electron      23.9999999 magnetization 
 augmentation part        2.0462635 magnetization 

 Broyden mixing:
  rms(total) = 0.39309E-02    rms(broyden)= 0.39309E-02
  rms(prec ) = 0.54587E-02
  weight for this iteration     100.00

 eigenvalues of (default mixing * dielectric matrix)
  average eigenvalue GAMMA=   1.7091
  4.3615  2.4968  2.1117  0.9057  0.9057  1.0793  0.9671  0.8450

 Free energy of the ion-electron system (eV)
  ---------------------------------------------------
  alpha Z        PSCENC =         0.05311416
  Ewald energy   TEWEN  =      1224.20150596
  -Hartree energ DENC   =     -2456.15827082
  -exchange      EXHF   =         0.00000000
  -V(xc)+E(xc)   XCENC  =       104.13687472
  PAW double counting   =      2112.38877546    -2118.98459434
  entropy T*S    EENTRO =        -0.00000000
  eigenvalues    EBANDS =      -371.97025412
  atomic energy  EATOM  =      1469.26749561
  Solvation  Ediel_sol  =         0.00000000
  ---------------------------------------------------
  free energy    TOTEN  =       -37.06535336 eV

  energy without entropy =      -37.06535336  energy(sigma->0) =      -37.06535336


--------------------------------------------------------------------------------------------------------




--------------------------------------- Iteration      1(  14)  ---------------------------------------


    POTLOK:  cpu time   23.7241: real time   23.7566
    SETDIJ:  cpu time    0.0542: real time    0.0542
     EDDAV:  cpu time   11.0443: real time   11.0619
       DOS:  cpu time    0.0010: real time    0.0010
    CHARGE:  cpu time    3.4163: real time    3.4213
    MIXING:  cpu time    0.6787: real time    0.6797
    --------------------------------------------
      LOOP:  cpu time   38.9185: real time   38.9747

 eigenvalue-minimisations  :    32
 total energy-change (2. order) :-0.4887234E-02  (-0.1228532E-03)
 number of electron      23.9999999 magnetization 
 augmentation part        2.0462757 magnetization 

 Broyden mixing:
  rms(total) = 0.23664E-02    rms(broyden)= 0.23664E-02
  rms(prec ) = 0.31346E-02
  weight for this iteration     100.00

 eigenvalues of (default mixing * dielectric matrix)
  average eigenvalue GAMMA=   1.8360
  5.1369  2.8645  2.3962  1.3856  1.0914  1.0914  0.7962  0.8811  0.8811

 Free energy of the ion-electron system (eV)
  ---------------------------------------------------
  alpha Z        PSCENC =         0.05311416
  Ewald energy   TEWEN  =      1224.20150596
  -Hartree energ DENC   =     -2456.45999856
  -exchange      EXHF   =         0.00000000
  -V(xc)+E(xc)   XCENC  =       104.13797072
  PAW double counting   =      2111.49759937    -2118.09490304
  entropy T*S    EENTRO =        -0.00000000
  eigenvalues    EBANDS =      -371.67302482
  atomic energy  EATOM  =      1469.26749561
  Solvation  Ediel_sol  =         0.00000000
  ---------------------------------------------------
  free energy    TOTEN  =       -37.07024059 eV

  energy without entropy =      -37.07024059  energy(sigma->0) =      -37.07024059


--------------------------------------------------------------------------------------------------------




--------------------------------------- Iteration      1(  15)  ---------------------------------------


    POTLOK:  cpu time   23.8128: real time   23.8453
    SETDIJ:  cpu time    0.0648: real time    0.0648
     EDDAV:  cpu time   12.8515: real time   12.8721
       DOS:  cpu time    0.0019: real time    0.0019
    CHARGE:  cpu time    3.4125: real time    3.4175
    MIXING:  cpu time    0.6704: real time    0.6715
    --------------------------------------------
      LOOP:  cpu time   40.8139: real time   40.8733

 eigenvalue-minimisations  :    40
 total energy-change (2. order) :-0.3144387E-02  (-0.5713786E-04)
 number of electron      23.9999999 magnetization 
 augmentation part        2.0461073 magnetization 

 Broyden mixing:
  rms(total) = 0.21867E-02    rms(broyden)= 0.21867E-02
  rms(prec ) = 0.24857E-02
  weight for this iteration     100.00

 eigenvalues of (default mixing * dielectric matrix)
  average eigenvalue GAMMA=   1.8842
  5.9405  2.9157  2.4514  1.9208  0.9035  0.9035  1.0504  1.0504  0.9341  0.7712

 Free energy of the ion-electron system (eV)
  ---------------------------------------------------
  alpha Z        PSCENC =         0.05311416
  Ewald energy   TEWEN  =      1224.20150596
  -Hartree energ DENC   =     -2456.46650072
  -exchange      EXHF   =         0.00000000
  -V(xc)+E(xc)   XCENC  =       104.13189113
  PAW double counting   =      2111.69614567    -2118.29315784
  entropy T*S    EENTRO =        -0.00000000
  eigenvalues    EBANDS =      -371.66387896
  atomic energy  EATOM  =      1469.26749561
  Solvation  Ediel_sol  =         0.00000000
  ---------------------------------------------------
  free energy    TOTEN  =       -37.07338498 eV

  energy without entropy =      -37.07338498  energy(sigma->0) =      -37.07338498


--------------------------------------------------------------------------------------------------------




--------------------------------------- Iteration      1(  16)  ---------------------------------------


    POTLOK:  cpu time   23.8410: real time   23.8737
    SETDIJ:  cpu time    0.0830: real time    0.0830
     EDDAV:  cpu time   14.6875: real time   14.7109
       DOS:  cpu time    0.0006: real time    0.0006
    CHARGE:  cpu time    3.4672: real time    3.4720
    MIXING:  cpu time    0.7492: real time    0.7504
    --------------------------------------------
      LOOP:  cpu time   42.8285: real time   42.8905

 eigenvalue-minimisations  :    48
 total energy-change (2. order) :-0.1240427E-02  (-0.9785688E-05)
 number of electron      23.9999999 magnetization 
 augmentation part        2.0460234 magnetization 

 Broyden mixing:
  rms(total) = 0.74586E-03    rms(broyden)= 0.74586E-03
  rms(prec ) = 0.10445E-02
  weight for this iteration     100.00

 eigenvalues of (default mixing * dielectric matrix)
  average eigenvalue GAMMA=   2.0139
  6.6794  3.6823  2.4651  2.1101  1.6892  0.8998  0.8998  1.0164  1.0164  0.9150
  0.7793

 Free energy of the ion-electron system (eV)
  ---------------------------------------------------
  alpha Z        PSCENC =         0.05311416
  Ewald energy   TEWEN  =      1224.20150596
  -Hartree energ DENC   =     -2456.43109108
  -exchange      EXHF   =         0.00000000
  -V(xc)+E(xc)   XCENC  =       104.12808993
  PAW double counting   =      2112.17695020    -2118.77213582
  entropy T*S    EENTRO =        -0.00000000
  eigenvalues    EBANDS =      -371.69855437
  atomic energy  EATOM  =      1469.26749561
  Solvation  Ediel_sol  =         0.00000000
  ---------------------------------------------------
  free energy    TOTEN  =       -37.07462540 eV

  energy without entropy =      -37.07462540  energy(sigma->0) =      -37.07462540


--------------------------------------------------------------------------------------------------------




--------------------------------------- Iteration      1(  17)  ---------------------------------------


    POTLOK:  cpu time   23.8614: real time   23.8945
    SETDIJ:  cpu time    0.0600: real time    0.0600
     EDDAV:  cpu time   14.6769: real time   14.7027
       DOS:  cpu time    0.0008: real time    0.0008
    CHARGE:  cpu time    3.4859: real time    3.4909
    MIXING:  cpu time    0.7574: real time    0.7586
    --------------------------------------------
      LOOP:  cpu time   42.8425: real time   42.9076

 eigenvalue-minimisations  :    48
 total energy-change (2. order) :-0.1111796E-02  (-0.7858922E-05)
 number of electron      23.9999999 magnetization 
 augmentation part        2.0459675 magnetization 

 Broyden mixing:
  rms(total) = 0.75400E-03    rms(broyden)= 0.75400E-03
  rms(prec ) = 0.85281E-03
  weight for this iteration     100.00

 eigenvalues of (default mixing * dielectric matrix)
  average eigenvalue GAMMA=   1.9904
  7.1288  3.8741  2.4671  2.2418  1.5131  0.9128  0.9128  1.1230  1.1230  0.9086
  0.9086  0.7712

 Free energy of the ion-electron system (eV)
  ---------------------------------------------------
  alpha Z        PSCENC =         0.05311416
  Ewald energy   TEWEN  =      1224.20150596
  -Hartree energ DENC   =     -2456.42594793
  -exchange      EXHF   =         0.00000000
  -V(xc)+E(xc)   XCENC  =       104.12660533
  PAW double counting   =      2112.27114761    -2118.86625306
  entropy T*S    EENTRO =        -0.00000000
  eigenvalues    EBANDS =      -371.70340489
  atomic energy  EATOM  =      1469.26749561
  Solvation  Ediel_sol  =         0.00000000
  ---------------------------------------------------
  free energy    TOTEN  =       -37.07573720 eV

  energy without entropy =      -37.07573720  energy(sigma->0) =      -37.07573720


--------------------------------------------------------------------------------------------------------




--------------------------------------- Iteration      1(  18)  ---------------------------------------


    POTLOK:  cpu time   23.8464: real time   23.8793
    SETDIJ:  cpu time    0.0658: real time    0.0658
     EDDAV:  cpu time   14.6809: real time   14.7047
       DOS:  cpu time    0.0035: real time    0.0035
    CHARGE:  cpu time    3.4624: real time    3.4674
    MIXING:  cpu time    0.7678: real time    0.7692
    --------------------------------------------
      LOOP:  cpu time   42.8268: real time   42.8899

 eigenvalue-minimisations  :    48
 total energy-change (2. order) :-0.3130098E-03  (-0.6725909E-06)
 number of electron      23.9999999 magnetization 
 augmentation part        2.0459668 magnetization 

 Broyden mixing:
  rms(total) = 0.41056E-03    rms(broyden)= 0.41056E-03
  rms(prec ) = 0.49520E-03
  weight for this iteration     100.00

 eigenvalues of (default mixing * dielectric matrix)
  average eigenvalue GAMMA=   2.1770
  8.2327  4.5264  3.0576  2.4538  1.9583  1.5727  0.9075  0.9075  1.0432  1.0432
  0.9108  0.9108  0.7769

 Free energy of the ion-electron system (eV)
  ---------------------------------------------------
  alpha Z        PSCENC =         0.05311416
  Ewald energy   TEWEN  =      1224.20150596
  -Hartree energ DENC   =     -2456.42352040
  -exchange      EXHF   =         0.00000000
  -V(xc)+E(xc)   XCENC  =       104.12617066
  PAW double counting   =      2112.17907748    -2118.77436461
  entropy T*S    EENTRO =        -0.00000000
  eigenvalues    EBANDS =      -371.70552907
  atomic energy  EATOM  =      1469.26749561
  Solvation  Ediel_sol  =         0.00000000
  ---------------------------------------------------
  free energy    TOTEN  =       -37.07605021 eV

  energy without entropy =      -37.07605021  energy(sigma->0) =      -37.07605021


--------------------------------------------------------------------------------------------------------




--------------------------------------- Iteration      1(  19)  ---------------------------------------


    POTLOK:  cpu time   23.7908: real time   23.8229
    SETDIJ:  cpu time    0.0521: real time    0.0521
     EDDAV:  cpu time   12.8733: real time   12.8940
       DOS:  cpu time    0.0002: real time    0.0002
    CHARGE:  cpu time    3.4571: real time    3.4620
    MIXING:  cpu time    0.8700: real time    0.8714
    --------------------------------------------
      LOOP:  cpu time   41.0436: real time   41.1026

 eigenvalue-minimisations  :    40
 total energy-change (2. order) :-0.4295274E-03  (-0.1444534E-05)
 number of electron      23.9999999 magnetization 
 augmentation part        2.0460076 magnetization 

 Broyden mixing:
  rms(total) = 0.21386E-03    rms(broyden)= 0.21386E-03
  rms(prec ) = 0.24513E-03
  weight for this iteration     100.00

 eigenvalues of (default mixing * dielectric matrix)
  average eigenvalue GAMMA=   2.1452
  8.4238  4.8139  3.1181  2.4485  2.0630  1.3474  1.3474  0.9090  0.9090  0.7831
  1.0408  1.0134  0.9079  0.9079

 Free energy of the ion-electron system (eV)
  ---------------------------------------------------
  alpha Z        PSCENC =         0.05311416
  Ewald energy   TEWEN  =      1224.20150596
  -Hartree energ DENC   =     -2456.42067983
  -exchange      EXHF   =         0.00000000
  -V(xc)+E(xc)   XCENC  =       104.12565575
  PAW double counting   =      2112.01666009    -2118.61228590
  entropy T*S    EENTRO =        -0.00000000
  eigenvalues    EBANDS =      -371.70794558
  atomic energy  EATOM  =      1469.26749561
  Solvation  Ediel_sol  =         0.00000000
  ---------------------------------------------------
  free energy    TOTEN  =       -37.07647974 eV

  energy without entropy =      -37.07647974  energy(sigma->0) =      -37.07647974


--------------------------------------------------------------------------------------------------------




--------------------------------------- Iteration      1(  20)  ---------------------------------------


    POTLOK:  cpu time   23.8034: real time   23.8361
    SETDIJ:  cpu time    0.0645: real time    0.0645
     EDDAV:  cpu time   14.6457: real time   14.6691
       DOS:  cpu time    0.0032: real time    0.0032
    CHARGE:  cpu time    3.5210: real time    3.5262
    MIXING:  cpu time    0.8700: real time    0.8714
    --------------------------------------------
      LOOP:  cpu time   42.9078: real time   42.9704

 eigenvalue-minimisations  :    48
 total energy-change (2. order) :-0.8959394E-04  (-0.6367027E-07)
 number of electron      23.9999999 magnetization 
 augmentation part        2.0460045 magnetization 

 Broyden mixing:
  rms(total) = 0.13388E-03    rms(broyden)= 0.13388E-03
  rms(prec ) = 0.15754E-03
  weight for this iteration     100.00

 eigenvalues of (default mixing * dielectric matrix)
  average eigenvalue GAMMA=   2.2710
  8.8419  5.4338  3.4639  2.8753  2.4179  1.9778  1.5072  0.9067  0.9067  1.0894
  1.0894  0.7810  0.9496  0.9122  0.9122

 Free energy of the ion-electron system (eV)
  ---------------------------------------------------
  alpha Z        PSCENC =         0.05311416
  Ewald energy   TEWEN  =      1224.20150596
  -Hartree energ DENC   =     -2456.41982867
  -exchange      EXHF   =         0.00000000
  -V(xc)+E(xc)   XCENC  =       104.12553583
  PAW double counting   =      2112.04188849    -2118.63743990
  entropy T*S    EENTRO =        -0.00000000
  eigenvalues    EBANDS =      -371.70884082
  atomic energy  EATOM  =      1469.26749561
  Solvation  Ediel_sol  =         0.00000000
  ---------------------------------------------------
  free energy    TOTEN  =       -37.07656933 eV

  energy without entropy =      -37.07656933  energy(sigma->0) =      -37.07656933


--------------------------------------------------------------------------------------------------------




--------------------------------------- Iteration      1(  21)  ---------------------------------------


    POTLOK:  cpu time   23.7405: real time   23.7724
    SETDIJ:  cpu time    0.0603: real time    0.0604
     EDDAV:  cpu time   12.8936: real time   12.9145
       DOS:  cpu time    0.0016: real time    0.0016
    CHARGE:  cpu time    3.4767: real time    3.4817
    MIXING:  cpu time    0.9047: real time    0.9062
    --------------------------------------------
      LOOP:  cpu time   41.0773: real time   41.1368

 eigenvalue-minimisations  :    40
 total energy-change (2. order) :-0.1102325E-03  (-0.1383911E-06)
 number of electron      23.9999999 magnetization 
 augmentation part        2.0459888 magnetization 

 Broyden mixing:
  rms(total) = 0.68880E-04    rms(broyden)= 0.68880E-04
  rms(prec ) = 0.77135E-04
  weight for this iteration     100.00

 eigenvalues of (default mixing * dielectric matrix)
  average eigenvalue GAMMA=   2.2470
  8.9783  5.7578  3.8323  2.7791  2.4770  1.9172  1.5205  1.1298  1.1298  0.9058
  0.9058  0.9984  0.9984  0.7787  0.9215  0.9215

 Free energy of the ion-electron system (eV)
  ---------------------------------------------------
  alpha Z        PSCENC =         0.05311416
  Ewald energy   TEWEN  =      1224.20150596
  -Hartree energ DENC   =     -2456.41854006
  -exchange      EXHF   =         0.00000000
  -V(xc)+E(xc)   XCENC  =       104.12537322
  PAW double counting   =      2112.07405044    -2118.66944783
  entropy T*S    EENTRO =        -0.00000000
  eigenvalues    EBANDS =      -371.71023107
  atomic energy  EATOM  =      1469.26749561
  Solvation  Ediel_sol  =         0.00000000
  ---------------------------------------------------
  free energy    TOTEN  =       -37.07667956 eV

  energy without entropy =      -37.07667956  energy(sigma->0) =      -37.07667956


--------------------------------------------------------------------------------------------------------




--------------------------------------- Iteration      1(  22)  ---------------------------------------


    POTLOK:  cpu time   23.6852: real time   23.7175
    SETDIJ:  cpu time    0.0615: real time    0.0615
     EDDAV:  cpu time   12.9106: real time   12.9314
       DOS:  cpu time    0.0002: real time    0.0002
    CHARGE:  cpu time    3.4484: real time    3.4532
    MIXING:  cpu time    1.0557: real time    1.0574
    --------------------------------------------
      LOOP:  cpu time   41.1616: real time   41.2213

 eigenvalue-minimisations  :    40
 total energy-change (2. order) :-0.1938691E-04  (-0.9881097E-08)
 number of electron      23.9999999 magnetization 
 augmentation part        2.0459881 magnetization 

 Broyden mixing:
  rms(total) = 0.43570E-04    rms(broyden)= 0.43570E-04
  rms(prec ) = 0.49957E-04
  weight for this iteration     100.00

 eigenvalues of (default mixing * dielectric matrix)
  average eigenvalue GAMMA=   2.3049
  9.2615  6.0935  4.1889  2.8878  2.4419  2.0679  2.0679  1.5533  0.9064  0.9064
  1.1152  1.1152  0.7796  0.9815  0.9815  0.9171  0.9171

 Free energy of the ion-electron system (eV)
  ---------------------------------------------------
  alpha Z        PSCENC =         0.05311416
  Ewald energy   TEWEN  =      1224.20150596
  -Hartree energ DENC   =     -2456.41990998
  -exchange      EXHF   =         0.00000000
  -V(xc)+E(xc)   XCENC  =       104.12543256
  PAW double counting   =      2112.07888590    -2118.67431487
  entropy T*S    EENTRO =        -0.00000000
  eigenvalues    EBANDS =      -371.70890831
  atomic energy  EATOM  =      1469.26749561
  Solvation  Ediel_sol  =         0.00000000
  ---------------------------------------------------
  free energy    TOTEN  =       -37.07669895 eV

  energy without entropy =      -37.07669895  energy(sigma->0) =      -37.07669895


--------------------------------------------------------------------------------------------------------




--------------------------------------- Iteration      1(  23)  ---------------------------------------


    POTLOK:  cpu time   23.6610: real time   23.6936
    SETDIJ:  cpu time    0.0510: real time    0.0510
     EDDAV:  cpu time    9.2580: real time    9.2761
       DOS:  cpu time    0.0021: real time    0.0021
    CHARGE:  cpu time    3.4235: real time    3.4285
    MIXING:  cpu time    1.1402: real time    1.1418
    --------------------------------------------
      LOOP:  cpu time   37.5358: real time   37.5930

 eigenvalue-minimisations  :    24
 total energy-change (2. order) :-0.2255591E-04  (-0.1165846E-07)
 number of electron      23.9999999 magnetization 
 augmentation part        2.0459918 magnetization 

 Broyden mixing:
  rms(total) = 0.17881E-04    rms(broyden)= 0.17881E-04
  rms(prec ) = 0.21674E-04
  weight for this iteration     100.00

 eigenvalues of (default mixing * dielectric matrix)
  average eigenvalue GAMMA=   2.3059
  9.4013  6.3263  4.4588  3.1074  2.4200  2.4200  1.7636  1.5602  1.2851  1.2851
  0.9065  0.9065  0.7797  1.0389  1.0389  0.9196  0.9196  0.9679

 Free energy of the ion-electron system (eV)
  ---------------------------------------------------
  alpha Z        PSCENC =         0.05311416
  Ewald energy   TEWEN  =      1224.20150596
  -Hartree energ DENC   =     -2456.42019274
  -exchange      EXHF   =         0.00000000
  -V(xc)+E(xc)   XCENC  =       104.12541672
  PAW double counting   =      2112.06910761    -2118.66456987
  entropy T*S    EENTRO =        -0.00000000
  eigenvalues    EBANDS =      -371.70859896
  atomic energy  EATOM  =      1469.26749561
  Solvation  Ediel_sol  =         0.00000000
  ---------------------------------------------------
  free energy    TOTEN  =       -37.07672151 eV

  energy without entropy =      -37.07672151  energy(sigma->0) =      -37.07672151


--------------------------------------------------------------------------------------------------------




--------------------------------------- Iteration      1(  24)  ---------------------------------------


    POTLOK:  cpu time   23.6977: real time   23.7299
    SETDIJ:  cpu time    0.0795: real time    0.0795
     EDDAV:  cpu time   12.9496: real time   12.9703
       DOS:  cpu time    0.0029: real time    0.0029
    CHARGE:  cpu time    3.4197: real time    3.4246
    MIXING:  cpu time    1.2288: real time    1.2306
    --------------------------------------------
      LOOP:  cpu time   41.3782: real time   41.4377

 eigenvalue-minimisations  :    40
 total energy-change (2. order) :-0.7517632E-05  (-0.3775359E-08)
 number of electron      23.9999999 magnetization 
 augmentation part        2.0459923 magnetization 

 Broyden mixing:
  rms(total) = 0.99410E-05    rms(broyden)= 0.99410E-05
  rms(prec ) = 0.12515E-04
  weight for this iteration     100.00

 eigenvalues of (default mixing * dielectric matrix)
  average eigenvalue GAMMA=   2.3470
  9.4836  6.7451  4.7796  3.4019  2.7353  2.4111  1.8454  1.8454  1.4197  1.4197
  0.9065  0.9065  0.7796  1.0700  1.0700  0.9414  0.9414  0.9458  0.9458

 Free energy of the ion-electron system (eV)
  ---------------------------------------------------
  alpha Z        PSCENC =         0.05311416
  Ewald energy   TEWEN  =      1224.20150596
  -Hartree energ DENC   =     -2456.41996445
  -exchange      EXHF   =         0.00000000
  -V(xc)+E(xc)   XCENC  =       104.12539400
  PAW double counting   =      2112.06947255    -2118.66492197
  entropy T*S    EENTRO =        -0.00000000
  eigenvalues    EBANDS =      -371.70882490
  atomic energy  EATOM  =      1469.26749561
  Solvation  Ediel_sol  =         0.00000000
  ---------------------------------------------------
  free energy    TOTEN  =       -37.07672902 eV

  energy without entropy =      -37.07672902  energy(sigma->0) =      -37.07672902


--------------------------------------------------------------------------------------------------------




--------------------------------------- Iteration      1(  25)  ---------------------------------------


    POTLOK:  cpu time   23.7137: real time   23.7462
    SETDIJ:  cpu time    0.0522: real time    0.0522
     EDDAV:  cpu time    9.2653: real time    9.2801
       DOS:  cpu time    0.0038: real time    0.0038
    CHARGE:  cpu time    3.4397: real time    3.4447
    MIXING:  cpu time    1.2578: real time    1.2597
    --------------------------------------------
      LOOP:  cpu time   37.7325: real time   37.7867

 eigenvalue-minimisations  :    24
 total energy-change (2. order) :-0.5110206E-05  (-0.2551220E-08)
 number of electron      23.9999999 magnetization 
 augmentation part        2.0459916 magnetization 

 Broyden mixing:
  rms(total) = 0.49429E-05    rms(broyden)= 0.49429E-05
  rms(prec ) = 0.63190E-05
  weight for this iteration     100.00

 eigenvalues of (default mixing * dielectric matrix)
  average eigenvalue GAMMA=   2.3978
  9.5714  7.1009  5.1381  3.9276  2.8495  2.4610  2.1959  1.6483  1.6483  1.6843
  0.9065  0.9065  1.2183  0.7796  1.0716  1.0716  0.9588  0.9588  0.9293  0.9293

 Free energy of the ion-electron system (eV)
  ---------------------------------------------------
  alpha Z        PSCENC =         0.05311416
  Ewald energy   TEWEN  =      1224.20150596
  -Hartree energ DENC   =     -2456.42001345
  -exchange      EXHF   =         0.00000000
  -V(xc)+E(xc)   XCENC  =       104.12539406
  PAW double counting   =      2112.07021513    -2118.66566411
  entropy T*S    EENTRO =        -0.00000000
  eigenvalues    EBANDS =      -371.70878151
  atomic energy  EATOM  =      1469.26749561
  Solvation  Ediel_sol  =         0.00000000
  ---------------------------------------------------
  free energy    TOTEN  =       -37.07673414 eV

  energy without entropy =      -37.07673414  energy(sigma->0) =      -37.07673414


--------------------------------------------------------------------------------------------------------




--------------------------------------- Iteration      1(  26)  ---------------------------------------


    POTLOK:  cpu time   23.7169: real time   23.7492
    SETDIJ:  cpu time    0.0565: real time    0.0565
     EDDAV:  cpu time   12.9984: real time   13.0195
       DOS:  cpu time    0.0024: real time    0.0024
    CHARGE:  cpu time    3.5281: real time    3.5331
    MIXING:  cpu time    1.2858: real time    1.2877
    --------------------------------------------
      LOOP:  cpu time   41.5881: real time   41.6484

 eigenvalue-minimisations  :    40
 total energy-change (2. order) :-0.2191550E-05  (-0.1697970E-08)
 number of electron      23.9999999 magnetization 
 augmentation part        2.0459915 magnetization 

 Broyden mixing:
  rms(total) = 0.23478E-05    rms(broyden)= 0.23478E-05
  rms(prec ) = 0.30965E-05
  weight for this iteration     100.00

 eigenvalues of (default mixing * dielectric matrix)
  average eigenvalue GAMMA=   2.4181
  9.6147  7.3605  5.4194  4.0453  3.1072  2.5916  2.3849  1.8567  1.8567  1.4845
  1.4845  0.9065  0.9065  0.7796  1.0920  1.0920  0.9710  0.9710  0.9278  0.9278
  0.9998

 Free energy of the ion-electron system (eV)
  ---------------------------------------------------
  alpha Z        PSCENC =         0.05311416
  Ewald energy   TEWEN  =      1224.20150596
  -Hartree energ DENC   =     -2456.41997612
  -exchange      EXHF   =         0.00000000
  -V(xc)+E(xc)   XCENC  =       104.12539168
  PAW double counting   =      2112.06874646    -2118.66420024
  entropy T*S    EENTRO =        -0.00000000
  eigenvalues    EBANDS =      -371.70881384
  atomic energy  EATOM  =      1469.26749561
  Solvation  Ediel_sol  =         0.00000000
  ---------------------------------------------------
  free energy    TOTEN  =       -37.07673633 eV

  energy without entropy =      -37.07673633  energy(sigma->0) =      -37.07673633


--------------------------------------------------------------------------------------------------------




--------------------------------------- Iteration      1(  27)  ---------------------------------------


    POTLOK:  cpu time   23.7268: real time   23.7592
    SETDIJ:  cpu time    0.0617: real time    0.0617
     EDDAV:  cpu time   12.8722: real time   12.8926
       DOS:  cpu time    0.0030: real time    0.0030
    CHARGE:  cpu time    3.5228: real time    3.5278
    MIXING:  cpu time    1.4237: real time    1.4259
    --------------------------------------------
      LOOP:  cpu time   41.6102: real time   41.6703

 eigenvalue-minimisations  :    40
 total energy-change (2. order) :-0.9198147E-06  (-0.8658478E-09)
 number of electron      23.9999999 magnetization 
 augmentation part        2.0459917 magnetization 

 Broyden mixing:
  rms(total) = 0.17159E-05    rms(broyden)= 0.17159E-05
  rms(prec ) = 0.20479E-05
  weight for this iteration     100.00

 eigenvalues of (default mixing * dielectric matrix)
  average eigenvalue GAMMA=   2.4571
  9.6695  7.6362  5.7385  4.4211  3.3564  2.7920  2.4695  2.1630  1.6795  1.6795
  1.7307  0.9065  0.9065  1.2125  0.7796  1.0747  1.0747  0.9710  0.9710  0.9297
  0.9297  0.9648

 Free energy of the ion-electron system (eV)
  ---------------------------------------------------
  alpha Z        PSCENC =         0.05311416
  Ewald energy   TEWEN  =      1224.20150596
  -Hartree energ DENC   =     -2456.41997898
  -exchange      EXHF   =         0.00000000
  -V(xc)+E(xc)   XCENC  =       104.12539087
  PAW double counting   =      2112.06917187    -2118.66462330
  entropy T*S    EENTRO =        -0.00000000
  eigenvalues    EBANDS =      -371.70881344
  atomic energy  EATOM  =      1469.26749561
  Solvation  Ediel_sol  =         0.00000000
  ---------------------------------------------------
  free energy    TOTEN  =       -37.07673725 eV

  energy without entropy =      -37.07673725  energy(sigma->0) =      -37.07673725


--------------------------------------------------------------------------------------------------------




--------------------------------------- Iteration      1(  28)  ---------------------------------------


    POTLOK:  cpu time   23.6667: real time   23.6991
    SETDIJ:  cpu time    0.0492: real time    0.0492
     EDDAV:  cpu time   11.0591: real time   11.0773
       DOS:  cpu time    0.0030: real time    0.0030
    CHARGE:  cpu time    3.5221: real time    3.5272
    MIXING:  cpu time    1.4326: real time    1.4347
    --------------------------------------------
      LOOP:  cpu time   39.7327: real time   39.7906

 eigenvalue-minimisations  :    32
 total energy-change (2. order) :-0.4273052E-06  (-0.7183996E-09)
 number of electron      23.9999999 magnetization 
 augmentation part        2.0459915 magnetization 

 Broyden mixing:
  rms(total) = 0.80673E-06    rms(broyden)= 0.80673E-06
  rms(prec ) = 0.98013E-06
  weight for this iteration     100.00

 eigenvalues of (default mixing * dielectric matrix)
  average eigenvalue GAMMA=   2.4615
  9.7078  7.8089  6.0293  4.6276  3.6286  2.8233  2.3442  2.3442  1.8537  1.8537
  1.4999  1.4999  0.9065  0.9065  1.1071  1.1071  0.7796  0.9900  0.9900  0.9334
  0.9334  0.9699  0.9699

 Free energy of the ion-electron system (eV)
  ---------------------------------------------------
  alpha Z        PSCENC =         0.05311416
  Ewald energy   TEWEN  =      1224.20150596
  -Hartree energ DENC   =     -2456.41996244
  -exchange      EXHF   =         0.00000000
  -V(xc)+E(xc)   XCENC  =       104.12539048
  PAW double counting   =      2112.06989650    -2118.66534645
  entropy T*S    EENTRO =        -0.00000000
  eigenvalues    EBANDS =      -371.70883150
  atomic energy  EATOM  =      1469.26749561
  Solvation  Ediel_sol  =         0.00000000
  ---------------------------------------------------
  free energy    TOTEN  =       -37.07673767 eV

  energy without entropy =      -37.07673767  energy(sigma->0) =      -37.07673767


--------------------------------------------------------------------------------------------------------




--------------------------------------- Iteration      1(  29)  ---------------------------------------


    POTLOK:  cpu time   23.6168: real time   23.6491
    SETDIJ:  cpu time    0.0580: real time    0.0580
     EDDAV:  cpu time   12.9754: real time   12.9962
       DOS:  cpu time    0.0013: real time    0.0013
    CHARGE:  cpu time    3.4361: real time    3.4408
    MIXING:  cpu time    1.4015: real time    1.4037
    --------------------------------------------
      LOOP:  cpu time   41.4891: real time   41.5492

 eigenvalue-minimisations  :    40
 total energy-change (2. order) :-0.1555318E-06  (-0.5884111E-09)
 number of electron      23.9999999 magnetization 
 augmentation part        2.0459915 magnetization 

 Broyden mixing:
  rms(total) = 0.41728E-06    rms(broyden)= 0.41728E-06
  rms(prec ) = 0.53636E-06
  weight for this iteration     100.00

 eigenvalues of (default mixing * dielectric matrix)
  average eigenvalue GAMMA=   2.4994
  9.7334  8.0401  6.3068  4.9069  3.8839  3.0576  2.6796  2.4444  2.0706  1.6849
  1.6849  1.7157  0.9065  0.9065  1.2425  0.7796  1.0706  1.0706  0.9634  0.9634
  0.9269  0.9269  1.0473  0.9715

 Free energy of the ion-electron system (eV)
  ---------------------------------------------------
  alpha Z        PSCENC =         0.05311416
  Ewald energy   TEWEN  =      1224.20150596
  -Hartree energ DENC   =     -2456.41994667
  -exchange      EXHF   =         0.00000000
  -V(xc)+E(xc)   XCENC  =       104.12538973
  PAW double counting   =      2112.06946388    -2118.66491465
  entropy T*S    EENTRO =        -0.00000000
  eigenvalues    EBANDS =      -371.70884585
  atomic energy  EATOM  =      1469.26749561
  Solvation  Ediel_sol  =         0.00000000
  ---------------------------------------------------
  free energy    TOTEN  =       -37.07673783 eV

  energy without entropy =      -37.07673783  energy(sigma->0) =      -37.07673783


--------------------------------------------------------------------------------------------------------




--------------------------------------- Iteration      1(  30)  ---------------------------------------


    POTLOK:  cpu time   23.6482: real time   23.6808
    SETDIJ:  cpu time    0.0629: real time    0.0629
     EDDAV:  cpu time    9.2961: real time    9.3113
       DOS:  cpu time    0.0052: real time    0.0052
    CHARGE:  cpu time    3.3720: real time    3.3769
    MIXING:  cpu time    1.5569: real time    1.5592
    --------------------------------------------
      LOOP:  cpu time   37.9412: real time   37.9962

 eigenvalue-minimisations  :    24
 total energy-change (2. order) :-0.1068770E-06  (-0.5250893E-09)
 number of electron      23.9999999 magnetization 
 augmentation part        2.0459916 magnetization 

 Broyden mixing:
  rms(total) = 0.40930E-06    rms(broyden)= 0.40930E-06
  rms(prec ) = 0.44735E-06
  weight for this iteration     100.00

 eigenvalues of (default mixing * dielectric matrix)
  average eigenvalue GAMMA=   2.4682
  9.7350  8.1840  6.4293  5.0441  3.9859  3.1174  2.6701  2.4345  2.1051  1.7520
  1.7520  1.4799  1.4799  0.9065  0.9065  0.7796  1.0875  1.0875  1.0773  0.9831
  0.9831  0.9250  0.9250  0.9371  0.9371

 Free energy of the ion-electron system (eV)
  ---------------------------------------------------
  alpha Z        PSCENC =         0.05311416
  Ewald energy   TEWEN  =      1224.20150596
  -Hartree energ DENC   =     -2456.41993325
  -exchange      EXHF   =         0.00000000
  -V(xc)+E(xc)   XCENC  =       104.12538912
  PAW double counting   =      2112.06940660    -2118.66485773
  entropy T*S    EENTRO =        -0.00000000
  eigenvalues    EBANDS =      -371.70885842
  atomic energy  EATOM  =      1469.26749561
  Solvation  Ediel_sol  =         0.00000000
  ---------------------------------------------------
  free energy    TOTEN  =       -37.07673794 eV

  energy without entropy =      -37.07673794  energy(sigma->0) =      -37.07673794


--------------------------------------------------------------------------------------------------------




--------------------------------------- Iteration      1(  31)  ---------------------------------------


    POTLOK:  cpu time   23.7709: real time   23.8031
    SETDIJ:  cpu time    0.0540: real time    0.0540
     EDDAV:  cpu time   12.9423: real time   12.9640
       DOS:  cpu time    0.0034: real time    0.0034
    --------------------------------------------
      LOOP:  cpu time   36.7705: real time   36.8245

 eigenvalue-minimisations  :    40
 total energy-change (2. order) :-0.2423803E-07  (-0.4977103E-09)
 number of electron      23.9999999 magnetization 
 augmentation part        2.0459916 magnetization 

 Free energy of the ion-electron system (eV)
  ---------------------------------------------------
  alpha Z        PSCENC =         0.05311416
  Ewald energy   TEWEN  =      1224.20150596
  -Hartree energ DENC   =     -2456.41993725
  -exchange      EXHF   =         0.00000000
  -V(xc)+E(xc)   XCENC  =       104.12538936
  PAW double counting   =      2112.06945880    -2118.66490963
  entropy T*S    EENTRO =        -0.00000000
  eigenvalues    EBANDS =      -371.70885498
  atomic energy  EATOM  =      1469.26749561
  Solvation  Ediel_sol  =         0.00000000
  ---------------------------------------------------
  free energy    TOTEN  =       -37.07673796 eV

  energy without entropy =      -37.07673796  energy(sigma->0) =      -37.07673796


--------------------------------------------------------------------------------------------------------




 average (electrostatic) potential at core
  the test charge radii are     0.5201  0.6991  0.7215
  (the norm of the test charge is              1.0000)
       1 -44.2037       2 -44.0920       3 -64.4015       4 -83.5303       5 -83.3157
       6 -79.8216
 
 
 
 E-fermi :  -6.5636     XC(G=0):  -0.0336     alpha+bet : -0.0089


 k-point     1 :       0.0000    0.0000    0.0000
  band No.  band energies     occupation 
      1     -29.9364      2.00000
      2     -28.9228      2.00000
      3     -24.7528      2.00000
      4     -15.2079      2.00000
      5     -13.6064      2.00000
      6     -13.3738      2.00000
      7     -13.3676      2.00000
      8     -11.9440      2.00000
      9      -9.7981      2.00000
     10      -9.7915      2.00000
     11      -8.5322      2.00000
     12      -6.6211      2.00000
     13      -1.4055      0.00000
     14      -1.2101      0.00000
     15      -1.1958      0.00000
     16      -0.2346      0.00000


--------------------------------------------------------------------------------------------------------


 soft charge-density along one line, spin component            1
         0         1         2         3         4         5         6         7         8         9
 total charge-density along one line
 
 pseudopotential strength for first ion, spin component:            1
 -2.372  -4.096   0.005  -0.016   0.001
 -4.096  -6.985   0.009  -0.031   0.001
  0.005   0.009  -0.323  -0.008   0.000
 -0.016  -0.031  -0.008  -0.296  -0.001
  0.001   0.001   0.000  -0.001  -0.326
 total augmentation occupancy for first ion, spin component:            1
  3.791  -0.789  -0.192   0.721  -0.027
 -0.789   0.219   0.034  -0.146   0.006
 -0.192   0.034   0.037  -0.028   0.001
  0.721  -0.146  -0.028   0.141  -0.004
 -0.027   0.006   0.001  -0.004   0.044


------------------------ aborting loop because EDIFF is reached ----------------------------------------



 DIPCOR: dipole corrections for dipol
 direction  1 min pos   392, direction  2 min pos   458, direction  3 min pos   518,
 dipolmoment          -0.010940      0.440940      0.287864 electrons x Angstroem
 Tr[quadrupol]        13.163465

 energy correction for charged system         0.000000 eV
 dipol+quadrupol energy correction            0.000195 eV
 added-field ion interaction          0.000000 eV  (added to PSCEN)

 
  *************** adding dipol energy to TOTEN NOW **************** 
    CHARGE:  cpu time    3.4282: real time    3.4331
    FORLOC:  cpu time    1.2243: real time    1.2257
    FORNL :  cpu time    0.4244: real time    0.4250
    STRESS:  cpu time    6.1000: real time    6.1087
    FORCOR:  cpu time   22.9000: real time   22.9306
    FORHAR:  cpu time    6.9306: real time    6.9404
    MIXING:  cpu time    1.5077: real time    1.5100
    OFIELD:  cpu time    0.0000: real time    0.0000

  FORCE on cell =-STRESS in cart. coord.  units (eV):
  Direction    XX          YY          ZZ          XY          YZ          ZX
  --------------------------------------------------------------------------------------
  Alpha Z     0.05311     0.05311     0.05311
  Ewald    -112.66790  1357.44307   -20.57351     1.54098   -40.54631    -3.50224
  Hartree   517.24226  1404.69192   534.48575     0.54222   -14.26694    -0.65502
  E(xc)    -111.99683  -109.14488  -111.62713     0.00366    -0.09636    -0.01407
  Local    -747.79937 -3000.35189  -830.43887    -1.79660    47.27205     3.14110
  n-local   -79.68451   -85.89243   -79.64960     0.01685    -0.44102    -0.00133
  augment    21.49784    16.81187    19.72161    -0.01878     0.49174     0.06760
  Kinetic   513.35295   420.56883   488.42072    -0.27911     7.34398     0.94892
  Fock        0.00000     0.00000     0.00000     0.00000     0.00000     0.00000
  -------------------------------------------------------------------------------------
  Total      -0.00245     4.17961     0.39207     0.00923    -0.24287    -0.01503
  in kB      -0.00009     0.15619     0.01465     0.00034    -0.00908    -0.00056
  external pressure =        0.06 kB  Pullay stress =        0.00 kB


 VOLUME and BASIS-vectors are now :
 -----------------------------------------------------------------------------
  energy-cutoff  :     1600.00
  volume of cell :    42875.00
      direct lattice vectors                 reciprocal lattice vectors
    35.000000000  0.000000000  0.000000000     0.028571429  0.000000000  0.000000000
     0.000000000 35.000000000  0.000000000     0.000000000  0.028571429  0.000000000
     0.000000000  0.000000000 35.000000000     0.000000000  0.000000000  0.028571429

  length of vectors
    35.000000000 35.000000000 35.000000000     0.028571429  0.028571429  0.028571429


 FORCES acting on ions
    electron-ion (+dipol)            ewald-force                    non-local-force                 convergence-correction
 -----------------------------------------------------------------------------------------------
   -.343E+01 -.410E+02 0.903E+02   0.376E+01 0.436E+02 -.989E+02   -.313E+00 -.234E+01 0.824E+01   0.457E-08 -.124E-07 -.151E-06
   0.134E+00 0.430E+02 -.352E+01   -.146E+00 -.517E+02 0.385E+01   0.102E-01 0.861E+01 -.270E+00   -.210E-08 -.956E-07 0.317E-07
   0.280E-01 0.345E+02 -.736E+00   -.300E-01 -.355E+02 0.789E+00   0.956E-03 0.394E+00 -.251E-01   -.254E-07 0.603E-06 0.400E-06
   0.110E+00 -.164E+03 -.289E+01   -.119E+00 0.225E+03 0.314E+01   0.902E-02 -.610E+02 -.237E+00   -.993E-08 -.324E-06 0.308E-06
   0.194E-01 0.312E+03 -.511E+00   -.212E-01 -.377E+03 0.559E+00   0.216E-02 0.650E+02 -.570E-01   -.576E-07 0.317E-05 0.674E-06
   0.196E+01 -.166E+03 -.516E+02   -.344E+01 0.196E+03 0.906E+02   0.147E+01 -.282E+02 -.386E+02   0.182E-07 -.626E-06 -.247E-06
 -----------------------------------------------------------------------------------------------
   -.118E+01 0.176E+02 0.310E+02   -.444E-15 0.000E+00 0.000E+00   0.118E+01 -.176E+02 -.310E+02   -.722E-07 0.271E-05 0.102E-05
 
 
 POSITION                                       TOTAL-FORCE (eV/Angst)
 -----------------------------------------------------------------------------------
      0.03541      4.05416     34.06830         0.016133      0.260797     -0.424455
      0.00000      2.85848      0.00000        -0.002296     -0.013897      0.060422
      0.00000      0.08826      0.00000        -0.001032     -0.593851      0.027140
      0.00000      1.25848      0.00000        -0.000398     -0.311815      0.010469
      0.00000     33.91804      0.00000         0.000330     -0.223233     -0.008696
      0.00000      3.81985      0.00000        -0.012737      0.881998      0.335120
 -----------------------------------------------------------------------------------
    total drift:                                0.000002     -0.000034     -0.000016


--------------------------------------------------------------------------------------------------------



  FREE ENERGIE OF THE ION-ELECTRON SYSTEM (eV)
  ---------------------------------------------------
  free  energy   TOTEN  =       -37.07654283 eV

  energy  without entropy=      -37.07654283  energy(sigma->0) =      -37.07654283
 


--------------------------------------------------------------------------------------------------------


    POTLOK:  cpu time   23.9163: real time   23.9486


--------------------------------------------------------------------------------------------------------


 writing wavefunctions
     LOOP+:  cpu time 1995.1765: real time 2002.6769
    4ORBIT:  cpu time    0.0000: real time    0.0000

 total amount of memory used by VASP MPI-rank0  3707962. kBytes
=======================================================================

   base      :      30000. kBytes
   nonl-proj :     112154. kBytes
   fftplans  :    1215227. kBytes
   grid      :    2325657. kBytes
   one-center:          1. kBytes
   wavefun   :      24923. kBytes
 
  
  
 General timing and accounting informations for this job:
 ========================================================
  
                  Total CPU time used (sec):     2837.066
                            User time (sec):     2732.899
                          System time (sec):      104.166
                         Elapsed time (sec):     2876.787
  
                   Maximum memory used (kb):     4551428.
                   Average memory used (kb):           0.
  
                          Minor page faults:     64135089
                          Major page faults:         4648
                 Voluntary context switches:       137393
