 vasp.6.1.2 22Jul20 (build Jan  6 2021 09:55:43) gamma-only                      
 executed on             LinuxPGI date 2021.03.02  02:31:12
 running on   32 total cores
 distrk:  each k-point on   32 cores,    1 groups
 distr:  one band on NCORE=   8 cores,    4 groups


--------------------------------------------------------------------------------------------------------


 INCAR:
 POTCAR:    PAW_PBE H 15Jun2001                   
 POTCAR:    PAW_PBE C 08Apr2002                   
 POTCAR:    PAW_PBE O 08Apr2002                   
 POTCAR:    PAW_PBE H 15Jun2001                   
   VRHFIN =H: ultrasoft test                                                                        
   LEXCH  = PE                                                                                      
   EATOM  =    12.4884 eV,    0.9179 Ry                                                             
                                                                                                    
   TITEL  = PAW_PBE H 15Jun2001                                                                     
   LULTRA =        F    use ultrasoft PP ?                                                          
   IUNSCR =        0    unscreen: 0-lin 1-nonlin 2-no                                               
   RPACOR =    0.000    partial core radius                                                         
   POMASS =    1.000; ZVAL   =    1.000    mass and valenz                                          
   RCORE  =    1.100    outmost cutoff radius                                                       
   RWIGS  =    0.700; RWIGS  =    0.370    wigner-seitz radius (au A)                               
   ENMAX  =  250.000; ENMIN  =  200.000 eV                                                          
   RCLOC  =    0.701    cutoff for local pot                                                        
   LCOR   =        T    correct aug charges                                                         
   LPAW   =        T    paw PP                                                                      
   EAUG   =  400.000                                                                                
   RMAX   =    1.123    core radius for proj-oper                                                   
   RAUG   =    1.200    factor for augmentation sphere                                              
   RDEP   =    1.112    radius for radial grids                                                     
   RDEPT  =    0.926    core radius for aug-charge                                                  
                                                                                                    
   Atomic configuration                                                                             
    2 entries                                                                                       
     n  l   j            E        occ.                                                              
     1  0  0.50        -6.4927   1.0000                                                             
     2  1  0.50        -3.4015   0.0000                                                             
   Description                                                                                      
     l       E           TYP  RCUT    TYP  RCUT                                                     
     0     -6.4927494     23  1.100                                                                 
     0      6.8029130     23  1.100                                                                 
     1     -4.0817478     23  1.100                                                                 
  local pseudopotential read in
  atomic valenz-charges read in
  non local Contribution for L=            0  read in
    real space projection operators read in
  non local Contribution for L=            0  read in
    real space projection operators read in
  non local Contribution for L=            1  read in
    real space projection operators read in
    PAW grid and wavefunctions read in
 
   number of l-projection  operators is LMAX  =            3
   number of lm-projection operators is LMMAX =            5
 
 POTCAR:    PAW_PBE C 08Apr2002                   
   VRHFIN =C: s2p2                                                                                  
   LEXCH  = PE                                                                                      
   EATOM  =   147.1560 eV,   10.8157 Ry                                                             
                                                                                                    
   TITEL  = PAW_PBE C 08Apr2002                                                                     
   LULTRA =        F    use ultrasoft PP ?                                                          
   IUNSCR =        1    unscreen: 0-lin 1-nonlin 2-no                                               
   RPACOR =    1.200    partial core radius                                                         
   POMASS =   12.011; ZVAL   =    4.000    mass and valenz                                          
   RCORE  =    1.500    outmost cutoff radius                                                       
   RWIGS  =    1.630; RWIGS  =    0.863    wigner-seitz radius (au A)                               
   ENMAX  =  400.000; ENMIN  =  300.000 eV                                                          
   ICORE  =        2    local potential                                                             
   LCOR   =        T    correct aug charges                                                         
   LPAW   =        T    paw PP                                                                      
   EAUG   =  644.873                                                                                
   DEXC   =    0.000                                                                                
   RMAX   =    1.529    core radius for proj-oper                                                   
   RAUG   =    1.300    factor for augmentation sphere                                              
   RDEP   =    1.501    radius for radial grids                                                     
   RDEPT  =    1.300    core radius for aug-charge                                                  
                                                                                                    
   Atomic configuration                                                                             
    4 entries                                                                                       
     n  l   j            E        occ.                                                              
     1  0  0.50      -273.3789   2.0000                                                             
     2  0  0.50       -13.7508   2.0000                                                             
     2  1  0.50        -5.2854   2.0000                                                             
     3  2  1.50        -5.4423   0.0000                                                             
   Description                                                                                      
     l       E           TYP  RCUT    TYP  RCUT                                                     
     0    -13.7508458     23  1.200                                                                 
     0     -8.2022199     23  1.200                                                                 
     1     -5.2854383     23  1.500                                                                 
     1     34.0145650     23  1.500                                                                 
     2     -5.4423304      7  1.500                                                                 
  local pseudopotential read in
  partial core-charges read in
  partial kinetic energy density read in
  atomic valenz-charges read in
  non local Contribution for L=            0  read in
    real space projection operators read in
  non local Contribution for L=            0  read in
    real space projection operators read in
  non local Contribution for L=            1  read in
    real space projection operators read in
  non local Contribution for L=            1  read in
    real space projection operators read in
    PAW grid and wavefunctions read in
 
   number of l-projection  operators is LMAX  =            4
   number of lm-projection operators is LMMAX =            8
 
 POTCAR:    PAW_PBE O 08Apr2002                   
   VRHFIN =O: s2p4                                                                                  
   LEXCH  = PE                                                                                      
   EATOM  =   432.3788 eV,   31.7789 Ry                                                             
                                                                                                    
   TITEL  = PAW_PBE O 08Apr2002                                                                     
   LULTRA =        F    use ultrasoft PP ?                                                          
   IUNSCR =        1    unscreen: 0-lin 1-nonlin 2-no                                               
   RPACOR =    1.200    partial core radius                                                         
   POMASS =   16.000; ZVAL   =    6.000    mass and valenz                                          
   RCORE  =    1.520    outmost cutoff radius                                                       
   RWIGS  =    1.550; RWIGS  =    0.820    wigner-seitz radius (au A)                               
   ENMAX  =  400.000; ENMIN  =  300.000 eV                                                          
   ICORE  =        2    local potential                                                             
   LCOR   =        T    correct aug charges                                                         
   LPAW   =        T    paw PP                                                                      
   EAUG   =  605.392                                                                                
   DEXC   =    0.000                                                                                
   RMAX   =    1.553    core radius for proj-oper                                                   
   RAUG   =    1.300    factor for augmentation sphere                                              
   RDEP   =    1.550    radius for radial grids                                                     
   RDEPT  =    1.329    core radius for aug-charge                                                  
                                                                                                    
   Atomic configuration                                                                             
    4 entries                                                                                       
     n  l   j            E        occ.                                                              
     1  0  0.50      -514.6923   2.0000                                                             
     2  0  0.50       -23.9615   2.0000                                                             
     2  1  0.50        -9.0305   4.0000                                                             
     3  2  1.50        -9.5241   0.0000                                                             
   Description                                                                                      
     l       E           TYP  RCUT    TYP  RCUT                                                     
     0    -23.9615318     23  1.200                                                                 
     0     -9.5240782     23  1.200                                                                 
     1     -9.0304911     23  1.520                                                                 
     1      8.1634956     23  1.520                                                                 
     2     -9.5240782      7  1.500                                                                 
  local pseudopotential read in
  partial core-charges read in
  partial kinetic energy density read in
  kinetic energy density of atom read in
  atomic valenz-charges read in
  non local Contribution for L=            0  read in
    real space projection operators read in
  non local Contribution for L=            0  read in
    real space projection operators read in
  non local Contribution for L=            1  read in
    real space projection operators read in
  non local Contribution for L=            1  read in
    real space projection operators read in
    PAW grid and wavefunctions read in
 
   number of l-projection  operators is LMAX  =            4
   number of lm-projection operators is LMMAX =            8
 
  PAW_PBE H 15Jun2001                   :
 energy of atom  1       EATOM=  -12.4884
 kinetic energy error for atom=    0.0000 (will be added to EATOM!!)
  PAW_PBE C 08Apr2002                   :
 energy of atom  2       EATOM= -147.1560
 kinetic energy error for atom=    0.0002 (will be added to EATOM!!)
  PAW_PBE O 08Apr2002                   :
 energy of atom  3       EATOM= -432.3788
 kinetic energy error for atom=    0.0005 (will be added to EATOM!!)
 
 
 POSCAR:  H  C  O
  positions in cartesian coordinates
  No initial velocities read in
 exchange correlation table for  LEXCH =        8
   RHO(1)=    0.500       N(1)  =     2000
   RHO(2)=  100.500       N(2)  =     4000
 


--------------------------------------------------------------------------------------------------------


 ion  position               nearest neighbor table
   1  0.001  0.130  0.973-   6 0.96
   2  0.000  0.096  0.000-   6 0.96
   3  0.000  0.003  0.000-   4 1.17   5 1.17
   4  0.000  0.036  0.000-   3 1.17
   5  0.000  0.969  0.000-   3 1.17
   6  0.000  0.123  0.000-   2 0.96   1 0.96
 
  LATTYP: Found a simple cubic cell.
 ALAT       =    35.0000000000
  
  Lattice vectors:
  
 A1 = (  35.0000000000,   0.0000000000,   0.0000000000)
 A2 = (   0.0000000000,  35.0000000000,   0.0000000000)
 A3 = (   0.0000000000,   0.0000000000,  35.0000000000)


Analysis of symmetry for initial positions (statically):
=====================================================================
 Subroutine PRICEL returns:
 Original cell was already a primitive cell.
 

 Routine SETGRP: Setting up the symmetry group for a 
 simple cubic supercell.


 Subroutine GETGRP returns: Found  1 space group operations
 (whereof  1 operations were pure point group operations)
 out of a pool of 48 trial point group operations.


The static configuration has the point symmetry C_1 .


Analysis of symmetry for dynamics (positions and initial velocities):
=====================================================================
 Subroutine PRICEL returns:
 Original cell was already a primitive cell.
 

 Routine SETGRP: Setting up the symmetry group for a 
 simple cubic supercell.


 Subroutine GETGRP returns: Found  1 space group operations
 (whereof  1 operations were pure point group operations)
 out of a pool of 48 trial point group operations.


The dynamic configuration has the point symmetry C_1 .


 Subroutine INISYM returns: Found  1 space group operations
 (whereof  1 operations are pure point group operations),
 and found     1 'primitive' translations


----------------------------------------------------------------------------------------

                                     Primitive cell                                     

  volume of cell :   42875.0000

  direct lattice vectors                    reciprocal lattice vectors
    35.000000000  0.000000000  0.000000000     0.028571429  0.000000000  0.000000000
     0.000000000 35.000000000  0.000000000     0.000000000  0.028571429  0.000000000
     0.000000000  0.000000000 35.000000000     0.000000000  0.000000000  0.028571429

  length of vectors
    35.000000000 35.000000000 35.000000000     0.028571429  0.028571429  0.028571429

  position of ions in fractional coordinates (direct lattice)
     0.001011704  0.130118974  0.973379868
     0.000000000  0.095956457  0.000000000
     0.000000000  0.002521600  0.000000000
     0.000000000  0.035956457  0.000000000
     0.000000000  0.969086743  0.000000000
     0.000000000  0.123424171  0.000000000

  ion indices of the primitive-cell ions
   primitive index   ion index
                 1           1
                 2           2
                 3           3
                 4           4
                 5           5
                 6           6

----------------------------------------------------------------------------------------

 
 
 KPOINTS: automatic mesh                          

Automatic generation of k-mesh.
Space group operators:
 irot       det(A)        alpha          n_x          n_y          n_z        tau_x        tau_y        tau_z
    1     1.000000     0.000000     1.000000     0.000000     0.000000     0.000000     0.000000     0.000000
 
 Subroutine IBZKPT returns following result:
 ===========================================
 
 Found      1 irreducible k-points:
 
 Following reciprocal coordinates:
            Coordinates               Weight
  0.000000  0.000000  0.000000      1.000000
 
 Following cartesian coordinates:
            Coordinates               Weight
  0.000000  0.000000  0.000000      1.000000
 


--------------------------------------------------------------------------------------------------------




 Dimension of arrays:
   k-points           NKPTS =      1   k-points in BZ     NKDIM =      1   number of bands    NBANDS=     16
   number of dos      NEDOS =    301   number of ions     NIONS =      6
   non local maximal  LDIM  =      4   non local SUM 2l+1 LMDIM =      8
   total plane-waves  NPLWV = ******
   max r-space proj   IRMAX =      1   max aug-charges    IRDMAX=  33660
   dimension x,y,z NGX =   480 NGY =  480 NGZ =  480
   dimension x,y,z NGXF=   960 NGYF=  960 NGZF=  960
   support grid    NGXF=   960 NGYF=  960 NGZF=  960
   ions per type =               2   1   3
   NGX,Y,Z   is equivalent  to a cutoff of  22.80, 22.80, 22.80 a.u.
   NGXF,Y,Z  is equivalent  to a cutoff of  45.60, 45.60, 45.60 a.u.

 SYSTEM =  C                                       
 POSCAR =   H  C  O                                

 Startparameter for this run:
   NWRITE =      2    write-flag & timer
   PREC   = acc       normal or accurate (medium, high low for compatibility)
   ISTART =      0    job   : 0-new  1-cont  2-samecut
   ICHARG =      2    charge: 1-file 2-atom 10-const
   ISPIN  =      1    spin polarized calculation?
   LNONCOLLINEAR =      F non collinear calculations
   LSORBIT =      F    spin-orbit coupling
   INIWAV =      1    electr: 0-lowe 1-rand  2-diag
   LASPH  =      T    aspherical Exc in radial PAW
   METAGGA=      F    non-selfconsistent MetaGGA calc.

 Electronic Relaxation 1
   ENCUT  = 1600.0 eV 117.60 Ry   10.84 a.u. 114.15114.15114.15*2*pi/ulx,y,z
   ENINI  = 1600.0     initial cutoff
   ENAUG  =  644.9 eV  augmentation charge cutoff
   NELM   =     60;   NELMIN=  2; NELMDL= -5     # of ELM steps 
   EDIFF  = 0.1E-06   stopping-criterion for ELM
   LREAL  =      F    real-space projection
   NLSPLINE    = F    spline interpolate recip. space projectors
   LCOMPAT=      F    compatible to vasp.4.4
   GGA_COMPAT  = T    GGA compatible to vasp.4.4-vasp.4.6
   LMAXPAW     = -100 max onsite density
   LMAXMIX     =    2 max onsite mixed and CHGCAR
   VOSKOWN=      0    Vosko Wilk Nusair interpolation
   ROPT   =    0.00000   0.00000   0.00000
 Ionic relaxation
   EDIFFG = 0.1E-05   stopping-criterion for IOM
   NSW    =      0    number of steps for IOM
   NBLOCK =      1;   KBLOCK =      1    inner block; outer block 
   IBRION =     -1    ionic relax: 0-MD 1-quasi-New 2-CG
   NFREE  =      0    steps in history (QN), initial steepest desc. (CG)
   ISIF   =      2    stress and relaxation
   IWAVPR =     10    prediction:  0-non 1-charg 2-wave 3-comb
   ISYM   =      2    0-nonsym 1-usesym 2-fastsym
   LCORR  =      T    Harris-Foulkes like correction to forces

   POTIM  = 0.5000    time-step for ionic-motion
   TEIN   =    0.0    initial temperature
   TEBEG  =    0.0;   TEEND  =   0.0 temperature during run
   SMASS  =  -3.00    Nose mass-parameter (am)
   estimated Nose-frequenzy (Omega)   =  0.10E-29 period in steps = 0.13E+47 mass=  -0.280E-25a.u.
   SCALEE = 1.0000    scale energy and forces
   NPACO  =    256;   APACO  = 16.0  distance and # of slots for P.C.
   PSTRESS=    0.0 pullay stress

  Mass of Ions in am
   POMASS =   1.00 12.01 16.00
  Ionic Valenz
   ZVAL   =   1.00  4.00  6.00
  Atomic Wigner-Seitz radii
   RWIGS  =  -1.00 -1.00 -1.00
  virtual crystal weights 
   VCA    =   1.00  1.00  1.00
   NELECT =      24.0000    total number of electrons
   NUPDOWN=      -1.0000    fix difference up-down

 DOS related values:
   EMIN   =  10.00;   EMAX   =-10.00  energy-range for DOS
   EFERMI =   0.00
   ISMEAR =     0;   SIGMA  =   0.01  broadening in eV -4-tet -1-fermi 0-gaus

 Electronic relaxation 2 (details)
   IALGO  =     38    algorithm
   LDIAG  =      T    sub-space diagonalisation (order eigenvalues)
   LSUBROT=      F    optimize rotation matrix (better conditioning)
   TURBO    =      0    0=normal 1=particle mesh
   IRESTART =      0    0=no restart 2=restart with 2 vectors
   NREBOOT  =      0    no. of reboots
   NMIN     =      0    reboot dimension
   EREF     =   0.00    reference energy to select bands
   IMIX   =      4    mixing-type and parameters
     AMIX     =   0.40;   BMIX     =  1.00
     AMIX_MAG =   1.60;   BMIX_MAG =  1.00
     AMIN     =   0.10
     WC   =   100.;   INIMIX=   1;  MIXPRE=   1;  MAXMIX= -45

 Intra band minimization:
   WEIMIN = 0.0000     energy-eigenvalue tresh-hold
   EBREAK =  0.16E-08  absolut break condition
   DEPER  =   0.30     relativ break condition  

   TIME   =   0.40     timestep for ELM

  volume/ion in A,a.u.               =    7145.83     48222.46
  Fermi-wavevector in a.u.,A,eV,Ry     =   0.134920  0.254962  0.247673  0.018203
  Thomas-Fermi vector in A             =   0.783236
 
 Write flags
   LWAVE        =      T    write WAVECAR
   LDOWNSAMPLE  =      F    k-point downsampling of WAVECAR
   LCHARG       =      T    write CHGCAR
   LVTOT        =      F    write LOCPOT, total local potential
   LVHAR        =      F    write LOCPOT, Hartree potential only
   LELF         =      F    write electronic localiz. function (ELF)
   LORBIT       =      0    0 simple, 1 ext, 2 COOP (PROOUT), +10 PAW based schemes


 Dipole corrections
   LMONO  =      F    monopole corrections only (constant potential shift)
   LDIPOL =      F    correct potential (dipole corrections)
   IDIPOL =      4    1-x, 2-y, 3-z, 4-all directions 
   EPSILON=  1.0000000 bulk dielectric constant

 Exchange correlation treatment:
   GGA     =    --    GGA type
   LEXCH   =     8    internal setting for exchange type
   VOSKOWN=      0    Vosko Wilk Nusair interpolation
   LHFCALC =     F    Hartree Fock is set to
   LHFONE  =     F    Hartree Fock one center treatment
   AEXX    =    0.0000 exact exchange contribution

 Linear response parameters
   LEPSILON=     F    determine dielectric tensor
   LRPA    =     F    only Hartree local field effects (RPA)
   LNABLA  =     F    use nabla operator in PAW spheres
   LVEL    =     F    velocity operator in full k-point grid
   LINTERFAST=   F  fast interpolation
   KINTER  =     0    interpolate to denser k-point grid
   CSHIFT  =0.1000    complex shift for real part using Kramers Kronig
   OMEGAMAX=  -1.0    maximum frequency
   DEG_THRESHOLD= 0.2000000E-02 threshold for treating states as degnerate
   RTIME   =   -0.100 relaxation time in fs
  (WPLASMAI=    0.000 imaginary part of plasma frequency in eV, 0.658/RTIME)
   DFIELD  = 0.0000000 0.0000000 0.0000000 field for delta impulse in time
 
 Orbital magnetization related:
   ORBITALMAG=     F  switch on orbital magnetization
   LCHIMAG   =     F  perturbation theory with respect to B field
   DQ        =  0.001000  dq finite difference perturbation B field
   LLRAUG    =     F  two centre corrections for induced B field



--------------------------------------------------------------------------------------------------------


 Static calculation
 charge density and potential will be updated during run
 non-spin polarized calculation
 Variant of blocked Davidson
 Davidson routine will perform the subspace rotation
 perform sub-space diagonalisation
    after iterative eigenvector-optimisation
 modified Broyden-mixing scheme, WC =      100.0
 initial mixing is a Kerker type mixing with AMIX =  0.4000 and BMIX =      1.0000
 Hartree-type preconditioning will be used
 using additional bands             4
 reciprocal scheme for non local part
 use partial core corrections
 calculate Harris-corrections to forces 
   (improved forces if not selfconsistent)
 use gradient corrections 
 use of overlap-Matrix (Vanderbilt PP)
 Gauss-broadening in eV      SIGMA  =   0.01


--------------------------------------------------------------------------------------------------------


  energy-cutoff  :     1600.00
  volume of cell :    42875.00
      direct lattice vectors                 reciprocal lattice vectors
    35.000000000  0.000000000  0.000000000     0.028571429  0.000000000  0.000000000
     0.000000000 35.000000000  0.000000000     0.000000000  0.028571429  0.000000000
     0.000000000  0.000000000 35.000000000     0.000000000  0.000000000  0.028571429

  length of vectors
    35.000000000 35.000000000 35.000000000     0.028571429  0.028571429  0.028571429


 
 k-points in units of 2pi/SCALE and weight: automatic mesh                          
   0.00000000  0.00000000  0.00000000       1.000
 
 k-points in reciprocal lattice and weights: automatic mesh                          
   0.00000000  0.00000000  0.00000000       1.000
 
 position of ions in fractional coordinates (direct lattice) 
   0.00101170  0.13011897  0.97337987
   0.00000000  0.09595646  0.00000000
   0.00000000  0.00252160  0.00000000
   0.00000000  0.03595646  0.00000000
   0.00000000  0.96908674  0.00000000
   0.00000000  0.12342417  0.00000000
 
 position of ions in cartesian coordinates  (Angst):
   0.03540965  4.55416408 34.06829539
   0.00000000  3.35847600  0.00000000
   0.00000000  0.08825600  0.00000000
   0.00000000  1.25847600  0.00000000
   0.00000000 33.91803600  0.00000000
   0.00000000  4.31984600  0.00000000
 


--------------------------------------------------------------------------------------------------------


 use parallel FFT for orbitals z direction half grid
 k-point   1 :   0.0000 0.0000 0.0000  plane waves: 3115599

 maximum and minimum number of plane-waves per node :    389462   389421

 maximum number of plane-waves:   3115599
 maximum index in each direction: 
   IXMAX=  114   IYMAX=  114   IZMAX=  114
   IXMIN= -114   IYMIN= -114   IZMIN=    0


 parallel 3D FFT for wavefunctions:
    minimum data exchange during FFTs selected (reduces bandwidth)
 parallel 3D FFT for charge:
    minimum data exchange during FFTs selected (reduces bandwidth)


 total amount of memory used by VASP MPI-rank0  3707962. kBytes
=======================================================================

   base      :      30000. kBytes
   nonl-proj :     112154. kBytes
   fftplans  :    1215227. kBytes
   grid      :    2325657. kBytes
   one-center:          1. kBytes
   wavefun   :      24923. kBytes
 
     INWAV:  cpu time    0.0000: real time    0.0000
 Broyden mixing: mesh for mixing (old mesh)
   NGX =229   NGY =229   NGZ =229
  (NGX  =960   NGY  =960   NGZ  =960)
  gives a total of ****** points

 initial charge density was supplied:
 charge density of overlapping atoms calculated
 number of electron      24.0000000 magnetization 
 keeping initial charge density in first step


--------------------------------------------------------------------------------------------------------


 Maximum index for augmentation-charges          1234 (set IRDMAX)


--------------------------------------------------------------------------------------------------------


 First call to EWALD:  gamma=   0.051
 Maximum number of real-space cells 3x 3x 3
 Maximum number of reciprocal cells 3x 3x 3

    FEWALD:  cpu time    0.0009: real time    0.0009


--------------------------------------- Iteration      1(   1)  ---------------------------------------


    POTLOK:  cpu time   23.9630: real time   23.9966
    SETDIJ:  cpu time    0.0514: real time    0.0535
     EDDAV:  cpu time   14.7571: real time   14.9098
       DOS:  cpu time    0.0023: real time    0.0023
    --------------------------------------------
      LOOP:  cpu time   38.7738: real time   38.9622

 eigenvalue-minimisations  :    48
 total energy-change (2. order) : 0.2479057E+03  (-0.4668881E+03)
 number of electron      24.0000000 magnetization 
 augmentation part       24.0000000 magnetization 

 Free energy of the ion-electron system (eV)
  ---------------------------------------------------
  alpha Z        PSCENC =         0.05311416
  Ewald energy   TEWEN  =      1145.24402805
  -Hartree energ DENC   =     -2307.65056472
  -exchange      EXHF   =         0.00000000
  -V(xc)+E(xc)   XCENC  =        99.92389161
  PAW double counting   =      1152.43853192    -1158.42170530
  entropy T*S    EENTRO =        -0.00481401
  eigenvalues    EBANDS =      -152.94430444
  atomic energy  EATOM  =      1469.26749561
  Solvation  Ediel_sol  =         0.00000000
  ---------------------------------------------------
  free energy    TOTEN  =       247.90567290 eV

  energy without entropy =      247.91048691  energy(sigma->0) =      247.90807990


--------------------------------------------------------------------------------------------------------




--------------------------------------- Iteration      1(   2)  ---------------------------------------


     EDDAV:  cpu time   16.4699: real time   16.4970
       DOS:  cpu time    0.0047: real time    0.0047
    --------------------------------------------
      LOOP:  cpu time   16.4746: real time   16.5017

 eigenvalue-minimisations  :    56
 total energy-change (2. order) :-0.1226097E+03  (-0.1215589E+03)
 number of electron      24.0000000 magnetization 
 augmentation part       24.0000000 magnetization 

 Free energy of the ion-electron system (eV)
  ---------------------------------------------------
  alpha Z        PSCENC =         0.05311416
  Ewald energy   TEWEN  =      1145.24402805
  -Hartree energ DENC   =     -2307.65056472
  -exchange      EXHF   =         0.00000000
  -V(xc)+E(xc)   XCENC  =        99.92389161
  PAW double counting   =      1152.43853192    -1158.42170530
  entropy T*S    EENTRO =        -0.00000977
  eigenvalues    EBANDS =      -275.55879707
  atomic energy  EATOM  =      1469.26749561
  Solvation  Ediel_sol  =         0.00000000
  ---------------------------------------------------
  free energy    TOTEN  =       125.29598450 eV

  energy without entropy =      125.29599427  energy(sigma->0) =      125.29598938


--------------------------------------------------------------------------------------------------------




--------------------------------------- Iteration      1(   3)  ---------------------------------------


     EDDAV:  cpu time   14.7364: real time   14.7615
       DOS:  cpu time    0.0004: real time    0.0004
    --------------------------------------------
      LOOP:  cpu time   14.7368: real time   14.7619

 eigenvalue-minimisations  :    48
 total energy-change (2. order) :-0.1196192E+03  (-0.1195086E+03)
 number of electron      24.0000000 magnetization 
 augmentation part       24.0000000 magnetization 

 Free energy of the ion-electron system (eV)
  ---------------------------------------------------
  alpha Z        PSCENC =         0.05311416
  Ewald energy   TEWEN  =      1145.24402805
  -Hartree energ DENC   =     -2307.65056472
  -exchange      EXHF   =         0.00000000
  -V(xc)+E(xc)   XCENC  =        99.92389161
  PAW double counting   =      1152.43853192    -1158.42170530
  entropy T*S    EENTRO =        -0.00000000
  eigenvalues    EBANDS =      -395.17796735
  atomic energy  EATOM  =      1469.26749561
  Solvation  Ediel_sol  =         0.00000000
  ---------------------------------------------------
  free energy    TOTEN  =         5.67682400 eV

  energy without entropy =        5.67682400  energy(sigma->0) =        5.67682400


--------------------------------------------------------------------------------------------------------




--------------------------------------- Iteration      1(   4)  ---------------------------------------


     EDDAV:  cpu time   11.0748: real time   11.0926
       DOS:  cpu time    0.0048: real time    0.0048
    --------------------------------------------
      LOOP:  cpu time   11.0796: real time   11.0974

 eigenvalue-minimisations  :    32
 total energy-change (2. order) :-0.4480935E+02  (-0.4480289E+02)
 number of electron      24.0000000 magnetization 
 augmentation part       24.0000000 magnetization 

 Free energy of the ion-electron system (eV)
  ---------------------------------------------------
  alpha Z        PSCENC =         0.05311416
  Ewald energy   TEWEN  =      1145.24402805
  -Hartree energ DENC   =     -2307.65056472
  -exchange      EXHF   =         0.00000000
  -V(xc)+E(xc)   XCENC  =        99.92389161
  PAW double counting   =      1152.43853192    -1158.42170530
  entropy T*S    EENTRO =        -0.00000000
  eigenvalues    EBANDS =      -439.98731308
  atomic energy  EATOM  =      1469.26749561
  Solvation  Ediel_sol  =         0.00000000
  ---------------------------------------------------
  free energy    TOTEN  =       -39.13252174 eV

  energy without entropy =      -39.13252174  energy(sigma->0) =      -39.13252174


--------------------------------------------------------------------------------------------------------




--------------------------------------- Iteration      1(   5)  ---------------------------------------


     EDDAV:  cpu time   11.0315: real time   11.0492
       DOS:  cpu time    0.0017: real time    0.0017
    CHARGE:  cpu time    3.4764: real time    3.4812
    MIXING:  cpu time    0.5697: real time    0.5705
    --------------------------------------------
      LOOP:  cpu time   15.0793: real time   15.1026

 eigenvalue-minimisations  :    32
 total energy-change (2. order) :-0.1928204E+01  (-0.1928192E+01)
 number of electron      23.9999999 magnetization 
 augmentation part        2.3551219 magnetization 

 Broyden mixing:
  rms(total) = 0.12249E+01    rms(broyden)= 0.12249E+01
  rms(prec ) = 0.12558E+01
  weight for this iteration     100.00

 Free energy of the ion-electron system (eV)
  ---------------------------------------------------
  alpha Z        PSCENC =         0.05311416
  Ewald energy   TEWEN  =      1145.24402805
  -Hartree energ DENC   =     -2307.65056472
  -exchange      EXHF   =         0.00000000
  -V(xc)+E(xc)   XCENC  =        99.92389161
  PAW double counting   =      1152.43853192    -1158.42170530
  entropy T*S    EENTRO =        -0.00000000
  eigenvalues    EBANDS =      -441.91551699
  atomic energy  EATOM  =      1469.26749561
  Solvation  Ediel_sol  =         0.00000000
  ---------------------------------------------------
  free energy    TOTEN  =       -41.06072565 eV

  energy without entropy =      -41.06072565  energy(sigma->0) =      -41.06072565


--------------------------------------------------------------------------------------------------------




--------------------------------------- Iteration      1(   6)  ---------------------------------------


    POTLOK:  cpu time   23.7939: real time   23.8282
    SETDIJ:  cpu time    0.0540: real time    0.0541
     EDDAV:  cpu time   11.0664: real time   11.0872
       DOS:  cpu time    0.0024: real time    0.0024
    CHARGE:  cpu time    3.4111: real time    3.4179
    MIXING:  cpu time    0.4574: real time    0.4647
    --------------------------------------------
      LOOP:  cpu time   38.7853: real time   38.8544

 eigenvalue-minimisations  :    32
 total energy-change (2. order) : 0.3422778E+01  (-0.1620783E+01)
 number of electron      23.9999999 magnetization 
 augmentation part        2.0472314 magnetization 

 Broyden mixing:
  rms(total) = 0.53226E+00    rms(broyden)= 0.53226E+00
  rms(prec ) = 0.53856E+00
  weight for this iteration     100.00

 eigenvalues of (default mixing * dielectric matrix)
  average eigenvalue GAMMA=   1.0092
  1.0092

 Free energy of the ion-electron system (eV)
  ---------------------------------------------------
  alpha Z        PSCENC =         0.05311416
  Ewald energy   TEWEN  =      1145.24402805
  -Hartree energ DENC   =     -2356.57367307
  -exchange      EXHF   =         0.00000000
  -V(xc)+E(xc)   XCENC  =       102.78265767
  PAW double counting   =      1510.47257770    -1517.23390555
  entropy T*S    EENTRO =        -0.00000000
  eigenvalues    EBANDS =      -391.65024225
  atomic energy  EATOM  =      1469.26749561
  Solvation  Ediel_sol  =         0.00000000
  ---------------------------------------------------
  free energy    TOTEN  =       -37.63794768 eV

  energy without entropy =      -37.63794768  energy(sigma->0) =      -37.63794768


--------------------------------------------------------------------------------------------------------




--------------------------------------- Iteration      1(   7)  ---------------------------------------


    POTLOK:  cpu time   23.7752: real time   23.8079
    SETDIJ:  cpu time    0.0542: real time    0.0542
     EDDAV:  cpu time   14.7053: real time   14.7288
       DOS:  cpu time    0.0061: real time    0.0061
    CHARGE:  cpu time    3.4459: real time    3.4508
    MIXING:  cpu time    0.4644: real time    0.4652
    --------------------------------------------
      LOOP:  cpu time   42.4511: real time   42.5130

 eigenvalue-minimisations  :    48
 total energy-change (2. order) : 0.2149583E+00  (-0.4089908E-01)
 number of electron      23.9999999 magnetization 
 augmentation part        2.0493088 magnetization 

 Broyden mixing:
  rms(total) = 0.31389E+00    rms(broyden)= 0.31389E+00
  rms(prec ) = 0.31809E+00
  weight for this iteration     100.00

 eigenvalues of (default mixing * dielectric matrix)
  average eigenvalue GAMMA=   1.6762
  1.0350  2.3174

 Free energy of the ion-electron system (eV)
  ---------------------------------------------------
  alpha Z        PSCENC =         0.05311416
  Ewald energy   TEWEN  =      1145.24402805
  -Hartree energ DENC   =     -2365.41687965
  -exchange      EXHF   =         0.00000000
  -V(xc)+E(xc)   XCENC  =       103.23428626
  PAW double counting   =      1740.02765835    -1746.69105512
  entropy T*S    EENTRO =        -0.00000000
  eigenvalues    EBANDS =      -383.14163709
  atomic energy  EATOM  =      1469.26749561
  Solvation  Ediel_sol  =         0.00000000
  ---------------------------------------------------
  free energy    TOTEN  =       -37.42298942 eV

  energy without entropy =      -37.42298942  energy(sigma->0) =      -37.42298942


--------------------------------------------------------------------------------------------------------




--------------------------------------- Iteration      1(   8)  ---------------------------------------


    POTLOK:  cpu time   23.7682: real time   23.8004
    SETDIJ:  cpu time    0.0589: real time    0.0590
     EDDAV:  cpu time   14.7153: real time   14.7385
       DOS:  cpu time    0.0001: real time    0.0001
    CHARGE:  cpu time    3.5619: real time    3.5666
    MIXING:  cpu time    0.4764: real time    0.4772
    --------------------------------------------
      LOOP:  cpu time   42.5809: real time   42.6418

 eigenvalue-minimisations  :    48
 total energy-change (2. order) : 0.1429057E+00  (-0.2940027E-01)
 number of electron      23.9999999 magnetization 
 augmentation part        2.0501019 magnetization 

 Broyden mixing:
  rms(total) = 0.60239E-01    rms(broyden)= 0.60239E-01
  rms(prec ) = 0.63665E-01
  weight for this iteration     100.00

 eigenvalues of (default mixing * dielectric matrix)
  average eigenvalue GAMMA=   1.3666
  2.4056  1.0088  0.6854

 Free energy of the ion-electron system (eV)
  ---------------------------------------------------
  alpha Z        PSCENC =         0.05311416
  Ewald energy   TEWEN  =      1145.24402805
  -Hartree energ DENC   =     -2376.92878486
  -exchange      EXHF   =         0.00000000
  -V(xc)+E(xc)   XCENC  =       103.84991596
  PAW double counting   =      2084.09529575    -2090.70659533
  entropy T*S    EENTRO =        -0.00000000
  eigenvalues    EBANDS =      -372.15455303
  atomic energy  EATOM  =      1469.26749561
  Solvation  Ediel_sol  =         0.00000000
  ---------------------------------------------------
  free energy    TOTEN  =       -37.28008368 eV

  energy without entropy =      -37.28008368  energy(sigma->0) =      -37.28008368


--------------------------------------------------------------------------------------------------------




--------------------------------------- Iteration      1(   9)  ---------------------------------------


    POTLOK:  cpu time   23.7922: real time   23.8247
    SETDIJ:  cpu time    0.0910: real time    0.0910
     EDDAV:  cpu time   14.7050: real time   14.7283
       DOS:  cpu time    0.0072: real time    0.0072
    CHARGE:  cpu time    3.4053: real time    3.4100
    MIXING:  cpu time    0.5989: real time    0.5997
    --------------------------------------------
      LOOP:  cpu time   42.5995: real time   42.6610

 eigenvalue-minimisations  :    48
 total energy-change (2. order) : 0.8567361E-02  (-0.2452890E-02)
 number of electron      23.9999999 magnetization 
 augmentation part        2.0433963 magnetization 

 Broyden mixing:
  rms(total) = 0.34169E-01    rms(broyden)= 0.34169E-01
  rms(prec ) = 0.37281E-01
  weight for this iteration     100.00

 eigenvalues of (default mixing * dielectric matrix)
  average eigenvalue GAMMA=   1.4424
  2.4621  0.9834  0.9834  1.3406

 Free energy of the ion-electron system (eV)
  ---------------------------------------------------
  alpha Z        PSCENC =         0.05311416
  Ewald energy   TEWEN  =      1145.24402805
  -Hartree energ DENC   =     -2377.75190356
  -exchange      EXHF   =         0.00000000
  -V(xc)+E(xc)   XCENC  =       103.89828736
  PAW double counting   =      2102.93854207    -2109.54922952
  entropy T*S    EENTRO =        -0.00000000
  eigenvalues    EBANDS =      -371.37185050
  atomic energy  EATOM  =      1469.26749561
  Solvation  Ediel_sol  =         0.00000000
  ---------------------------------------------------
  free energy    TOTEN  =       -37.27151632 eV

  energy without entropy =      -37.27151632  energy(sigma->0) =      -37.27151632


--------------------------------------------------------------------------------------------------------




--------------------------------------- Iteration      1(  10)  ---------------------------------------


    POTLOK:  cpu time   23.8201: real time   23.8526
    SETDIJ:  cpu time    0.0587: real time    0.0587
     EDDAV:  cpu time   11.0750: real time   11.0926
       DOS:  cpu time    0.0021: real time    0.0020
    CHARGE:  cpu time    3.4234: real time    3.4283
    MIXING:  cpu time    0.5274: real time    0.5283
    --------------------------------------------
      LOOP:  cpu time   38.9067: real time   38.9625

 eigenvalue-minimisations  :    32
 total energy-change (2. order) : 0.1274747E-02  (-0.1035619E-02)
 number of electron      23.9999999 magnetization 
 augmentation part        2.0389550 magnetization 

 Broyden mixing:
  rms(total) = 0.15162E-01    rms(broyden)= 0.15162E-01
  rms(prec ) = 0.18129E-01
  weight for this iteration     100.00

 eigenvalues of (default mixing * dielectric matrix)
  average eigenvalue GAMMA=   1.3692
  2.3881  1.2725  1.2725  1.1354  0.7773

 Free energy of the ion-electron system (eV)
  ---------------------------------------------------
  alpha Z        PSCENC =         0.05311416
  Ewald energy   TEWEN  =      1145.24402805
  -Hartree energ DENC   =     -2378.25530338
  -exchange      EXHF   =         0.00000000
  -V(xc)+E(xc)   XCENC  =       103.91396994
  PAW double counting   =      2111.69084508    -2118.27913470
  entropy T*S    EENTRO =        -0.00000000
  eigenvalues    EBANDS =      -370.90525633
  atomic energy  EATOM  =      1469.26749561
  Solvation  Ediel_sol  =         0.00000000
  ---------------------------------------------------
  free energy    TOTEN  =       -37.27024157 eV

  energy without entropy =      -37.27024157  energy(sigma->0) =      -37.27024157


--------------------------------------------------------------------------------------------------------




--------------------------------------- Iteration      1(  11)  ---------------------------------------


    POTLOK:  cpu time   23.8012: real time   23.8341
    SETDIJ:  cpu time    0.0572: real time    0.0572
     EDDAV:  cpu time   14.7068: real time   14.7303
       DOS:  cpu time    0.0041: real time    0.0041
    CHARGE:  cpu time    3.5505: real time    3.5554
    MIXING:  cpu time    0.5930: real time    0.5939
    --------------------------------------------
      LOOP:  cpu time   42.7127: real time   42.7750

 eigenvalue-minimisations  :    48
 total energy-change (2. order) :-0.2012225E-02  (-0.2657497E-03)
 number of electron      23.9999999 magnetization 
 augmentation part        2.0411868 magnetization 

 Broyden mixing:
  rms(total) = 0.98685E-02    rms(broyden)= 0.98685E-02
  rms(prec ) = 0.13002E-01
  weight for this iteration     100.00

 eigenvalues of (default mixing * dielectric matrix)
  average eigenvalue GAMMA=   1.4486
  2.4634  2.4634  1.0092  1.0092  1.0145  0.7319

 Free energy of the ion-electron system (eV)
  ---------------------------------------------------
  alpha Z        PSCENC =         0.05311416
  Ewald energy   TEWEN  =      1145.24402805
  -Hartree energ DENC   =     -2378.29391325
  -exchange      EXHF   =         0.00000000
  -V(xc)+E(xc)   XCENC  =       103.90222479
  PAW double counting   =      2107.82476446    -2114.40633527
  entropy T*S    EENTRO =        -0.00000000
  eigenvalues    EBANDS =      -370.86363235
  atomic energy  EATOM  =      1469.26749561
  Solvation  Ediel_sol  =         0.00000000
  ---------------------------------------------------
  free energy    TOTEN  =       -37.27225380 eV

  energy without entropy =      -37.27225380  energy(sigma->0) =      -37.27225380


--------------------------------------------------------------------------------------------------------




--------------------------------------- Iteration      1(  12)  ---------------------------------------


    POTLOK:  cpu time   23.8030: real time   23.8362
    SETDIJ:  cpu time    0.0509: real time    0.0509
     EDDAV:  cpu time   14.7190: real time   14.7468
       DOS:  cpu time    0.0044: real time    0.0044
    CHARGE:  cpu time    3.4208: real time    3.4259
    MIXING:  cpu time    0.5969: real time    0.5978
    --------------------------------------------
      LOOP:  cpu time   42.5948: real time   42.6619

 eigenvalue-minimisations  :    48
 total energy-change (2. order) :-0.3345525E-02  (-0.2403034E-03)
 number of electron      23.9999999 magnetization 
 augmentation part        2.0392378 magnetization 

 Broyden mixing:
  rms(total) = 0.73014E-02    rms(broyden)= 0.73014E-02
  rms(prec ) = 0.91519E-02
  weight for this iteration     100.00

 eigenvalues of (default mixing * dielectric matrix)
  average eigenvalue GAMMA=   1.5581
  3.4058  2.4266  1.1753  1.1753  1.1237  0.8000  0.8000

 Free energy of the ion-electron system (eV)
  ---------------------------------------------------
  alpha Z        PSCENC =         0.05311416
  Ewald energy   TEWEN  =      1145.24402805
  -Hartree energ DENC   =     -2378.84091997
  -exchange      EXHF   =         0.00000000
  -V(xc)+E(xc)   XCENC  =       103.91391086
  PAW double counting   =      2108.01128151    -2114.58556819
  entropy T*S    EENTRO =        -0.00000000
  eigenvalues    EBANDS =      -370.33894135
  atomic energy  EATOM  =      1469.26749561
  Solvation  Ediel_sol  =         0.00000000
  ---------------------------------------------------
  free energy    TOTEN  =       -37.27559932 eV

  energy without entropy =      -37.27559932  energy(sigma->0) =      -37.27559932


--------------------------------------------------------------------------------------------------------




--------------------------------------- Iteration      1(  13)  ---------------------------------------


    POTLOK:  cpu time   23.8141: real time   23.8491
    SETDIJ:  cpu time    0.0530: real time    0.0530
     EDDAV:  cpu time   12.8893: real time   12.9097
       DOS:  cpu time    0.0034: real time    0.0034
    CHARGE:  cpu time    3.4472: real time    3.4544
    MIXING:  cpu time    0.5972: real time    0.5982
    --------------------------------------------
      LOOP:  cpu time   40.8041: real time   40.8679

 eigenvalue-minimisations  :    40
 total energy-change (2. order) :-0.4565723E-02  (-0.1432030E-03)
 number of electron      23.9999999 magnetization 
 augmentation part        2.0394927 magnetization 

 Broyden mixing:
  rms(total) = 0.36156E-02    rms(broyden)= 0.36156E-02
  rms(prec ) = 0.48868E-02
  weight for this iteration     100.00

 eigenvalues of (default mixing * dielectric matrix)
  average eigenvalue GAMMA=   1.7018
  4.3073  2.4277  2.2170  1.0377  1.0377  1.0276  0.7795  0.7795

 Free energy of the ion-electron system (eV)
  ---------------------------------------------------
  alpha Z        PSCENC =         0.05311416
  Ewald energy   TEWEN  =      1145.24402805
  -Hartree energ DENC   =     -2379.32927963
  -exchange      EXHF   =         0.00000000
  -V(xc)+E(xc)   XCENC  =       103.92112819
  PAW double counting   =      2106.60228836    -2113.17639997
  entropy T*S    EENTRO =        -0.00000000
  eigenvalues    EBANDS =      -369.86253981
  atomic energy  EATOM  =      1469.26749561
  Solvation  Ediel_sol  =         0.00000000
  ---------------------------------------------------
  free energy    TOTEN  =       -37.28016505 eV

  energy without entropy =      -37.28016505  energy(sigma->0) =      -37.28016505


--------------------------------------------------------------------------------------------------------




--------------------------------------- Iteration      1(  14)  ---------------------------------------


    POTLOK:  cpu time   23.8701: real time   23.9031
    SETDIJ:  cpu time    0.0599: real time    0.0599
     EDDAV:  cpu time   12.8188: real time   12.8404
       DOS:  cpu time    0.0048: real time    0.0048
    CHARGE:  cpu time    3.4352: real time    3.4401
    MIXING:  cpu time    0.6888: real time    0.6899
    --------------------------------------------
      LOOP:  cpu time   40.8775: real time   40.9381

 eigenvalue-minimisations  :    40
 total energy-change (2. order) :-0.4384264E-02  (-0.9781404E-04)
 number of electron      23.9999999 magnetization 
 augmentation part        2.0393195 magnetization 

 Broyden mixing:
  rms(total) = 0.27326E-02    rms(broyden)= 0.27326E-02
  rms(prec ) = 0.33406E-02
  weight for this iteration     100.00

 eigenvalues of (default mixing * dielectric matrix)
  average eigenvalue GAMMA=   1.7977
  4.9594  2.7614  2.2414  1.6089  1.0477  1.0477  0.8439  0.8439  0.8252

 Free energy of the ion-electron system (eV)
  ---------------------------------------------------
  alpha Z        PSCENC =         0.05311416
  Ewald energy   TEWEN  =      1145.24402805
  -Hartree energ DENC   =     -2379.63839319
  -exchange      EXHF   =         0.00000000
  -V(xc)+E(xc)   XCENC  =       103.92420273
  PAW double counting   =      2105.11828382    -2111.69513067
  entropy T*S    EENTRO =        -0.00000000
  eigenvalues    EBANDS =      -369.55814982
  atomic energy  EATOM  =      1469.26749561
  Solvation  Ediel_sol  =         0.00000000
  ---------------------------------------------------
  free energy    TOTEN  =       -37.28454931 eV

  energy without entropy =      -37.28454931  energy(sigma->0) =      -37.28454931


--------------------------------------------------------------------------------------------------------




--------------------------------------- Iteration      1(  15)  ---------------------------------------


    POTLOK:  cpu time   23.8540: real time   23.8886
    SETDIJ:  cpu time    0.0494: real time    0.0494
     EDDAV:  cpu time   14.7686: real time   14.7920
       DOS:  cpu time    0.0026: real time    0.0026
    CHARGE:  cpu time    3.4146: real time    3.4195
    MIXING:  cpu time    0.7417: real time    0.7428
    --------------------------------------------
      LOOP:  cpu time   42.8309: real time   42.8949

 eigenvalue-minimisations  :    48
 total energy-change (2. order) :-0.2560644E-02  (-0.3186377E-04)
 number of electron      23.9999999 magnetization 
 augmentation part        2.0392021 magnetization 

 Broyden mixing:
  rms(total) = 0.12905E-02    rms(broyden)= 0.12905E-02
  rms(prec ) = 0.16941E-02
  weight for this iteration     100.00

 eigenvalues of (default mixing * dielectric matrix)
  average eigenvalue GAMMA=   1.8621
  5.9469  3.0184  2.4192  1.7340  1.0226  1.0226  0.9613  0.9613  0.7673  0.7673

 Free energy of the ion-electron system (eV)
  ---------------------------------------------------
  alpha Z        PSCENC =         0.05311416
  Ewald energy   TEWEN  =      1145.24402805
  -Hartree energ DENC   =     -2379.57924893
  -exchange      EXHF   =         0.00000000
  -V(xc)+E(xc)   XCENC  =       103.91563871
  PAW double counting   =      2105.26321328    -2111.83703633
  entropy T*S    EENTRO =        -0.00000000
  eigenvalues    EBANDS =      -369.61431450
  atomic energy  EATOM  =      1469.26749561
  Solvation  Ediel_sol  =         0.00000000
  ---------------------------------------------------
  free energy    TOTEN  =       -37.28710995 eV

  energy without entropy =      -37.28710995  energy(sigma->0) =      -37.28710995


--------------------------------------------------------------------------------------------------------




--------------------------------------- Iteration      1(  16)  ---------------------------------------


    POTLOK:  cpu time   23.8595: real time   23.8920
    SETDIJ:  cpu time    0.0834: real time    0.0835
     EDDAV:  cpu time   14.6870: real time   14.7100
       DOS:  cpu time    0.0038: real time    0.0038
    CHARGE:  cpu time    3.4868: real time    3.4919
    MIXING:  cpu time    0.9119: real time    0.9132
    --------------------------------------------
      LOOP:  cpu time   43.0324: real time   43.0944

 eigenvalue-minimisations  :    48
 total energy-change (2. order) :-0.1195188E-02  (-0.9353590E-05)
 number of electron      23.9999999 magnetization 
 augmentation part        2.0390986 magnetization 

 Broyden mixing:
  rms(total) = 0.67868E-03    rms(broyden)= 0.67868E-03
  rms(prec ) = 0.98182E-03
  weight for this iteration     100.00

 eigenvalues of (default mixing * dielectric matrix)
  average eigenvalue GAMMA=   1.9774
  6.6439  3.5237  2.4692  1.8144  1.8144  1.0021  1.0021  0.9657  0.9657  0.7752
  0.7752

 Free energy of the ion-electron system (eV)
  ---------------------------------------------------
  alpha Z        PSCENC =         0.05311416
  Ewald energy   TEWEN  =      1145.24402805
  -Hartree energ DENC   =     -2379.59339655
  -exchange      EXHF   =         0.00000000
  -V(xc)+E(xc)   XCENC  =       103.91404112
  PAW double counting   =      2105.96967501    -2112.54251930
  entropy T*S    EENTRO =        -0.00000000
  eigenvalues    EBANDS =      -369.60074325
  atomic energy  EATOM  =      1469.26749561
  Solvation  Ediel_sol  =         0.00000000
  ---------------------------------------------------
  free energy    TOTEN  =       -37.28830514 eV

  energy without entropy =      -37.28830514  energy(sigma->0) =      -37.28830514


--------------------------------------------------------------------------------------------------------




--------------------------------------- Iteration      1(  17)  ---------------------------------------


    POTLOK:  cpu time   23.8806: real time   23.9156
    SETDIJ:  cpu time    0.0559: real time    0.0559
     EDDAV:  cpu time   14.8388: real time   14.8625
       DOS:  cpu time    0.0057: real time    0.0057
    CHARGE:  cpu time    3.5186: real time    3.5238
    MIXING:  cpu time    0.7322: real time    0.7334
    --------------------------------------------
      LOOP:  cpu time   43.0318: real time   43.0969

 eigenvalue-minimisations  :    48
 total energy-change (2. order) :-0.1074804E-02  (-0.6231568E-05)
 number of electron      23.9999999 magnetization 
 augmentation part        2.0390222 magnetization 

 Broyden mixing:
  rms(total) = 0.46055E-03    rms(broyden)= 0.46055E-03
  rms(prec ) = 0.59600E-03
  weight for this iteration     100.00

 eigenvalues of (default mixing * dielectric matrix)
  average eigenvalue GAMMA=   2.0974
  7.5736  4.1066  2.6769  2.4324  1.6544  1.2489  0.9952  0.9952  0.7838  0.7838
  0.9592  0.9592

 Free energy of the ion-electron system (eV)
  ---------------------------------------------------
  alpha Z        PSCENC =         0.05311416
  Ewald energy   TEWEN  =      1145.24402805
  -Hartree energ DENC   =     -2379.59632929
  -exchange      EXHF   =         0.00000000
  -V(xc)+E(xc)   XCENC  =       103.91286899
  PAW double counting   =      2106.13385969    -2112.70675301
  entropy T*S    EENTRO =        -0.00000000
  eigenvalues    EBANDS =      -369.59766415
  atomic energy  EATOM  =      1469.26749561
  Solvation  Ediel_sol  =         0.00000000
  ---------------------------------------------------
  free energy    TOTEN  =       -37.28937995 eV

  energy without entropy =      -37.28937995  energy(sigma->0) =      -37.28937995


--------------------------------------------------------------------------------------------------------




--------------------------------------- Iteration      1(  18)  ---------------------------------------


    POTLOK:  cpu time   23.8529: real time   23.8876
    SETDIJ:  cpu time    0.0585: real time    0.0585
     EDDAV:  cpu time   14.6833: real time   14.7098
       DOS:  cpu time    0.0011: real time    0.0011
    CHARGE:  cpu time    3.4344: real time    3.4395
    MIXING:  cpu time    0.7889: real time    0.7902
    --------------------------------------------
      LOOP:  cpu time   42.8192: real time   42.8867

 eigenvalue-minimisations  :    48
 total energy-change (2. order) :-0.5383138E-03  (-0.2229733E-05)
 number of electron      23.9999999 magnetization 
 augmentation part        2.0390668 magnetization 

 Broyden mixing:
  rms(total) = 0.25455E-03    rms(broyden)= 0.25455E-03
  rms(prec ) = 0.31716E-03
  weight for this iteration     100.00

 eigenvalues of (default mixing * dielectric matrix)
  average eigenvalue GAMMA=   2.1488
  8.0725  4.5718  2.7638  2.4842  1.7877  1.7877  0.9975  0.9975  0.9945  0.9502
  0.9502  0.7888  0.7888

 Free energy of the ion-electron system (eV)
  ---------------------------------------------------
  alpha Z        PSCENC =         0.05311416
  Ewald energy   TEWEN  =      1145.24402805
  -Hartree energ DENC   =     -2379.58077127
  -exchange      EXHF   =         0.00000000
  -V(xc)+E(xc)   XCENC  =       103.91148205
  PAW double counting   =      2105.97886039    -2112.55182572
  entropy T*S    EENTRO =        -0.00000000
  eigenvalues    EBANDS =      -369.61230153
  atomic energy  EATOM  =      1469.26749561
  Solvation  Ediel_sol  =         0.00000000
  ---------------------------------------------------
  free energy    TOTEN  =       -37.28991826 eV

  energy without entropy =      -37.28991826  energy(sigma->0) =      -37.28991826


--------------------------------------------------------------------------------------------------------




--------------------------------------- Iteration      1(  19)  ---------------------------------------


    POTLOK:  cpu time   23.8395: real time   23.8729
    SETDIJ:  cpu time    0.1080: real time    0.1080
     EDDAV:  cpu time   14.7845: real time   14.8087
       DOS:  cpu time    0.0038: real time    0.0038
    CHARGE:  cpu time    3.5144: real time    3.5196
    MIXING:  cpu time    0.8071: real time    0.8084
    --------------------------------------------
      LOOP:  cpu time   43.0573: real time   43.1214

 eigenvalue-minimisations  :    48
 total energy-change (2. order) :-0.2129714E-03  (-0.2781250E-06)
 number of electron      23.9999999 magnetization 
 augmentation part        2.0390728 magnetization 

 Broyden mixing:
  rms(total) = 0.12775E-03    rms(broyden)= 0.12775E-03
  rms(prec ) = 0.16875E-03
  weight for this iteration     100.00

 eigenvalues of (default mixing * dielectric matrix)
  average eigenvalue GAMMA=   2.2267
  8.5320  5.1179  3.2298  2.5335  2.3279  1.6920  1.2662  0.9994  0.9994  0.7870
  0.7870  0.9856  0.9856  0.9310

 Free energy of the ion-electron system (eV)
  ---------------------------------------------------
  alpha Z        PSCENC =         0.05311416
  Ewald energy   TEWEN  =      1145.24402805
  -Hartree energ DENC   =     -2379.57839673
  -exchange      EXHF   =         0.00000000
  -V(xc)+E(xc)   XCENC  =       103.91117580
  PAW double counting   =      2105.89105492    -2112.46424338
  entropy T*S    EENTRO =        -0.00000000
  eigenvalues    EBANDS =      -369.61435967
  atomic energy  EATOM  =      1469.26749561
  Solvation  Ediel_sol  =         0.00000000
  ---------------------------------------------------
  free energy    TOTEN  =       -37.29013123 eV

  energy without entropy =      -37.29013123  energy(sigma->0) =      -37.29013123


--------------------------------------------------------------------------------------------------------




--------------------------------------- Iteration      1(  20)  ---------------------------------------


    POTLOK:  cpu time   23.8721: real time   23.9064
    SETDIJ:  cpu time    0.0553: real time    0.0553
     EDDAV:  cpu time   10.9936: real time   11.0127
       DOS:  cpu time    0.0013: real time    0.0013
    CHARGE:  cpu time    3.4237: real time    3.4285
    MIXING:  cpu time    0.9057: real time    0.9071
    --------------------------------------------
      LOOP:  cpu time   39.2517: real time   39.3113

 eigenvalue-minimisations  :    32
 total energy-change (2. order) :-0.1318243E-03  (-0.1566011E-06)
 number of electron      23.9999999 magnetization 
 augmentation part        2.0390690 magnetization 

 Broyden mixing:
  rms(total) = 0.10363E-03    rms(broyden)= 0.10363E-03
  rms(prec ) = 0.11863E-03
  weight for this iteration     100.00

 eigenvalues of (default mixing * dielectric matrix)
  average eigenvalue GAMMA=   2.2278
  8.8829  5.2736  3.5255  2.4052  2.4052  1.7132  1.7132  0.7852  0.7852  0.9922
  0.9922  1.0577  0.9346  0.9754  0.9754

 Free energy of the ion-electron system (eV)
  ---------------------------------------------------
  alpha Z        PSCENC =         0.05311416
  Ewald energy   TEWEN  =      1145.24402805
  -Hartree energ DENC   =     -2379.58181486
  -exchange      EXHF   =         0.00000000
  -V(xc)+E(xc)   XCENC  =       103.91122150
  PAW double counting   =      2105.86045743    -2112.43369412
  entropy T*S    EENTRO =        -0.00000000
  eigenvalues    EBANDS =      -369.61107083
  atomic energy  EATOM  =      1469.26749561
  Solvation  Ediel_sol  =         0.00000000
  ---------------------------------------------------
  free energy    TOTEN  =       -37.29026306 eV

  energy without entropy =      -37.29026306  energy(sigma->0) =      -37.29026306


--------------------------------------------------------------------------------------------------------




--------------------------------------- Iteration      1(  21)  ---------------------------------------


    POTLOK:  cpu time   23.7990: real time   23.8322
    SETDIJ:  cpu time    0.0645: real time    0.0645
     EDDAV:  cpu time   12.9725: real time   12.9934
       DOS:  cpu time    0.0009: real time    0.0009
    CHARGE:  cpu time    3.4059: real time    3.4108
    MIXING:  cpu time    1.0628: real time    1.0643
    --------------------------------------------
      LOOP:  cpu time   41.3056: real time   41.3661

 eigenvalue-minimisations  :    40
 total energy-change (2. order) :-0.4692612E-04  (-0.2475647E-07)
 number of electron      23.9999999 magnetization 
 augmentation part        2.0390593 magnetization 

 Broyden mixing:
  rms(total) = 0.45086E-04    rms(broyden)= 0.45086E-04
  rms(prec ) = 0.57410E-04
  weight for this iteration     100.00

 eigenvalues of (default mixing * dielectric matrix)
  average eigenvalue GAMMA=   2.3076
  9.1422  5.9357  3.9917  2.9069  2.4331  2.0531  1.7947  1.1709  0.9897  0.9897
  1.0557  1.0557  0.7851  0.7851  0.9160  0.9160

 Free energy of the ion-electron system (eV)
  ---------------------------------------------------
  alpha Z        PSCENC =         0.05311416
  Ewald energy   TEWEN  =      1145.24402805
  -Hartree energ DENC   =     -2379.58402637
  -exchange      EXHF   =         0.00000000
  -V(xc)+E(xc)   XCENC  =       103.91127778
  PAW double counting   =      2105.89811317    -2112.47126637
  entropy T*S    EENTRO =        -0.00000000
  eigenvalues    EBANDS =      -369.60904602
  atomic energy  EATOM  =      1469.26749561
  Solvation  Ediel_sol  =         0.00000000
  ---------------------------------------------------
  free energy    TOTEN  =       -37.29030998 eV

  energy without entropy =      -37.29030998  energy(sigma->0) =      -37.29030998


--------------------------------------------------------------------------------------------------------




--------------------------------------- Iteration      1(  22)  ---------------------------------------


    POTLOK:  cpu time   23.7459: real time   23.7793
    SETDIJ:  cpu time    0.0706: real time    0.0706
     EDDAV:  cpu time   11.0516: real time   11.0694
       DOS:  cpu time    0.0029: real time    0.0029
    CHARGE:  cpu time    3.4883: real time    3.4932
    MIXING:  cpu time    1.0348: real time    1.0365
    --------------------------------------------
      LOOP:  cpu time   39.3941: real time   39.4519

 eigenvalue-minimisations  :    32
 total energy-change (2. order) :-0.3556337E-04  (-0.2648563E-07)
 number of electron      23.9999999 magnetization 
 augmentation part        2.0390578 magnetization 

 Broyden mixing:
  rms(total) = 0.27998E-04    rms(broyden)= 0.27998E-04
  rms(prec ) = 0.33007E-04
  weight for this iteration     100.00

 eigenvalues of (default mixing * dielectric matrix)
  average eigenvalue GAMMA=   2.3463
  9.3481  6.2416  4.3785  3.0073  2.4988  2.1415  1.8355  1.8355  1.1431  0.9838
  0.9838  1.0351  1.0351  0.7853  0.7853  0.9244  0.9244

 Free energy of the ion-electron system (eV)
  ---------------------------------------------------
  alpha Z        PSCENC =         0.05311416
  Ewald energy   TEWEN  =      1145.24402805
  -Hartree energ DENC   =     -2379.58356888
  -exchange      EXHF   =         0.00000000
  -V(xc)+E(xc)   XCENC  =       103.91121123
  PAW double counting   =      2105.91173731    -2112.48482256
  entropy T*S    EENTRO =        -0.00000000
  eigenvalues    EBANDS =      -369.60954047
  atomic energy  EATOM  =      1469.26749561
  Solvation  Ediel_sol  =         0.00000000
  ---------------------------------------------------
  free energy    TOTEN  =       -37.29034554 eV

  energy without entropy =      -37.29034554  energy(sigma->0) =      -37.29034554


--------------------------------------------------------------------------------------------------------




--------------------------------------- Iteration      1(  23)  ---------------------------------------


    POTLOK:  cpu time   23.6669: real time   23.7032
    SETDIJ:  cpu time    0.0507: real time    0.0507
     EDDAV:  cpu time   11.1017: real time   11.1212
       DOS:  cpu time    0.0007: real time    0.0007
    CHARGE:  cpu time    3.4358: real time    3.4408
    MIXING:  cpu time    1.1378: real time    1.1396
    --------------------------------------------
      LOOP:  cpu time   39.3937: real time   39.4562

 eigenvalue-minimisations  :    32
 total energy-change (2. order) :-0.1448758E-04  (-0.7000395E-08)
 number of electron      23.9999999 magnetization 
 augmentation part        2.0390629 magnetization 

 Broyden mixing:
  rms(total) = 0.16304E-04    rms(broyden)= 0.16304E-04
  rms(prec ) = 0.18862E-04
  weight for this iteration     100.00

 eigenvalues of (default mixing * dielectric matrix)
  average eigenvalue GAMMA=   2.3638
  9.4612  6.5947  4.6207  3.2531  2.5960  2.3056  2.3056  1.6672  1.3047  0.7854
  0.7854  0.9818  0.9818  1.0383  1.0383  0.9432  0.9425  0.9425

 Free energy of the ion-electron system (eV)
  ---------------------------------------------------
  alpha Z        PSCENC =         0.05311416
  Ewald energy   TEWEN  =      1145.24402805
  -Hartree energ DENC   =     -2379.58257682
  -exchange      EXHF   =         0.00000000
  -V(xc)+E(xc)   XCENC  =       103.91113706
  PAW double counting   =      2105.91291496    -2112.48599871
  entropy T*S    EENTRO =        -0.00000000
  eigenvalues    EBANDS =      -369.61047435
  atomic energy  EATOM  =      1469.26749561
  Solvation  Ediel_sol  =         0.00000000
  ---------------------------------------------------
  free energy    TOTEN  =       -37.29036003 eV

  energy without entropy =      -37.29036003  energy(sigma->0) =      -37.29036003


--------------------------------------------------------------------------------------------------------




--------------------------------------- Iteration      1(  24)  ---------------------------------------


    POTLOK:  cpu time   23.7043: real time   23.7379
    SETDIJ:  cpu time    0.0559: real time    0.0559
     EDDAV:  cpu time    9.2484: real time    9.2633
       DOS:  cpu time    0.0045: real time    0.0045
    CHARGE:  cpu time    3.4594: real time    3.4645
    MIXING:  cpu time    1.1505: real time    1.1523
    --------------------------------------------
      LOOP:  cpu time   37.6230: real time   37.6783

 eigenvalue-minimisations  :    24
 total energy-change (2. order) :-0.6303774E-05  (-0.3139359E-08)
 number of electron      23.9999999 magnetization 
 augmentation part        2.0390610 magnetization 

 Broyden mixing:
  rms(total) = 0.86337E-05    rms(broyden)= 0.86337E-05
  rms(prec ) = 0.10170E-04
  weight for this iteration     100.00

 eigenvalues of (default mixing * dielectric matrix)
  average eigenvalue GAMMA=   2.3662
  9.5424  6.7629  4.9024  3.5215  2.7175  2.5130  1.8479  1.8479  1.7490  1.2047
  0.9808  0.9808  1.0296  1.0296  0.7852  0.7852  0.9262  0.9262  0.9041

 Free energy of the ion-electron system (eV)
  ---------------------------------------------------
  alpha Z        PSCENC =         0.05311416
  Ewald energy   TEWEN  =      1145.24402805
  -Hartree energ DENC   =     -2379.58315163
  -exchange      EXHF   =         0.00000000
  -V(xc)+E(xc)   XCENC  =       103.91116548
  PAW double counting   =      2105.90738492    -2112.48050313
  entropy T*S    EENTRO =        -0.00000000
  eigenvalues    EBANDS =      -369.60989981
  atomic energy  EATOM  =      1469.26749561
  Solvation  Ediel_sol  =         0.00000000
  ---------------------------------------------------
  free energy    TOTEN  =       -37.29036634 eV

  energy without entropy =      -37.29036634  energy(sigma->0) =      -37.29036634


--------------------------------------------------------------------------------------------------------




--------------------------------------- Iteration      1(  25)  ---------------------------------------


    POTLOK:  cpu time   23.7265: real time   23.7599
    SETDIJ:  cpu time    0.0600: real time    0.0601
     EDDAV:  cpu time   11.0391: real time   11.0570
       DOS:  cpu time    0.0060: real time    0.0060
    CHARGE:  cpu time    3.6695: real time    3.6744
    MIXING:  cpu time    1.1148: real time    1.1166
    --------------------------------------------
      LOOP:  cpu time   39.6160: real time   39.6740

 eigenvalue-minimisations  :    32
 total energy-change (2. order) :-0.2738298E-05  (-0.1677821E-08)
 number of electron      23.9999999 magnetization 
 augmentation part        2.0390608 magnetization 

 Broyden mixing:
  rms(total) = 0.45264E-05    rms(broyden)= 0.45264E-05
  rms(prec ) = 0.55486E-05
  weight for this iteration     100.00

 eigenvalues of (default mixing * dielectric matrix)
  average eigenvalue GAMMA=   2.3943
  9.6279  7.0783  5.2344  3.8977  2.8927  2.4950  2.2051  2.2051  1.6446  1.2765
  0.9824  0.9824  1.0438  1.0438  0.7853  0.7853  0.9282  0.9282  0.9523  0.8974

 Free energy of the ion-electron system (eV)
  ---------------------------------------------------
  alpha Z        PSCENC =         0.05311416
  Ewald energy   TEWEN  =      1145.24402805
  -Hartree energ DENC   =     -2379.58319439
  -exchange      EXHF   =         0.00000000
  -V(xc)+E(xc)   XCENC  =       103.91116480
  PAW double counting   =      2105.90438741    -2112.47750116
  entropy T*S    EENTRO =        -0.00000000
  eigenvalues    EBANDS =      -369.60986355
  atomic energy  EATOM  =      1469.26749561
  Solvation  Ediel_sol  =         0.00000000
  ---------------------------------------------------
  free energy    TOTEN  =       -37.29036907 eV

  energy without entropy =      -37.29036907  energy(sigma->0) =      -37.29036907


--------------------------------------------------------------------------------------------------------




--------------------------------------- Iteration      1(  26)  ---------------------------------------


    POTLOK:  cpu time   23.7051: real time   23.7386
    SETDIJ:  cpu time    0.0567: real time    0.0568
     EDDAV:  cpu time   11.1011: real time   11.1190
       DOS:  cpu time    0.0028: real time    0.0028
    CHARGE:  cpu time    3.4189: real time    3.4240
    MIXING:  cpu time    1.2744: real time    1.2764
    --------------------------------------------
      LOOP:  cpu time   39.5592: real time   39.6176

 eigenvalue-minimisations  :    32
 total energy-change (2. order) :-0.1521570E-05  (-0.1174723E-08)
 number of electron      23.9999999 magnetization 
 augmentation part        2.0390610 magnetization 

 Broyden mixing:
  rms(total) = 0.27107E-05    rms(broyden)= 0.27107E-05
  rms(prec ) = 0.32571E-05
  weight for this iteration     100.00

 eigenvalues of (default mixing * dielectric matrix)
  average eigenvalue GAMMA=   2.4213
  9.6423  7.3973  5.4386  4.1988  3.0617  2.4636  2.4636  1.9184  1.9184  1.7417
  1.2198  0.9840  0.9840  1.0502  1.0502  0.7853  0.7853  0.9395  0.9395  0.9323
  0.9323

 Free energy of the ion-electron system (eV)
  ---------------------------------------------------
  alpha Z        PSCENC =         0.05311416
  Ewald energy   TEWEN  =      1145.24402805
  -Hartree energ DENC   =     -2379.58312951
  -exchange      EXHF   =         0.00000000
  -V(xc)+E(xc)   XCENC  =       103.91116089
  PAW double counting   =      2105.90504086    -2112.47815000
  entropy T*S    EENTRO =        -0.00000000
  eigenvalues    EBANDS =      -369.60993067
  atomic energy  EATOM  =      1469.26749561
  Solvation  Ediel_sol  =         0.00000000
  ---------------------------------------------------
  free energy    TOTEN  =       -37.29037060 eV

  energy without entropy =      -37.29037060  energy(sigma->0) =      -37.29037060


--------------------------------------------------------------------------------------------------------




--------------------------------------- Iteration      1(  27)  ---------------------------------------


    POTLOK:  cpu time   23.7065: real time   23.7400
    SETDIJ:  cpu time    0.0761: real time    0.0762
     EDDAV:  cpu time   12.8997: real time   12.9236
       DOS:  cpu time    0.0032: real time    0.0032
    CHARGE:  cpu time    3.4683: real time    3.4732
    MIXING:  cpu time    1.2078: real time    1.2099
    --------------------------------------------
      LOOP:  cpu time   41.3617: real time   41.4261

 eigenvalue-minimisations  :    40
 total energy-change (2. order) :-0.7659396E-06  (-0.8165433E-09)
 number of electron      23.9999999 magnetization 
 augmentation part        2.0390610 magnetization 

 Broyden mixing:
  rms(total) = 0.15304E-05    rms(broyden)= 0.15304E-05
  rms(prec ) = 0.18136E-05
  weight for this iteration     100.00

 eigenvalues of (default mixing * dielectric matrix)
  average eigenvalue GAMMA=   2.4428
  9.6938  7.6158  5.7563  4.4556  3.3747  2.7902  2.4114  2.1255  2.1255  1.6284
  1.2350  1.0767  1.0767  0.9856  0.9856  0.7853  0.7853  1.0149  0.9628  0.9628
  0.9472  0.9472

 Free energy of the ion-electron system (eV)
  ---------------------------------------------------
  alpha Z        PSCENC =         0.05311416
  Ewald energy   TEWEN  =      1145.24402805
  -Hartree energ DENC   =     -2379.58314932
  -exchange      EXHF   =         0.00000000
  -V(xc)+E(xc)   XCENC  =       103.91116171
  PAW double counting   =      2105.90593766    -2112.47904741
  entropy T*S    EENTRO =        -0.00000000
  eigenvalues    EBANDS =      -369.60991182
  atomic energy  EATOM  =      1469.26749561
  Solvation  Ediel_sol  =         0.00000000
  ---------------------------------------------------
  free energy    TOTEN  =       -37.29037136 eV

  energy without entropy =      -37.29037136  energy(sigma->0) =      -37.29037136


--------------------------------------------------------------------------------------------------------




--------------------------------------- Iteration      1(  28)  ---------------------------------------


    POTLOK:  cpu time   23.6806: real time   23.7144
    SETDIJ:  cpu time    0.0486: real time    0.0486
     EDDAV:  cpu time   11.0540: real time   11.0749
       DOS:  cpu time    0.0011: real time    0.0011
    CHARGE:  cpu time    3.4047: real time    3.4096
    MIXING:  cpu time    1.4054: real time    1.4076
    --------------------------------------------
      LOOP:  cpu time   39.5944: real time   39.6561

 eigenvalue-minimisations  :    32
 total energy-change (2. order) :-0.3636883E-06  (-0.6799024E-09)
 number of electron      23.9999999 magnetization 
 augmentation part        2.0390609 magnetization 

 Broyden mixing:
  rms(total) = 0.81878E-06    rms(broyden)= 0.81878E-06
  rms(prec ) = 0.97309E-06
  weight for this iteration     100.00

 eigenvalues of (default mixing * dielectric matrix)
  average eigenvalue GAMMA=   2.4810
  9.7166  7.9193  6.0474  4.7540  3.7435  2.8887  2.4639  2.2554  2.2554  1.6893
  1.6893  1.1795  0.9850  0.9850  1.0606  1.0606  0.7853  0.7853  1.0549  0.9411
  0.9411  0.9305  0.9305

 Free energy of the ion-electron system (eV)
  ---------------------------------------------------
  alpha Z        PSCENC =         0.05311416
  Ewald energy   TEWEN  =      1145.24402805
  -Hartree energ DENC   =     -2379.58315496
  -exchange      EXHF   =         0.00000000
  -V(xc)+E(xc)   XCENC  =       103.91116129
  PAW double counting   =      2105.90573395    -2112.47884315
  entropy T*S    EENTRO =        -0.00000000
  eigenvalues    EBANDS =      -369.60990668
  atomic energy  EATOM  =      1469.26749561
  Solvation  Ediel_sol  =         0.00000000
  ---------------------------------------------------
  free energy    TOTEN  =       -37.29037173 eV

  energy without entropy =      -37.29037173  energy(sigma->0) =      -37.29037173


--------------------------------------------------------------------------------------------------------




--------------------------------------- Iteration      1(  29)  ---------------------------------------


    POTLOK:  cpu time   23.5876: real time   23.6212
    SETDIJ:  cpu time    0.0548: real time    0.0548
     EDDAV:  cpu time   12.8587: real time   12.8799
       DOS:  cpu time    0.0020: real time    0.0020
    CHARGE:  cpu time    3.4716: real time    3.4766
    MIXING:  cpu time    1.3766: real time    1.3789
    --------------------------------------------
      LOOP:  cpu time   41.3512: real time   41.4134

 eigenvalue-minimisations  :    40
 total energy-change (2. order) :-0.1765957E-06  (-0.5547367E-09)
 number of electron      23.9999999 magnetization 
 augmentation part        2.0390610 magnetization 

 Broyden mixing:
  rms(total) = 0.45407E-06    rms(broyden)= 0.45407E-06
  rms(prec ) = 0.53035E-06
  weight for this iteration     100.00

 eigenvalues of (default mixing * dielectric matrix)
  average eigenvalue GAMMA=   2.4954
  9.7636  8.0469  6.3354  4.9380  3.9337  3.0659  2.5340  2.5340  2.1577  2.1577
  1.6578  1.1831  1.1197  1.1197  0.9846  0.9846  0.7853  0.7853  1.0460  1.0460
  0.9347  0.9347  0.9201  0.9201

 Free energy of the ion-electron system (eV)
  ---------------------------------------------------
  alpha Z        PSCENC =         0.05311416
  Ewald energy   TEWEN  =      1145.24402805
  -Hartree energ DENC   =     -2379.58312801
  -exchange      EXHF   =         0.00000000
  -V(xc)+E(xc)   XCENC  =       103.91115983
  PAW double counting   =      2105.90599048    -2112.47909966
  entropy T*S    EENTRO =        -0.00000000
  eigenvalues    EBANDS =      -369.60993237
  atomic energy  EATOM  =      1469.26749561
  Solvation  Ediel_sol  =         0.00000000
  ---------------------------------------------------
  free energy    TOTEN  =       -37.29037190 eV

  energy without entropy =      -37.29037190  energy(sigma->0) =      -37.29037190


--------------------------------------------------------------------------------------------------------




--------------------------------------- Iteration      1(  30)  ---------------------------------------


    POTLOK:  cpu time   23.6282: real time   23.6614
    SETDIJ:  cpu time    0.0535: real time    0.0535
     EDDAV:  cpu time    9.2238: real time    9.2388
       DOS:  cpu time    0.0021: real time    0.0021
    --------------------------------------------
      LOOP:  cpu time   32.9076: real time   32.9558

 eigenvalue-minimisations  :    24
 total energy-change (2. order) :-0.7105473E-07  (-0.4932517E-09)
 number of electron      23.9999999 magnetization 
 augmentation part        2.0390610 magnetization 

 Free energy of the ion-electron system (eV)
  ---------------------------------------------------
  alpha Z        PSCENC =         0.05311416
  Ewald energy   TEWEN  =      1145.24402805
  -Hartree energ DENC   =     -2379.58312000
  -exchange      EXHF   =         0.00000000
  -V(xc)+E(xc)   XCENC  =       103.91115958
  PAW double counting   =      2105.90590084    -2112.47900990
  entropy T*S    EENTRO =        -0.00000000
  eigenvalues    EBANDS =      -369.60994032
  atomic energy  EATOM  =      1469.26749561
  Solvation  Ediel_sol  =         0.00000000
  ---------------------------------------------------
  free energy    TOTEN  =       -37.29037197 eV

  energy without entropy =      -37.29037197  energy(sigma->0) =      -37.29037197


--------------------------------------------------------------------------------------------------------




 average (electrostatic) potential at core
  the test charge radii are     0.5201  0.6991  0.7215
  (the norm of the test charge is              1.0000)
       1 -44.5012       2 -44.3646       3 -64.1287       4 -83.1991       5 -83.0850
       6 -80.2319
 
 
 
 E-fermi :  -6.8398     XC(G=0):  -0.0346     alpha+bet : -0.0089


 k-point     1 :       0.0000    0.0000    0.0000
  band No.  band energies     occupation 
      1     -29.6617      2.00000
      2     -28.6545      2.00000
      3     -25.0791      2.00000
      4     -14.3828      2.00000
      5     -13.2454      2.00000
      6     -13.1167      2.00000
      7     -13.1140      2.00000
      8     -12.6241      2.00000
      9      -9.5203      2.00000
     10      -9.5158      2.00000
     11      -8.9602      2.00000
     12      -6.9304      2.00000
     13      -1.3473      0.00000
     14      -0.9461      0.00000
     15      -0.9394      0.00000
     16      -0.3873      0.00000


--------------------------------------------------------------------------------------------------------


 soft charge-density along one line, spin component            1
         0         1         2         3         4         5         6         7         8         9
 total charge-density along one line
 
 pseudopotential strength for first ion, spin component:            1
 -2.377  -4.104   0.005  -0.016   0.001
 -4.104  -7.000   0.009  -0.031   0.001
  0.005   0.009  -0.321  -0.008   0.000
 -0.016  -0.031  -0.008  -0.295  -0.001
  0.001   0.001   0.000  -0.001  -0.325
 total augmentation occupancy for first ion, spin component:            1
  3.787  -0.789  -0.193   0.724  -0.028
 -0.789   0.219   0.034  -0.146   0.006
 -0.193   0.034   0.036  -0.028   0.001
  0.724  -0.146  -0.028   0.142  -0.004
 -0.028   0.006   0.001  -0.004   0.044


------------------------ aborting loop because EDIFF is reached ----------------------------------------



 DIPCOR: dipole corrections for dipol
 direction  1 min pos   389, direction  2 min pos   429, direction  3 min pos   447,
 dipolmoment          -0.011117      0.337172      0.292526 electrons x Angstroem
 Tr[quadrupol]        15.057664

 energy correction for charged system         0.000000 eV
 dipol+quadrupol energy correction            0.000140 eV
 added-field ion interaction          0.000000 eV  (added to PSCEN)

 
  *************** adding dipol energy to TOTEN NOW **************** 
    CHARGE:  cpu time    3.4328: real time    3.4379
    FORLOC:  cpu time    1.2350: real time    1.2366
    FORNL :  cpu time    0.4201: real time    0.4207
    STRESS:  cpu time    6.1677: real time    6.1774
    FORCOR:  cpu time   22.8914: real time   22.9226
    FORHAR:  cpu time    6.9141: real time    6.9239
    MIXING:  cpu time    1.4386: real time    1.4409
    OFIELD:  cpu time    0.0000: real time    0.0000

  FORCE on cell =-STRESS in cart. coord.  units (eV):
  Direction    XX          YY          ZZ          XY          YZ          ZX
  --------------------------------------------------------------------------------------
  Alpha Z     0.05311     0.05311     0.05311
  Ewald    -112.83241  1280.21405   -22.13745     1.41550   -37.24448    -3.44899
  Hartree   507.50899  1347.93188   524.14225     0.46262   -12.17235    -0.63181
  E(xc)    -111.76249  -109.13623  -111.39205     0.00358    -0.09415    -0.01410
  Local    -737.73435 -2867.11265  -818.28487    -1.59467    41.95867     3.06162
  n-local   -79.61392   -85.48921   -79.56139     0.01603    -0.42092    -0.00200
  augment    21.49915    16.72082    19.70625    -0.01825     0.47933     0.06824
  Kinetic   512.87952   418.87341   487.90519    -0.27776     7.30848     0.95053
  Fock        0.00000     0.00000     0.00000     0.00000     0.00000     0.00000
  -------------------------------------------------------------------------------------
  Total      -0.00240     2.05518     0.43104     0.00705    -0.18543    -0.01651
  in kB      -0.00009     0.07680     0.01611     0.00026    -0.00693    -0.00062
  external pressure =        0.03 kB  Pullay stress =        0.00 kB


 VOLUME and BASIS-vectors are now :
 -----------------------------------------------------------------------------
  energy-cutoff  :     1600.00
  volume of cell :    42875.00
      direct lattice vectors                 reciprocal lattice vectors
    35.000000000  0.000000000  0.000000000     0.028571429  0.000000000  0.000000000
     0.000000000 35.000000000  0.000000000     0.000000000  0.028571429  0.000000000
     0.000000000  0.000000000 35.000000000     0.000000000  0.000000000  0.028571429

  length of vectors
    35.000000000 35.000000000 35.000000000     0.028571429  0.028571429  0.028571429


 FORCES acting on ions
    electron-ion (+dipol)            ewald-force                    non-local-force                 convergence-correction
 -----------------------------------------------------------------------------------------------
   -.337E+01 -.375E+02 0.887E+02   0.370E+01 0.400E+02 -.974E+02   -.315E+00 -.236E+01 0.828E+01   0.178E-07 0.155E-06 -.245E-06
   0.133E+00 0.599E+02 -.350E+01   -.146E+00 -.691E+02 0.385E+01   0.106E-01 0.870E+01 -.279E+00   -.111E-08 -.347E-06 0.285E-06
   0.208E-01 0.267E+02 -.546E+00   -.213E-01 -.272E+02 0.560E+00   0.512E-04 0.243E+00 -.135E-02   -.373E-07 0.198E-05 -.538E-07
   0.696E-01 -.202E+03 -.183E+01   -.759E-01 0.265E+03 0.200E+01   0.657E-02 -.627E+02 -.173E+00   -.130E-06 0.116E-04 -.558E-06
   0.149E-01 0.306E+03 -.392E+00   -.161E-01 -.371E+03 0.425E+00   0.132E-02 0.648E+02 -.347E-01   -.969E-07 -.147E-05 0.833E-07
   0.195E+01 -.132E+03 -.512E+02   -.344E+01 0.162E+03 0.906E+02   0.148E+01 -.299E+02 -.390E+02   0.101E-07 0.724E-06 0.422E-05
 -----------------------------------------------------------------------------------------------
   -.118E+01 0.212E+02 0.312E+02   0.000E+00 0.000E+00 0.000E+00   0.118E+01 -.212E+02 -.312E+02   -.238E-06 0.126E-04 0.373E-05
 
 
 POSITION                                       TOTAL-FORCE (eV/Angst)
 -----------------------------------------------------------------------------------
      0.03541      4.55416     34.06830         0.017724      0.199125     -0.466296
      0.00000      3.35848      0.00000        -0.002490     -0.545759      0.065517
      0.00000      0.08826      0.00000        -0.000490     -0.304906      0.012879
      0.00000      1.25848      0.00000         0.000362      0.629129     -0.009528
      0.00000     33.91804      0.00000         0.000084     -0.393065     -0.002226
      0.00000      4.31985      0.00000        -0.015190      0.415475      0.399655
 -----------------------------------------------------------------------------------
    total drift:                                0.000002      0.000089     -0.000017


--------------------------------------------------------------------------------------------------------



  FREE ENERGIE OF THE ION-ELECTRON SYSTEM (eV)
  ---------------------------------------------------
  free  energy   TOTEN  =       -37.29023173 eV

  energy  without entropy=      -37.29023173  energy(sigma->0) =      -37.29023173
 


--------------------------------------------------------------------------------------------------------


    POTLOK:  cpu time   23.8280: real time   23.8613


--------------------------------------------------------------------------------------------------------


 writing wavefunctions
     LOOP+:  cpu time 1933.3740: real time 1941.0177
    4ORBIT:  cpu time    0.0000: real time    0.0015

 total amount of memory used by VASP MPI-rank0  3707962. kBytes
=======================================================================

   base      :      30000. kBytes
   nonl-proj :     112154. kBytes
   fftplans  :    1215227. kBytes
   grid      :    2325657. kBytes
   one-center:          1. kBytes
   wavefun   :      24923. kBytes
 
  
  
 General timing and accounting informations for this job:
 ========================================================
  
                  Total CPU time used (sec):     2762.066
                            User time (sec):     2662.983
                          System time (sec):       99.083
                         Elapsed time (sec):     2785.285
  
                   Maximum memory used (kb):     4517136.
                   Average memory used (kb):           0.
  
                          Minor page faults:     61967230
                          Major page faults:          336
                 Voluntary context switches:        23575
