 vasp.6.1.2 22Jul20 (build Jan  6 2021 09:55:43) gamma-only                      
 executed on             LinuxPGI date 2021.03.02  04:18:22
 running on   32 total cores
 distrk:  each k-point on   32 cores,    1 groups
 distr:  one band on NCORE=   8 cores,    4 groups


--------------------------------------------------------------------------------------------------------


 INCAR:
 POTCAR:    PAW_PBE H 15Jun2001                   
 POTCAR:    PAW_PBE C 08Apr2002                   
 POTCAR:    PAW_PBE O 08Apr2002                   
 POTCAR:    PAW_PBE H 15Jun2001                   
   VRHFIN =H: ultrasoft test                                                                        
   LEXCH  = PE                                                                                      
   EATOM  =    12.4884 eV,    0.9179 Ry                                                             
                                                                                                    
   TITEL  = PAW_PBE H 15Jun2001                                                                     
   LULTRA =        F    use ultrasoft PP ?                                                          
   IUNSCR =        0    unscreen: 0-lin 1-nonlin 2-no                                               
   RPACOR =    0.000    partial core radius                                                         
   POMASS =    1.000; ZVAL   =    1.000    mass and valenz                                          
   RCORE  =    1.100    outmost cutoff radius                                                       
   RWIGS  =    0.700; RWIGS  =    0.370    wigner-seitz radius (au A)                               
   ENMAX  =  250.000; ENMIN  =  200.000 eV                                                          
   RCLOC  =    0.701    cutoff for local pot                                                        
   LCOR   =        T    correct aug charges                                                         
   LPAW   =        T    paw PP                                                                      
   EAUG   =  400.000                                                                                
   RMAX   =    1.123    core radius for proj-oper                                                   
   RAUG   =    1.200    factor for augmentation sphere                                              
   RDEP   =    1.112    radius for radial grids                                                     
   RDEPT  =    0.926    core radius for aug-charge                                                  
                                                                                                    
   Atomic configuration                                                                             
    2 entries                                                                                       
     n  l   j            E        occ.                                                              
     1  0  0.50        -6.4927   1.0000                                                             
     2  1  0.50        -3.4015   0.0000                                                             
   Description                                                                                      
     l       E           TYP  RCUT    TYP  RCUT                                                     
     0     -6.4927494     23  1.100                                                                 
     0      6.8029130     23  1.100                                                                 
     1     -4.0817478     23  1.100                                                                 
  local pseudopotential read in
  atomic valenz-charges read in
  non local Contribution for L=            0  read in
    real space projection operators read in
  non local Contribution for L=            0  read in
    real space projection operators read in
  non local Contribution for L=            1  read in
    real space projection operators read in
    PAW grid and wavefunctions read in
 
   number of l-projection  operators is LMAX  =            3
   number of lm-projection operators is LMMAX =            5
 
 POTCAR:    PAW_PBE C 08Apr2002                   
   VRHFIN =C: s2p2                                                                                  
   LEXCH  = PE                                                                                      
   EATOM  =   147.1560 eV,   10.8157 Ry                                                             
                                                                                                    
   TITEL  = PAW_PBE C 08Apr2002                                                                     
   LULTRA =        F    use ultrasoft PP ?                                                          
   IUNSCR =        1    unscreen: 0-lin 1-nonlin 2-no                                               
   RPACOR =    1.200    partial core radius                                                         
   POMASS =   12.011; ZVAL   =    4.000    mass and valenz                                          
   RCORE  =    1.500    outmost cutoff radius                                                       
   RWIGS  =    1.630; RWIGS  =    0.863    wigner-seitz radius (au A)                               
   ENMAX  =  400.000; ENMIN  =  300.000 eV                                                          
   ICORE  =        2    local potential                                                             
   LCOR   =        T    correct aug charges                                                         
   LPAW   =        T    paw PP                                                                      
   EAUG   =  644.873                                                                                
   DEXC   =    0.000                                                                                
   RMAX   =    1.529    core radius for proj-oper                                                   
   RAUG   =    1.300    factor for augmentation sphere                                              
   RDEP   =    1.501    radius for radial grids                                                     
   RDEPT  =    1.300    core radius for aug-charge                                                  
                                                                                                    
   Atomic configuration                                                                             
    4 entries                                                                                       
     n  l   j            E        occ.                                                              
     1  0  0.50      -273.3789   2.0000                                                             
     2  0  0.50       -13.7508   2.0000                                                             
     2  1  0.50        -5.2854   2.0000                                                             
     3  2  1.50        -5.4423   0.0000                                                             
   Description                                                                                      
     l       E           TYP  RCUT    TYP  RCUT                                                     
     0    -13.7508458     23  1.200                                                                 
     0     -8.2022199     23  1.200                                                                 
     1     -5.2854383     23  1.500                                                                 
     1     34.0145650     23  1.500                                                                 
     2     -5.4423304      7  1.500                                                                 
  local pseudopotential read in
  partial core-charges read in
  partial kinetic energy density read in
  atomic valenz-charges read in
  non local Contribution for L=            0  read in
    real space projection operators read in
  non local Contribution for L=            0  read in
    real space projection operators read in
  non local Contribution for L=            1  read in
    real space projection operators read in
  non local Contribution for L=            1  read in
    real space projection operators read in
    PAW grid and wavefunctions read in
 
   number of l-projection  operators is LMAX  =            4
   number of lm-projection operators is LMMAX =            8
 
 POTCAR:    PAW_PBE O 08Apr2002                   
   VRHFIN =O: s2p4                                                                                  
   LEXCH  = PE                                                                                      
   EATOM  =   432.3788 eV,   31.7789 Ry                                                             
                                                                                                    
   TITEL  = PAW_PBE O 08Apr2002                                                                     
   LULTRA =        F    use ultrasoft PP ?                                                          
   IUNSCR =        1    unscreen: 0-lin 1-nonlin 2-no                                               
   RPACOR =    1.200    partial core radius                                                         
   POMASS =   16.000; ZVAL   =    6.000    mass and valenz                                          
   RCORE  =    1.520    outmost cutoff radius                                                       
   RWIGS  =    1.550; RWIGS  =    0.820    wigner-seitz radius (au A)                               
   ENMAX  =  400.000; ENMIN  =  300.000 eV                                                          
   ICORE  =        2    local potential                                                             
   LCOR   =        T    correct aug charges                                                         
   LPAW   =        T    paw PP                                                                      
   EAUG   =  605.392                                                                                
   DEXC   =    0.000                                                                                
   RMAX   =    1.553    core radius for proj-oper                                                   
   RAUG   =    1.300    factor for augmentation sphere                                              
   RDEP   =    1.550    radius for radial grids                                                     
   RDEPT  =    1.329    core radius for aug-charge                                                  
                                                                                                    
   Atomic configuration                                                                             
    4 entries                                                                                       
     n  l   j            E        occ.                                                              
     1  0  0.50      -514.6923   2.0000                                                             
     2  0  0.50       -23.9615   2.0000                                                             
     2  1  0.50        -9.0305   4.0000                                                             
     3  2  1.50        -9.5241   0.0000                                                             
   Description                                                                                      
     l       E           TYP  RCUT    TYP  RCUT                                                     
     0    -23.9615318     23  1.200                                                                 
     0     -9.5240782     23  1.200                                                                 
     1     -9.0304911     23  1.520                                                                 
     1      8.1634956     23  1.520                                                                 
     2     -9.5240782      7  1.500                                                                 
  local pseudopotential read in
  partial core-charges read in
  partial kinetic energy density read in
  kinetic energy density of atom read in
  atomic valenz-charges read in
  non local Contribution for L=            0  read in
    real space projection operators read in
  non local Contribution for L=            0  read in
    real space projection operators read in
  non local Contribution for L=            1  read in
    real space projection operators read in
  non local Contribution for L=            1  read in
    real space projection operators read in
    PAW grid and wavefunctions read in
 
   number of l-projection  operators is LMAX  =            4
   number of lm-projection operators is LMMAX =            8
 
  PAW_PBE H 15Jun2001                   :
 energy of atom  1       EATOM=  -12.4884
 kinetic energy error for atom=    0.0000 (will be added to EATOM!!)
  PAW_PBE C 08Apr2002                   :
 energy of atom  2       EATOM= -147.1560
 kinetic energy error for atom=    0.0002 (will be added to EATOM!!)
  PAW_PBE O 08Apr2002                   :
 energy of atom  3       EATOM= -432.3788
 kinetic energy error for atom=    0.0005 (will be added to EATOM!!)
 
 
 POSCAR:  H  C  O
  positions in cartesian coordinates
  No initial velocities read in
 exchange correlation table for  LEXCH =        8
   RHO(1)=    0.500       N(1)  =     2000
   RHO(2)=  100.500       N(2)  =     4000
 


--------------------------------------------------------------------------------------------------------


 ion  position               nearest neighbor table
   1  0.001  0.162  0.973-   6 0.96
   2  0.000  0.127  0.000-   6 0.96
   3  0.000  0.003  0.000-   4 1.17   5 1.17
   4  0.000  0.036  0.000-   3 1.17
   5  0.000  0.969  0.000-   3 1.17
   6  0.000  0.155  0.000-   2 0.96   1 0.96
 
  LATTYP: Found a simple cubic cell.
 ALAT       =    35.0000000000
  
  Lattice vectors:
  
 A1 = (  35.0000000000,   0.0000000000,   0.0000000000)
 A2 = (   0.0000000000,  35.0000000000,   0.0000000000)
 A3 = (   0.0000000000,   0.0000000000,  35.0000000000)


Analysis of symmetry for initial positions (statically):
=====================================================================
 Subroutine PRICEL returns:
 Original cell was already a primitive cell.
 

 Routine SETGRP: Setting up the symmetry group for a 
 simple cubic supercell.


 Subroutine GETGRP returns: Found  1 space group operations
 (whereof  1 operations were pure point group operations)
 out of a pool of 48 trial point group operations.


The static configuration has the point symmetry C_1 .


Analysis of symmetry for dynamics (positions and initial velocities):
=====================================================================
 Subroutine PRICEL returns:
 Original cell was already a primitive cell.
 

 Routine SETGRP: Setting up the symmetry group for a 
 simple cubic supercell.


 Subroutine GETGRP returns: Found  1 space group operations
 (whereof  1 operations were pure point group operations)
 out of a pool of 48 trial point group operations.


The dynamic configuration has the point symmetry C_1 .


 Subroutine INISYM returns: Found  1 space group operations
 (whereof  1 operations are pure point group operations),
 and found     1 'primitive' translations


----------------------------------------------------------------------------------------

                                     Primitive cell                                     

  volume of cell :   42875.0000

  direct lattice vectors                    reciprocal lattice vectors
    35.000000000  0.000000000  0.000000000     0.028571429  0.000000000  0.000000000
     0.000000000 35.000000000  0.000000000     0.000000000  0.028571429  0.000000000
     0.000000000  0.000000000 35.000000000     0.000000000  0.000000000  0.028571429

  length of vectors
    35.000000000 35.000000000 35.000000000     0.028571429  0.028571429  0.028571429

  position of ions in fractional coordinates (direct lattice)
     0.001011704  0.161547545  0.973379868
     0.000000000  0.127385029  0.000000000
     0.000000000  0.002521600  0.000000000
     0.000000000  0.035956457  0.000000000
     0.000000000  0.969086743  0.000000000
     0.000000000  0.154852743  0.000000000

  ion indices of the primitive-cell ions
   primitive index   ion index
                 1           1
                 2           2
                 3           3
                 4           4
                 5           5
                 6           6

----------------------------------------------------------------------------------------

 
 
 KPOINTS: automatic mesh                          

Automatic generation of k-mesh.
Space group operators:
 irot       det(A)        alpha          n_x          n_y          n_z        tau_x        tau_y        tau_z
    1     1.000000     0.000000     1.000000     0.000000     0.000000     0.000000     0.000000     0.000000
 
 Subroutine IBZKPT returns following result:
 ===========================================
 
 Found      1 irreducible k-points:
 
 Following reciprocal coordinates:
            Coordinates               Weight
  0.000000  0.000000  0.000000      1.000000
 
 Following cartesian coordinates:
            Coordinates               Weight
  0.000000  0.000000  0.000000      1.000000
 


--------------------------------------------------------------------------------------------------------




 Dimension of arrays:
   k-points           NKPTS =      1   k-points in BZ     NKDIM =      1   number of bands    NBANDS=     16
   number of dos      NEDOS =    301   number of ions     NIONS =      6
   non local maximal  LDIM  =      4   non local SUM 2l+1 LMDIM =      8
   total plane-waves  NPLWV = ******
   max r-space proj   IRMAX =      1   max aug-charges    IRDMAX=  33660
   dimension x,y,z NGX =   480 NGY =  480 NGZ =  480
   dimension x,y,z NGXF=   960 NGYF=  960 NGZF=  960
   support grid    NGXF=   960 NGYF=  960 NGZF=  960
   ions per type =               2   1   3
   NGX,Y,Z   is equivalent  to a cutoff of  22.80, 22.80, 22.80 a.u.
   NGXF,Y,Z  is equivalent  to a cutoff of  45.60, 45.60, 45.60 a.u.

 SYSTEM =  C                                       
 POSCAR =   H  C  O                                

 Startparameter for this run:
   NWRITE =      2    write-flag & timer
   PREC   = acc       normal or accurate (medium, high low for compatibility)
   ISTART =      0    job   : 0-new  1-cont  2-samecut
   ICHARG =      2    charge: 1-file 2-atom 10-const
   ISPIN  =      1    spin polarized calculation?
   LNONCOLLINEAR =      F non collinear calculations
   LSORBIT =      F    spin-orbit coupling
   INIWAV =      1    electr: 0-lowe 1-rand  2-diag
   LASPH  =      T    aspherical Exc in radial PAW
   METAGGA=      F    non-selfconsistent MetaGGA calc.

 Electronic Relaxation 1
   ENCUT  = 1600.0 eV 117.60 Ry   10.84 a.u. 114.15114.15114.15*2*pi/ulx,y,z
   ENINI  = 1600.0     initial cutoff
   ENAUG  =  644.9 eV  augmentation charge cutoff
   NELM   =     60;   NELMIN=  2; NELMDL= -5     # of ELM steps 
   EDIFF  = 0.1E-06   stopping-criterion for ELM
   LREAL  =      F    real-space projection
   NLSPLINE    = F    spline interpolate recip. space projectors
   LCOMPAT=      F    compatible to vasp.4.4
   GGA_COMPAT  = T    GGA compatible to vasp.4.4-vasp.4.6
   LMAXPAW     = -100 max onsite density
   LMAXMIX     =    2 max onsite mixed and CHGCAR
   VOSKOWN=      0    Vosko Wilk Nusair interpolation
   ROPT   =    0.00000   0.00000   0.00000
 Ionic relaxation
   EDIFFG = 0.1E-05   stopping-criterion for IOM
   NSW    =      0    number of steps for IOM
   NBLOCK =      1;   KBLOCK =      1    inner block; outer block 
   IBRION =     -1    ionic relax: 0-MD 1-quasi-New 2-CG
   NFREE  =      0    steps in history (QN), initial steepest desc. (CG)
   ISIF   =      2    stress and relaxation
   IWAVPR =     10    prediction:  0-non 1-charg 2-wave 3-comb
   ISYM   =      2    0-nonsym 1-usesym 2-fastsym
   LCORR  =      T    Harris-Foulkes like correction to forces

   POTIM  = 0.5000    time-step for ionic-motion
   TEIN   =    0.0    initial temperature
   TEBEG  =    0.0;   TEEND  =   0.0 temperature during run
   SMASS  =  -3.00    Nose mass-parameter (am)
   estimated Nose-frequenzy (Omega)   =  0.10E-29 period in steps = 0.13E+47 mass=  -0.280E-25a.u.
   SCALEE = 1.0000    scale energy and forces
   NPACO  =    256;   APACO  = 16.0  distance and # of slots for P.C.
   PSTRESS=    0.0 pullay stress

  Mass of Ions in am
   POMASS =   1.00 12.01 16.00
  Ionic Valenz
   ZVAL   =   1.00  4.00  6.00
  Atomic Wigner-Seitz radii
   RWIGS  =  -1.00 -1.00 -1.00
  virtual crystal weights 
   VCA    =   1.00  1.00  1.00
   NELECT =      24.0000    total number of electrons
   NUPDOWN=      -1.0000    fix difference up-down

 DOS related values:
   EMIN   =  10.00;   EMAX   =-10.00  energy-range for DOS
   EFERMI =   0.00
   ISMEAR =     0;   SIGMA  =   0.01  broadening in eV -4-tet -1-fermi 0-gaus

 Electronic relaxation 2 (details)
   IALGO  =     38    algorithm
   LDIAG  =      T    sub-space diagonalisation (order eigenvalues)
   LSUBROT=      F    optimize rotation matrix (better conditioning)
   TURBO    =      0    0=normal 1=particle mesh
   IRESTART =      0    0=no restart 2=restart with 2 vectors
   NREBOOT  =      0    no. of reboots
   NMIN     =      0    reboot dimension
   EREF     =   0.00    reference energy to select bands
   IMIX   =      4    mixing-type and parameters
     AMIX     =   0.40;   BMIX     =  1.00
     AMIX_MAG =   1.60;   BMIX_MAG =  1.00
     AMIN     =   0.10
     WC   =   100.;   INIMIX=   1;  MIXPRE=   1;  MAXMIX= -45

 Intra band minimization:
   WEIMIN = 0.0000     energy-eigenvalue tresh-hold
   EBREAK =  0.16E-08  absolut break condition
   DEPER  =   0.30     relativ break condition  

   TIME   =   0.40     timestep for ELM

  volume/ion in A,a.u.               =    7145.83     48222.46
  Fermi-wavevector in a.u.,A,eV,Ry     =   0.134920  0.254962  0.247673  0.018203
  Thomas-Fermi vector in A             =   0.783236
 
 Write flags
   LWAVE        =      T    write WAVECAR
   LDOWNSAMPLE  =      F    k-point downsampling of WAVECAR
   LCHARG       =      T    write CHGCAR
   LVTOT        =      F    write LOCPOT, total local potential
   LVHAR        =      F    write LOCPOT, Hartree potential only
   LELF         =      F    write electronic localiz. function (ELF)
   LORBIT       =      0    0 simple, 1 ext, 2 COOP (PROOUT), +10 PAW based schemes


 Dipole corrections
   LMONO  =      F    monopole corrections only (constant potential shift)
   LDIPOL =      F    correct potential (dipole corrections)
   IDIPOL =      4    1-x, 2-y, 3-z, 4-all directions 
   EPSILON=  1.0000000 bulk dielectric constant

 Exchange correlation treatment:
   GGA     =    --    GGA type
   LEXCH   =     8    internal setting for exchange type
   VOSKOWN=      0    Vosko Wilk Nusair interpolation
   LHFCALC =     F    Hartree Fock is set to
   LHFONE  =     F    Hartree Fock one center treatment
   AEXX    =    0.0000 exact exchange contribution

 Linear response parameters
   LEPSILON=     F    determine dielectric tensor
   LRPA    =     F    only Hartree local field effects (RPA)
   LNABLA  =     F    use nabla operator in PAW spheres
   LVEL    =     F    velocity operator in full k-point grid
   LINTERFAST=   F  fast interpolation
   KINTER  =     0    interpolate to denser k-point grid
   CSHIFT  =0.1000    complex shift for real part using Kramers Kronig
   OMEGAMAX=  -1.0    maximum frequency
   DEG_THRESHOLD= 0.2000000E-02 threshold for treating states as degnerate
   RTIME   =   -0.100 relaxation time in fs
  (WPLASMAI=    0.000 imaginary part of plasma frequency in eV, 0.658/RTIME)
   DFIELD  = 0.0000000 0.0000000 0.0000000 field for delta impulse in time
 
 Orbital magnetization related:
   ORBITALMAG=     F  switch on orbital magnetization
   LCHIMAG   =     F  perturbation theory with respect to B field
   DQ        =  0.001000  dq finite difference perturbation B field
   LLRAUG    =     F  two centre corrections for induced B field



--------------------------------------------------------------------------------------------------------


 Static calculation
 charge density and potential will be updated during run
 non-spin polarized calculation
 Variant of blocked Davidson
 Davidson routine will perform the subspace rotation
 perform sub-space diagonalisation
    after iterative eigenvector-optimisation
 modified Broyden-mixing scheme, WC =      100.0
 initial mixing is a Kerker type mixing with AMIX =  0.4000 and BMIX =      1.0000
 Hartree-type preconditioning will be used
 using additional bands             4
 reciprocal scheme for non local part
 use partial core corrections
 calculate Harris-corrections to forces 
   (improved forces if not selfconsistent)
 use gradient corrections 
 use of overlap-Matrix (Vanderbilt PP)
 Gauss-broadening in eV      SIGMA  =   0.01


--------------------------------------------------------------------------------------------------------


  energy-cutoff  :     1600.00
  volume of cell :    42875.00
      direct lattice vectors                 reciprocal lattice vectors
    35.000000000  0.000000000  0.000000000     0.028571429  0.000000000  0.000000000
     0.000000000 35.000000000  0.000000000     0.000000000  0.028571429  0.000000000
     0.000000000  0.000000000 35.000000000     0.000000000  0.000000000  0.028571429

  length of vectors
    35.000000000 35.000000000 35.000000000     0.028571429  0.028571429  0.028571429


 
 k-points in units of 2pi/SCALE and weight: automatic mesh                          
   0.00000000  0.00000000  0.00000000       1.000
 
 k-points in reciprocal lattice and weights: automatic mesh                          
   0.00000000  0.00000000  0.00000000       1.000
 
 position of ions in fractional coordinates (direct lattice) 
   0.00101170  0.16154755  0.97337987
   0.00000000  0.12738503  0.00000000
   0.00000000  0.00252160  0.00000000
   0.00000000  0.03595646  0.00000000
   0.00000000  0.96908674  0.00000000
   0.00000000  0.15485274  0.00000000
 
 position of ions in cartesian coordinates  (Angst):
   0.03540965  5.65416408 34.06829539
   0.00000000  4.45847600  0.00000000
   0.00000000  0.08825600  0.00000000
   0.00000000  1.25847600  0.00000000
   0.00000000 33.91803600  0.00000000
   0.00000000  5.41984600  0.00000000
 


--------------------------------------------------------------------------------------------------------


 use parallel FFT for orbitals z direction half grid
 k-point   1 :   0.0000 0.0000 0.0000  plane waves: 3115599

 maximum and minimum number of plane-waves per node :    389462   389421

 maximum number of plane-waves:   3115599
 maximum index in each direction: 
   IXMAX=  114   IYMAX=  114   IZMAX=  114
   IXMIN= -114   IYMIN= -114   IZMIN=    0


 parallel 3D FFT for wavefunctions:
    minimum data exchange during FFTs selected (reduces bandwidth)
 parallel 3D FFT for charge:
    minimum data exchange during FFTs selected (reduces bandwidth)


 total amount of memory used by VASP MPI-rank0  3707962. kBytes
=======================================================================

   base      :      30000. kBytes
   nonl-proj :     112154. kBytes
   fftplans  :    1215227. kBytes
   grid      :    2325657. kBytes
   one-center:          1. kBytes
   wavefun   :      24923. kBytes
 
     INWAV:  cpu time    0.0000: real time    0.0000
 Broyden mixing: mesh for mixing (old mesh)
   NGX =229   NGY =229   NGZ =229
  (NGX  =960   NGY  =960   NGZ  =960)
  gives a total of ****** points

 initial charge density was supplied:
 charge density of overlapping atoms calculated
 number of electron      24.0000000 magnetization 
 keeping initial charge density in first step


--------------------------------------------------------------------------------------------------------


 Maximum index for augmentation-charges          1234 (set IRDMAX)


--------------------------------------------------------------------------------------------------------


 First call to EWALD:  gamma=   0.051
 Maximum number of real-space cells 3x 3x 3
 Maximum number of reciprocal cells 3x 3x 3

    FEWALD:  cpu time    0.0015: real time    0.0015


--------------------------------------- Iteration      1(   1)  ---------------------------------------


    POTLOK:  cpu time   22.5100: real time   22.5386
    SETDIJ:  cpu time    0.0485: real time    0.0493
     EDDAV:  cpu time   15.9748: real time   16.0325
       DOS:  cpu time    0.0068: real time    0.0068
    --------------------------------------------
      LOOP:  cpu time   38.5400: real time   38.6273

 eigenvalue-minimisations  :    48
 total energy-change (2. order) : 0.2513632E+03  (-0.4630292E+03)
 number of electron      24.0000000 magnetization 
 augmentation part       24.0000000 magnetization 

 Free energy of the ion-electron system (eV)
  ---------------------------------------------------
  alpha Z        PSCENC =         0.05311416
  Ewald energy   TEWEN  =      1035.10936977
  -Hartree energ DENC   =     -2197.94859001
  -exchange      EXHF   =         0.00000000
  -V(xc)+E(xc)   XCENC  =        99.80465715
  PAW double counting   =      1152.43853192    -1158.42170530
  entropy T*S    EENTRO =        -0.00273149
  eigenvalues    EBANDS =      -148.93694162
  atomic energy  EATOM  =      1469.26749561
  Solvation  Ediel_sol  =         0.00000000
  ---------------------------------------------------
  free energy    TOTEN  =       251.36320020 eV

  energy without entropy =      251.36593169  energy(sigma->0) =      251.36456595


--------------------------------------------------------------------------------------------------------




--------------------------------------- Iteration      1(   2)  ---------------------------------------


     EDDAV:  cpu time   19.9606: real time   19.9902
       DOS:  cpu time    0.0024: real time    0.0023
    --------------------------------------------
      LOOP:  cpu time   19.9629: real time   19.9925

 eigenvalue-minimisations  :    64
 total energy-change (2. order) :-0.1439665E+03  (-0.1437071E+03)
 number of electron      24.0000000 magnetization 
 augmentation part       24.0000000 magnetization 

 Free energy of the ion-electron system (eV)
  ---------------------------------------------------
  alpha Z        PSCENC =         0.05311416
  Ewald energy   TEWEN  =      1035.10936977
  -Hartree energ DENC   =     -2197.94859001
  -exchange      EXHF   =         0.00000000
  -V(xc)+E(xc)   XCENC  =        99.80465715
  PAW double counting   =      1152.43853192    -1158.42170530
  entropy T*S    EENTRO =        -0.00000000
  eigenvalues    EBANDS =      -292.90612819
  atomic energy  EATOM  =      1469.26749561
  Solvation  Ediel_sol  =         0.00000000
  ---------------------------------------------------
  free energy    TOTEN  =       107.39674512 eV

  energy without entropy =      107.39674512  energy(sigma->0) =      107.39674512


--------------------------------------------------------------------------------------------------------




--------------------------------------- Iteration      1(   3)  ---------------------------------------


     EDDAV:  cpu time   16.0632: real time   16.0873
       DOS:  cpu time    0.0113: real time    0.0113
    --------------------------------------------
      LOOP:  cpu time   16.0745: real time   16.0986

 eigenvalue-minimisations  :    48
 total energy-change (2. order) :-0.1124086E+03  (-0.1122612E+03)
 number of electron      24.0000000 magnetization 
 augmentation part       24.0000000 magnetization 

 Free energy of the ion-electron system (eV)
  ---------------------------------------------------
  alpha Z        PSCENC =         0.05311416
  Ewald energy   TEWEN  =      1035.10936977
  -Hartree energ DENC   =     -2197.94859001
  -exchange      EXHF   =         0.00000000
  -V(xc)+E(xc)   XCENC  =        99.80465715
  PAW double counting   =      1152.43853192    -1158.42170530
  entropy T*S    EENTRO =        -0.00000000
  eigenvalues    EBANDS =      -405.31469793
  atomic energy  EATOM  =      1469.26749561
  Solvation  Ediel_sol  =         0.00000000
  ---------------------------------------------------
  free energy    TOTEN  =        -5.01182461 eV

  energy without entropy =       -5.01182461  energy(sigma->0) =       -5.01182461


--------------------------------------------------------------------------------------------------------




--------------------------------------- Iteration      1(   4)  ---------------------------------------


     EDDAV:  cpu time   11.9167: real time   11.9345
       DOS:  cpu time    0.0325: real time    0.0325
    --------------------------------------------
      LOOP:  cpu time   11.9492: real time   11.9669

 eigenvalue-minimisations  :    32
 total energy-change (2. order) :-0.3511623E+02  (-0.3511245E+02)
 number of electron      24.0000000 magnetization 
 augmentation part       24.0000000 magnetization 

 Free energy of the ion-electron system (eV)
  ---------------------------------------------------
  alpha Z        PSCENC =         0.05311416
  Ewald energy   TEWEN  =      1035.10936977
  -Hartree energ DENC   =     -2197.94859001
  -exchange      EXHF   =         0.00000000
  -V(xc)+E(xc)   XCENC  =        99.80465715
  PAW double counting   =      1152.43853192    -1158.42170530
  entropy T*S    EENTRO =        -0.00000000
  eigenvalues    EBANDS =      -440.43093064
  atomic energy  EATOM  =      1469.26749561
  Solvation  Ediel_sol  =         0.00000000
  ---------------------------------------------------
  free energy    TOTEN  =       -40.12805733 eV

  energy without entropy =      -40.12805733  energy(sigma->0) =      -40.12805733


--------------------------------------------------------------------------------------------------------




--------------------------------------- Iteration      1(   5)  ---------------------------------------


     EDDAV:  cpu time   11.9006: real time   11.9181
       DOS:  cpu time    0.0016: real time    0.0016
    CHARGE:  cpu time    3.6163: real time    3.6207
    MIXING:  cpu time    0.5158: real time    0.5165
    --------------------------------------------
      LOOP:  cpu time   16.0343: real time   16.0569

 eigenvalue-minimisations  :    32
 total energy-change (2. order) :-0.9551591E+00  (-0.9551561E+00)
 number of electron      23.9999999 magnetization 
 augmentation part        2.3566635 magnetization 

 Broyden mixing:
  rms(total) = 0.12310E+01    rms(broyden)= 0.12310E+01
  rms(prec ) = 0.12623E+01
  weight for this iteration     100.00

 Free energy of the ion-electron system (eV)
  ---------------------------------------------------
  alpha Z        PSCENC =         0.05311416
  Ewald energy   TEWEN  =      1035.10936977
  -Hartree energ DENC   =     -2197.94859001
  -exchange      EXHF   =         0.00000000
  -V(xc)+E(xc)   XCENC  =        99.80465715
  PAW double counting   =      1152.43853192    -1158.42170530
  entropy T*S    EENTRO =        -0.00000000
  eigenvalues    EBANDS =      -441.38608975
  atomic energy  EATOM  =      1469.26749561
  Solvation  Ediel_sol  =         0.00000000
  ---------------------------------------------------
  free energy    TOTEN  =       -41.08321644 eV

  energy without entropy =      -41.08321644  energy(sigma->0) =      -41.08321644


--------------------------------------------------------------------------------------------------------




--------------------------------------- Iteration      1(   6)  ---------------------------------------


    POTLOK:  cpu time   22.3414: real time   22.3822
    SETDIJ:  cpu time    0.0412: real time    0.0412
     EDDAV:  cpu time   12.0542: real time   12.0749
       DOS:  cpu time    0.0214: real time    0.0214
    CHARGE:  cpu time    3.5445: real time    3.5491
    MIXING:  cpu time    0.5509: real time    0.5615
    --------------------------------------------
      LOOP:  cpu time   38.5537: real time   38.6303

 eigenvalue-minimisations  :    32
 total energy-change (2. order) : 0.3482066E+01  (-0.1653491E+01)
 number of electron      23.9999999 magnetization 
 augmentation part        2.0405503 magnetization 

 Broyden mixing:
  rms(total) = 0.53637E+00    rms(broyden)= 0.53637E+00
  rms(prec ) = 0.54263E+00
  weight for this iteration     100.00

 eigenvalues of (default mixing * dielectric matrix)
  average eigenvalue GAMMA=   1.0003
  1.0003

 Free energy of the ion-electron system (eV)
  ---------------------------------------------------
  alpha Z        PSCENC =         0.05311416
  Ewald energy   TEWEN  =      1035.10936977
  -Hartree energ DENC   =     -2248.12491977
  -exchange      EXHF   =         0.00000000
  -V(xc)+E(xc)   XCENC  =       102.71374649
  PAW double counting   =      1511.31333506    -1518.07694605
  entropy T*S    EENTRO =        -0.00000000
  eigenvalues    EBANDS =      -389.85634562
  atomic energy  EATOM  =      1469.26749561
  Solvation  Ediel_sol  =         0.00000000
  ---------------------------------------------------
  free energy    TOTEN  =       -37.60115035 eV

  energy without entropy =      -37.60115035  energy(sigma->0) =      -37.60115035


--------------------------------------------------------------------------------------------------------




--------------------------------------- Iteration      1(   7)  ---------------------------------------


    POTLOK:  cpu time   22.2392: real time   22.2681
    SETDIJ:  cpu time    0.0842: real time    0.0842
     EDDAV:  cpu time   15.8379: real time   15.8704
       DOS:  cpu time    0.0238: real time    0.0238
    CHARGE:  cpu time    3.5914: real time    3.5961
    MIXING:  cpu time    0.5098: real time    0.5105
    --------------------------------------------
      LOOP:  cpu time   42.2864: real time   42.3531

 eigenvalue-minimisations  :    48
 total energy-change (2. order) : 0.2149680E+00  (-0.4172923E-01)
 number of electron      23.9999999 magnetization 
 augmentation part        2.0447307 magnetization 

 Broyden mixing:
  rms(total) = 0.31702E+00    rms(broyden)= 0.31702E+00
  rms(prec ) = 0.32111E+00
  weight for this iteration     100.00

 eigenvalues of (default mixing * dielectric matrix)
  average eigenvalue GAMMA=   1.6741
  1.0284  2.3198

 Free energy of the ion-electron system (eV)
  ---------------------------------------------------
  alpha Z        PSCENC =         0.05311416
  Ewald energy   TEWEN  =      1035.10936977
  -Hartree energ DENC   =     -2257.04733253
  -exchange      EXHF   =         0.00000000
  -V(xc)+E(xc)   XCENC  =       103.15739021
  PAW double counting   =      1738.26252107    -1744.91452999
  entropy T*S    EENTRO =        -0.00000000
  eigenvalues    EBANDS =      -381.27421063
  atomic energy  EATOM  =      1469.26749561
  Solvation  Ediel_sol  =         0.00000000
  ---------------------------------------------------
  free energy    TOTEN  =       -37.38618231 eV

  energy without entropy =      -37.38618231  energy(sigma->0) =      -37.38618231


--------------------------------------------------------------------------------------------------------




--------------------------------------- Iteration      1(   8)  ---------------------------------------


    POTLOK:  cpu time   22.3720: real time   22.4083
    SETDIJ:  cpu time    0.0479: real time    0.0479
     EDDAV:  cpu time   15.9388: real time   15.9711
       DOS:  cpu time    0.0305: real time    0.0305
    CHARGE:  cpu time    3.5534: real time    3.5579
    MIXING:  cpu time    0.5518: real time    0.5526
    --------------------------------------------
      LOOP:  cpu time   42.4946: real time   42.5683

 eigenvalue-minimisations  :    48
 total energy-change (2. order) : 0.1345354E+00  (-0.3242904E-01)
 number of electron      23.9999999 magnetization 
 augmentation part        2.0462263 magnetization 

 Broyden mixing:
  rms(total) = 0.61078E-01    rms(broyden)= 0.61078E-01
  rms(prec ) = 0.64108E-01
  weight for this iteration     100.00

 eigenvalues of (default mixing * dielectric matrix)
  average eigenvalue GAMMA=   1.3675
  2.4037  0.9994  0.6995

 Free energy of the ion-electron system (eV)
  ---------------------------------------------------
  alpha Z        PSCENC =         0.05311416
  Ewald energy   TEWEN  =      1035.10936977
  -Hartree energ DENC   =     -2269.05180967
  -exchange      EXHF   =         0.00000000
  -V(xc)+E(xc)   XCENC  =       103.79266442
  PAW double counting   =      2084.33985131    -2090.93195944
  entropy T*S    EENTRO =        -0.00000000
  eigenvalues    EBANDS =      -369.83037313
  atomic energy  EATOM  =      1469.26749561
  Solvation  Ediel_sol  =         0.00000000
  ---------------------------------------------------
  free energy    TOTEN  =       -37.25164696 eV

  energy without entropy =      -37.25164696  energy(sigma->0) =      -37.25164696


--------------------------------------------------------------------------------------------------------




--------------------------------------- Iteration      1(   9)  ---------------------------------------


    POTLOK:  cpu time   22.3749: real time   22.4034
    SETDIJ:  cpu time    0.0464: real time    0.0464
     EDDAV:  cpu time   17.8655: real time   17.8910
       DOS:  cpu time    0.0305: real time    0.0305
    CHARGE:  cpu time    3.6141: real time    3.6190
    MIXING:  cpu time    0.5525: real time    0.5533
    --------------------------------------------
      LOOP:  cpu time   44.4839: real time   44.5437

 eigenvalue-minimisations  :    56
 total energy-change (2. order) : 0.7439590E-02  (-0.2230227E-02)
 number of electron      23.9999999 magnetization 
 augmentation part        2.0394647 magnetization 

 Broyden mixing:
  rms(total) = 0.34115E-01    rms(broyden)= 0.34115E-01
  rms(prec ) = 0.36733E-01
  weight for this iteration     100.00

 eigenvalues of (default mixing * dielectric matrix)
  average eigenvalue GAMMA=   1.4560
  2.4476  1.0229  1.0229  1.3307

 Free energy of the ion-electron system (eV)
  ---------------------------------------------------
  alpha Z        PSCENC =         0.05311416
  Ewald energy   TEWEN  =      1035.10936977
  -Hartree energ DENC   =     -2269.84440251
  -exchange      EXHF   =         0.00000000
  -V(xc)+E(xc)   XCENC  =       103.84051637
  PAW double counting   =      2102.62938522    -2109.22163981
  entropy T*S    EENTRO =        -0.00000000
  eigenvalues    EBANDS =      -369.07804619
  atomic energy  EATOM  =      1469.26749561
  Solvation  Ediel_sol  =         0.00000000
  ---------------------------------------------------
  free energy    TOTEN  =       -37.24420737 eV

  energy without entropy =      -37.24420737  energy(sigma->0) =      -37.24420737


--------------------------------------------------------------------------------------------------------




--------------------------------------- Iteration      1(  10)  ---------------------------------------


    POTLOK:  cpu time   22.3581: real time   22.3899
    SETDIJ:  cpu time    0.0409: real time    0.0410
     EDDAV:  cpu time   12.0424: real time   12.0710
       DOS:  cpu time    0.0250: real time    0.0250
    CHARGE:  cpu time    3.5398: real time    3.5494
    MIXING:  cpu time    0.5974: real time    0.5982
    --------------------------------------------
      LOOP:  cpu time   38.6037: real time   38.6744

 eigenvalue-minimisations  :    32
 total energy-change (2. order) :-0.3552513E-03  (-0.1382157E-02)
 number of electron      23.9999999 magnetization 
 augmentation part        2.0352350 magnetization 

 Broyden mixing:
  rms(total) = 0.13493E-01    rms(broyden)= 0.13493E-01
  rms(prec ) = 0.16079E-01
  weight for this iteration     100.00

 eigenvalues of (default mixing * dielectric matrix)
  average eigenvalue GAMMA=   1.4176
  2.3709  1.3649  1.3649  0.8439  1.1433

 Free energy of the ion-electron system (eV)
  ---------------------------------------------------
  alpha Z        PSCENC =         0.05311416
  Ewald energy   TEWEN  =      1035.10936977
  -Hartree energ DENC   =     -2270.32952134
  -exchange      EXHF   =         0.00000000
  -V(xc)+E(xc)   XCENC  =       103.85742571
  PAW double counting   =      2110.63395467    -2117.20369230
  entropy T*S    EENTRO =        -0.00000000
  eigenvalues    EBANDS =      -368.63270890
  atomic energy  EATOM  =      1469.26749561
  Solvation  Ediel_sol  =         0.00000000
  ---------------------------------------------------
  free energy    TOTEN  =       -37.24456262 eV

  energy without entropy =      -37.24456262  energy(sigma->0) =      -37.24456262


--------------------------------------------------------------------------------------------------------




--------------------------------------- Iteration      1(  11)  ---------------------------------------


    POTLOK:  cpu time   22.3736: real time   22.4048
    SETDIJ:  cpu time    0.0536: real time    0.0536
     EDDAV:  cpu time   17.8024: real time   17.8290
       DOS:  cpu time    0.0162: real time    0.0162
    CHARGE:  cpu time    3.4659: real time    3.4701
    MIXING:  cpu time    0.7000: real time    0.7009
    --------------------------------------------
      LOOP:  cpu time   44.4116: real time   44.4746

 eigenvalue-minimisations  :    56
 total energy-change (2. order) :-0.2740831E-02  (-0.2578225E-03)
 number of electron      23.9999999 magnetization 
 augmentation part        2.0374632 magnetization 

 Broyden mixing:
  rms(total) = 0.89243E-02    rms(broyden)= 0.89243E-02
  rms(prec ) = 0.11472E-01
  weight for this iteration     100.00

 eigenvalues of (default mixing * dielectric matrix)
  average eigenvalue GAMMA=   1.4897
  2.5431  2.5431  1.0431  1.0431  1.0318  0.7341

 Free energy of the ion-electron system (eV)
  ---------------------------------------------------
  alpha Z        PSCENC =         0.05311416
  Ewald energy   TEWEN  =      1035.10936977
  -Hartree energ DENC   =     -2270.41615758
  -exchange      EXHF   =         0.00000000
  -V(xc)+E(xc)   XCENC  =       103.84659996
  PAW double counting   =      2107.16858522    -2113.73084318
  entropy T*S    EENTRO =        -0.00000000
  eigenvalues    EBANDS =      -368.54546742
  atomic energy  EATOM  =      1469.26749561
  Solvation  Ediel_sol  =         0.00000000
  ---------------------------------------------------
  free energy    TOTEN  =       -37.24730345 eV

  energy without entropy =      -37.24730345  energy(sigma->0) =      -37.24730345


--------------------------------------------------------------------------------------------------------




--------------------------------------- Iteration      1(  12)  ---------------------------------------


    POTLOK:  cpu time   22.3449: real time   22.3750
    SETDIJ:  cpu time    0.0724: real time    0.0725
     EDDAV:  cpu time   15.7906: real time   15.8217
       DOS:  cpu time    0.0156: real time    0.0156
    CHARGE:  cpu time    3.5200: real time    3.5248
    MIXING:  cpu time    0.6473: real time    0.6482
    --------------------------------------------
      LOOP:  cpu time   42.3908: real time   42.4577

 eigenvalue-minimisations  :    48
 total energy-change (2. order) :-0.3497535E-02  (-0.2240401E-03)
 number of electron      23.9999999 magnetization 
 augmentation part        2.0354829 magnetization 

 Broyden mixing:
  rms(total) = 0.62183E-02    rms(broyden)= 0.62183E-02
  rms(prec ) = 0.78165E-02
  weight for this iteration     100.00

 eigenvalues of (default mixing * dielectric matrix)
  average eigenvalue GAMMA=   1.6350
  3.4916  2.4427  1.6646  1.0354  1.0354  0.9947  0.7804

 Free energy of the ion-electron system (eV)
  ---------------------------------------------------
  alpha Z        PSCENC =         0.05311416
  Ewald energy   TEWEN  =      1035.10936977
  -Hartree energ DENC   =     -2270.90702202
  -exchange      EXHF   =         0.00000000
  -V(xc)+E(xc)   XCENC  =       103.85892471
  PAW double counting   =      2107.26377958    -2113.82089828
  entropy T*S    EENTRO =        -0.00000000
  eigenvalues    EBANDS =      -368.07556452
  atomic energy  EATOM  =      1469.26749561
  Solvation  Ediel_sol  =         0.00000000
  ---------------------------------------------------
  free energy    TOTEN  =       -37.25080098 eV

  energy without entropy =      -37.25080098  energy(sigma->0) =      -37.25080098


--------------------------------------------------------------------------------------------------------




--------------------------------------- Iteration      1(  13)  ---------------------------------------


    POTLOK:  cpu time   22.4119: real time   22.4396
    SETDIJ:  cpu time    0.0463: real time    0.0463
     EDDAV:  cpu time   15.9368: real time   15.9602
       DOS:  cpu time    0.0245: real time    0.0245
    CHARGE:  cpu time    3.4726: real time    3.4771
    MIXING:  cpu time    0.6968: real time    0.7067
    --------------------------------------------
      LOOP:  cpu time   42.5888: real time   42.6543

 eigenvalue-minimisations  :    48
 total energy-change (2. order) :-0.5166209E-02  (-0.1299793E-03)
 number of electron      23.9999999 magnetization 
 augmentation part        2.0357205 magnetization 

 Broyden mixing:
  rms(total) = 0.24783E-02    rms(broyden)= 0.24783E-02
  rms(prec ) = 0.36238E-02
  weight for this iteration     100.00

 eigenvalues of (default mixing * dielectric matrix)
  average eigenvalue GAMMA=   1.6741
  4.0305  2.4612  2.1231  1.0302  1.0302  1.0099  0.9265  0.7812

 Free energy of the ion-electron system (eV)
  ---------------------------------------------------
  alpha Z        PSCENC =         0.05311416
  Ewald energy   TEWEN  =      1035.10936977
  -Hartree energ DENC   =     -2271.40737771
  -exchange      EXHF   =         0.00000000
  -V(xc)+E(xc)   XCENC  =       103.86719298
  PAW double counting   =      2105.50815309    -2112.06795501
  entropy T*S    EENTRO =        -0.00000000
  eigenvalues    EBANDS =      -367.58596009
  atomic energy  EATOM  =      1469.26749561
  Solvation  Ediel_sol  =         0.00000000
  ---------------------------------------------------
  free energy    TOTEN  =       -37.25596719 eV

  energy without entropy =      -37.25596719  energy(sigma->0) =      -37.25596719


--------------------------------------------------------------------------------------------------------




--------------------------------------- Iteration      1(  14)  ---------------------------------------


    POTLOK:  cpu time   22.4141: real time   22.4424
    SETDIJ:  cpu time    0.0410: real time    0.0410
     EDDAV:  cpu time   15.8680: real time   15.8969
       DOS:  cpu time    0.0312: real time    0.0312
    CHARGE:  cpu time    3.4729: real time    3.4845
    MIXING:  cpu time    0.7236: real time    0.7245
    --------------------------------------------
      LOOP:  cpu time   42.5508: real time   42.6206

 eigenvalue-minimisations  :    48
 total energy-change (2. order) :-0.2813849E-02  (-0.4133886E-04)
 number of electron      23.9999999 magnetization 
 augmentation part        2.0354855 magnetization 

 Broyden mixing:
  rms(total) = 0.19116E-02    rms(broyden)= 0.19116E-02
  rms(prec ) = 0.26037E-02
  weight for this iteration     100.00

 eigenvalues of (default mixing * dielectric matrix)
  average eigenvalue GAMMA=   1.8513
  5.2211  2.8224  2.3091  1.6801  1.0385  1.0385  0.8822  0.8822  0.7876

 Free energy of the ion-electron system (eV)
  ---------------------------------------------------
  alpha Z        PSCENC =         0.05311416
  Ewald energy   TEWEN  =      1035.10936977
  -Hartree energ DENC   =     -2271.55233496
  -exchange      EXHF   =         0.00000000
  -V(xc)+E(xc)   XCENC  =       103.86755462
  PAW double counting   =      2104.59134616    -2111.15209892
  entropy T*S    EENTRO =        -0.00000000
  eigenvalues    EBANDS =      -367.44322748
  atomic energy  EATOM  =      1469.26749561
  Solvation  Ediel_sol  =         0.00000000
  ---------------------------------------------------
  free energy    TOTEN  =       -37.25878104 eV

  energy without entropy =      -37.25878104  energy(sigma->0) =      -37.25878104


--------------------------------------------------------------------------------------------------------




--------------------------------------- Iteration      1(  15)  ---------------------------------------


    POTLOK:  cpu time   22.3902: real time   22.4241
    SETDIJ:  cpu time    0.0478: real time    0.0479
     EDDAV:  cpu time   16.0298: real time   16.0753
       DOS:  cpu time    0.0373: real time    0.0373
    CHARGE:  cpu time    3.4057: real time    3.4104
    MIXING:  cpu time    0.8363: real time    0.8374
    --------------------------------------------
      LOOP:  cpu time   42.7471: real time   42.8324

 eigenvalue-minimisations  :    48
 total energy-change (2. order) :-0.2604446E-02  (-0.3508811E-04)
 number of electron      23.9999999 magnetization 
 augmentation part        2.0354678 magnetization 

 Broyden mixing:
  rms(total) = 0.11795E-02    rms(broyden)= 0.11795E-02
  rms(prec ) = 0.14884E-02
  weight for this iteration     100.00

 eigenvalues of (default mixing * dielectric matrix)
  average eigenvalue GAMMA=   1.9386
  6.1592  3.0595  2.4835  1.8421  1.2134  1.0004  1.0004  0.9267  0.9267  0.7745

 Free energy of the ion-electron system (eV)
  ---------------------------------------------------
  alpha Z        PSCENC =         0.05311416
  Ewald energy   TEWEN  =      1035.10936977
  -Hartree energ DENC   =     -2271.53625741
  -exchange      EXHF   =         0.00000000
  -V(xc)+E(xc)   XCENC  =       103.86102385
  PAW double counting   =      2104.40337744    -2110.96169130
  entropy T*S    EENTRO =        -0.00000000
  eigenvalues    EBANDS =      -367.45781762
  atomic energy  EATOM  =      1469.26749561
  Solvation  Ediel_sol  =         0.00000000
  ---------------------------------------------------
  free energy    TOTEN  =       -37.26138549 eV

  energy without entropy =      -37.26138549  energy(sigma->0) =      -37.26138549


--------------------------------------------------------------------------------------------------------




--------------------------------------- Iteration      1(  16)  ---------------------------------------


    POTLOK:  cpu time   22.3594: real time   22.3886
    SETDIJ:  cpu time    0.0665: real time    0.0666
     EDDAV:  cpu time   15.9786: real time   16.0021
       DOS:  cpu time    0.0332: real time    0.0332
    CHARGE:  cpu time    3.5088: real time    3.5149
    MIXING:  cpu time    0.7516: real time    0.7526
    --------------------------------------------
      LOOP:  cpu time   42.6982: real time   42.7580

 eigenvalue-minimisations  :    48
 total energy-change (2. order) :-0.1111328E-02  (-0.7119622E-05)
 number of electron      23.9999999 magnetization 
 augmentation part        2.0353705 magnetization 

 Broyden mixing:
  rms(total) = 0.60637E-03    rms(broyden)= 0.60637E-03
  rms(prec ) = 0.82747E-03
  weight for this iteration     100.00

 eigenvalues of (default mixing * dielectric matrix)
  average eigenvalue GAMMA=   2.1301
  7.3980  3.6925  2.4476  2.4476  1.7736  1.0938  1.0096  1.0096  0.8875  0.8875
  0.7841

 Free energy of the ion-electron system (eV)
  ---------------------------------------------------
  alpha Z        PSCENC =         0.05311416
  Ewald energy   TEWEN  =      1035.10936977
  -Hartree energ DENC   =     -2271.53273349
  -exchange      EXHF   =         0.00000000
  -V(xc)+E(xc)   XCENC  =       103.85936557
  PAW double counting   =      2105.18964481    -2111.74700071
  entropy T*S    EENTRO =        -0.00000000
  eigenvalues    EBANDS =      -367.46175254
  atomic energy  EATOM  =      1469.26749561
  Solvation  Ediel_sol  =         0.00000000
  ---------------------------------------------------
  free energy    TOTEN  =       -37.26249682 eV

  energy without entropy =      -37.26249682  energy(sigma->0) =      -37.26249682


--------------------------------------------------------------------------------------------------------




--------------------------------------- Iteration      1(  17)  ---------------------------------------


    POTLOK:  cpu time   22.3850: real time   22.4129
    SETDIJ:  cpu time    0.0419: real time    0.0420
     EDDAV:  cpu time   14.0151: real time   14.0413
       DOS:  cpu time    0.0292: real time    0.0292
    CHARGE:  cpu time    3.5662: real time    3.5708
    MIXING:  cpu time    0.7570: real time    0.7580
    --------------------------------------------
      LOOP:  cpu time   40.7943: real time   40.8541

 eigenvalue-minimisations  :    40
 total energy-change (2. order) :-0.9526518E-03  (-0.5972827E-05)
 number of electron      23.9999999 magnetization 
 augmentation part        2.0353536 magnetization 

 Broyden mixing:
  rms(total) = 0.36570E-03    rms(broyden)= 0.36570E-03
  rms(prec ) = 0.44386E-03
  weight for this iteration     100.00

 eigenvalues of (default mixing * dielectric matrix)
  average eigenvalue GAMMA=   2.1055
  7.6356  4.0363  2.4640  2.4640  1.7085  1.2718  1.0124  1.0124  1.0943  0.7969
  0.8847  0.8847

 Free energy of the ion-electron system (eV)
  ---------------------------------------------------
  alpha Z        PSCENC =         0.05311416
  Ewald energy   TEWEN  =      1035.10936977
  -Hartree energ DENC   =     -2271.51090510
  -exchange      EXHF   =         0.00000000
  -V(xc)+E(xc)   XCENC  =       103.85726785
  PAW double counting   =      2105.17403889    -2111.73157498
  entropy T*S    EENTRO =        -0.00000000
  eigenvalues    EBANDS =      -367.48225567
  atomic energy  EATOM  =      1469.26749561
  Solvation  Ediel_sol  =         0.00000000
  ---------------------------------------------------
  free energy    TOTEN  =       -37.26344947 eV

  energy without entropy =      -37.26344947  energy(sigma->0) =      -37.26344947


--------------------------------------------------------------------------------------------------------




--------------------------------------- Iteration      1(  18)  ---------------------------------------


    POTLOK:  cpu time   22.3532: real time   22.3910
    SETDIJ:  cpu time    0.0460: real time    0.0460
     EDDAV:  cpu time   15.9439: real time   15.9676
       DOS:  cpu time    0.0297: real time    0.0297
    CHARGE:  cpu time    3.5387: real time    3.5434
    MIXING:  cpu time    0.7663: real time    0.7674
    --------------------------------------------
      LOOP:  cpu time   42.6779: real time   42.7452

 eigenvalue-minimisations  :    48
 total energy-change (2. order) :-0.2269557E-03  (-0.4259805E-06)
 number of electron      23.9999999 magnetization 
 augmentation part        2.0353318 magnetization 

 Broyden mixing:
  rms(total) = 0.26507E-03    rms(broyden)= 0.26507E-03
  rms(prec ) = 0.31665E-03
  weight for this iteration     100.00

 eigenvalues of (default mixing * dielectric matrix)
  average eigenvalue GAMMA=   2.2604
  8.4589  4.8298  3.0479  2.4896  2.2093  1.7541  1.0110  1.0110  1.0544  0.9325
  0.9325  0.7963  0.8582

 Free energy of the ion-electron system (eV)
  ---------------------------------------------------
  alpha Z        PSCENC =         0.05311416
  Ewald energy   TEWEN  =      1035.10936977
  -Hartree energ DENC   =     -2271.50342594
  -exchange      EXHF   =         0.00000000
  -V(xc)+E(xc)   XCENC  =       103.85682297
  PAW double counting   =      2105.17179350    -2111.72948998
  entropy T*S    EENTRO =        -0.00000000
  eigenvalues    EBANDS =      -367.48935651
  atomic energy  EATOM  =      1469.26749561
  Solvation  Ediel_sol  =         0.00000000
  ---------------------------------------------------
  free energy    TOTEN  =       -37.26367642 eV

  energy without entropy =      -37.26367642  energy(sigma->0) =      -37.26367642


--------------------------------------------------------------------------------------------------------




--------------------------------------- Iteration      1(  19)  ---------------------------------------


    POTLOK:  cpu time   22.3731: real time   22.4018
    SETDIJ:  cpu time    0.0417: real time    0.0417
     EDDAV:  cpu time   13.9537: real time   13.9739
       DOS:  cpu time    0.0265: real time    0.0265
    CHARGE:  cpu time    3.5164: real time    3.5212
    MIXING:  cpu time    0.8282: real time    0.8294
    --------------------------------------------
      LOOP:  cpu time   40.7396: real time   40.7944

 eigenvalue-minimisations  :    40
 total energy-change (2. order) :-0.2421242E-03  (-0.5775329E-06)
 number of electron      23.9999999 magnetization 
 augmentation part        2.0353838 magnetization 

 Broyden mixing:
  rms(total) = 0.12082E-03    rms(broyden)= 0.12082E-03
  rms(prec ) = 0.14260E-03
  weight for this iteration     100.00

 eigenvalues of (default mixing * dielectric matrix)
  average eigenvalue GAMMA=   2.2538
  8.7835  5.1998  3.2810  2.3620  2.3620  1.6624  1.3230  1.0200  1.0200  0.9943
  0.9943  0.8908  0.8661  0.7940

 Free energy of the ion-electron system (eV)
  ---------------------------------------------------
  alpha Z        PSCENC =         0.05311416
  Ewald energy   TEWEN  =      1035.10936977
  -Hartree energ DENC   =     -2271.49614305
  -exchange      EXHF   =         0.00000000
  -V(xc)+E(xc)   XCENC  =       103.85624487
  PAW double counting   =      2105.01573640    -2111.57366608
  entropy T*S    EENTRO =        -0.00000000
  eigenvalues    EBANDS =      -367.49607023
  atomic energy  EATOM  =      1469.26749561
  Solvation  Ediel_sol  =         0.00000000
  ---------------------------------------------------
  free energy    TOTEN  =       -37.26391855 eV

  energy without entropy =      -37.26391855  energy(sigma->0) =      -37.26391855


--------------------------------------------------------------------------------------------------------




--------------------------------------- Iteration      1(  20)  ---------------------------------------


    POTLOK:  cpu time   22.3445: real time   22.3875
    SETDIJ:  cpu time    0.0426: real time    0.0426
     EDDAV:  cpu time   15.9604: real time   15.9970
       DOS:  cpu time    0.0216: real time    0.0216
    CHARGE:  cpu time    3.5432: real time    3.5478
    MIXING:  cpu time    0.8497: real time    0.8510
    --------------------------------------------
      LOOP:  cpu time   42.7620: real time   42.8474

 eigenvalue-minimisations  :    48
 total energy-change (2. order) :-0.5841603E-04  (-0.5282394E-07)
 number of electron      23.9999999 magnetization 
 augmentation part        2.0353571 magnetization 

 Broyden mixing:
  rms(total) = 0.78614E-04    rms(broyden)= 0.78614E-04
  rms(prec ) = 0.93255E-04
  weight for this iteration     100.00

 eigenvalues of (default mixing * dielectric matrix)
  average eigenvalue GAMMA=   2.3381
  9.1543  5.5668  3.8376  2.6623  2.5467  1.9647  1.8168  1.1096  1.0184  1.0184
  0.9271  0.9271  0.9183  0.8017  0.8017

 Free energy of the ion-electron system (eV)
  ---------------------------------------------------
  alpha Z        PSCENC =         0.05311416
  Ewald energy   TEWEN  =      1035.10936977
  -Hartree energ DENC   =     -2271.50200825
  -exchange      EXHF   =         0.00000000
  -V(xc)+E(xc)   XCENC  =       103.85651714
  PAW double counting   =      2105.04572413    -2111.60365642
  entropy T*S    EENTRO =        -0.00000000
  eigenvalues    EBANDS =      -367.49053311
  atomic energy  EATOM  =      1469.26749561
  Solvation  Ediel_sol  =         0.00000000
  ---------------------------------------------------
  free energy    TOTEN  =       -37.26397696 eV

  energy without entropy =      -37.26397696  energy(sigma->0) =      -37.26397696


--------------------------------------------------------------------------------------------------------




--------------------------------------- Iteration      1(  21)  ---------------------------------------


    POTLOK:  cpu time   22.3433: real time   22.3756
    SETDIJ:  cpu time    0.0413: real time    0.0414
     EDDAV:  cpu time   14.0414: real time   14.0643
       DOS:  cpu time    0.0254: real time    0.0254
    CHARGE:  cpu time    3.5835: real time    3.5888
    MIXING:  cpu time    0.8979: real time    0.9054
    --------------------------------------------
      LOOP:  cpu time   40.9329: real time   41.0009

 eigenvalue-minimisations  :    40
 total energy-change (2. order) :-0.5934988E-04  (-0.5677040E-07)
 number of electron      23.9999999 magnetization 
 augmentation part        2.0353475 magnetization 

 Broyden mixing:
  rms(total) = 0.51395E-04    rms(broyden)= 0.51395E-04
  rms(prec ) = 0.56416E-04
  weight for this iteration     100.00

 eigenvalues of (default mixing * dielectric matrix)
  average eigenvalue GAMMA=   2.2993
  9.2649  5.9474  4.0196  2.9039  2.3958  2.2588  1.6852  1.1800  1.0179  1.0179
  0.9536  0.9536  0.9138  0.8010  0.8193  0.6561

 Free energy of the ion-electron system (eV)
  ---------------------------------------------------
  alpha Z        PSCENC =         0.05311416
  Ewald energy   TEWEN  =      1035.10936977
  -Hartree energ DENC   =     -2271.50443161
  -exchange      EXHF   =         0.00000000
  -V(xc)+E(xc)   XCENC  =       103.85657116
  PAW double counting   =      2105.06624963    -2111.62402849
  entropy T*S    EENTRO =        -0.00000000
  eigenvalues    EBANDS =      -367.48837655
  atomic energy  EATOM  =      1469.26749561
  Solvation  Ediel_sol  =         0.00000000
  ---------------------------------------------------
  free energy    TOTEN  =       -37.26403631 eV

  energy without entropy =      -37.26403631  energy(sigma->0) =      -37.26403631


--------------------------------------------------------------------------------------------------------




--------------------------------------- Iteration      1(  22)  ---------------------------------------


    POTLOK:  cpu time   22.3646: real time   22.3967
    SETDIJ:  cpu time    0.0410: real time    0.0410
     EDDAV:  cpu time   14.1616: real time   14.1893
       DOS:  cpu time    0.0328: real time    0.0328
    CHARGE:  cpu time    3.5376: real time    3.5420
    MIXING:  cpu time    0.9296: real time    0.9310
    --------------------------------------------
      LOOP:  cpu time   41.0672: real time   41.1329

 eigenvalue-minimisations  :    40
 total energy-change (2. order) :-0.9318410E-05  (-0.5135188E-08)
 number of electron      23.9999999 magnetization 
 augmentation part        2.0353554 magnetization 

 Broyden mixing:
  rms(total) = 0.27235E-04    rms(broyden)= 0.27235E-04
  rms(prec ) = 0.31834E-04
  weight for this iteration     100.00

 eigenvalues of (default mixing * dielectric matrix)
  average eigenvalue GAMMA=   2.3241
  9.3345  6.2520  4.1013  3.0385  2.5180  2.1276  1.9588  1.7142  1.1688  1.0189
  1.0189  0.7960  0.9121  0.9121  0.8555  0.8911  0.8911

 Free energy of the ion-electron system (eV)
  ---------------------------------------------------
  alpha Z        PSCENC =         0.05311416
  Ewald energy   TEWEN  =      1035.10936977
  -Hartree energ DENC   =     -2271.50230570
  -exchange      EXHF   =         0.00000000
  -V(xc)+E(xc)   XCENC  =       103.85644958
  PAW double counting   =      2105.06590000    -2111.62362395
  entropy T*S    EENTRO =        -0.00000000
  eigenvalues    EBANDS =      -367.49044511
  atomic energy  EATOM  =      1469.26749561
  Solvation  Ediel_sol  =         0.00000000
  ---------------------------------------------------
  free energy    TOTEN  =       -37.26404563 eV

  energy without entropy =      -37.26404563  energy(sigma->0) =      -37.26404563


--------------------------------------------------------------------------------------------------------




--------------------------------------- Iteration      1(  23)  ---------------------------------------


    POTLOK:  cpu time   22.2732: real time   22.3107
    SETDIJ:  cpu time    0.0580: real time    0.0581
     EDDAV:  cpu time   12.1272: real time   12.1626
       DOS:  cpu time    0.0301: real time    0.0301
    CHARGE:  cpu time    3.5125: real time    3.5170
    MIXING:  cpu time    1.0503: real time    1.0518
    --------------------------------------------
      LOOP:  cpu time   39.0512: real time   39.1303

 eigenvalue-minimisations  :    32
 total energy-change (2. order) :-0.1369458E-04  (-0.5069266E-08)
 number of electron      23.9999999 magnetization 
 augmentation part        2.0353586 magnetization 

 Broyden mixing:
  rms(total) = 0.14302E-04    rms(broyden)= 0.14302E-04
  rms(prec ) = 0.16682E-04
  weight for this iteration     100.00

 eigenvalues of (default mixing * dielectric matrix)
  average eigenvalue GAMMA=   2.3396
  9.4855  6.6101  4.5696  3.2761  2.4769  2.3343  2.3343  1.6366  1.2301  1.0177
  1.0177  0.9521  0.9521  0.9205  0.7968  0.8422  0.8298  0.8298

 Free energy of the ion-electron system (eV)
  ---------------------------------------------------
  alpha Z        PSCENC =         0.05311416
  Ewald energy   TEWEN  =      1035.10936977
  -Hartree energ DENC   =     -2271.50145099
  -exchange      EXHF   =         0.00000000
  -V(xc)+E(xc)   XCENC  =       103.85639222
  PAW double counting   =      2105.07358024    -2111.63134614
  entropy T*S    EENTRO =        -0.00000000
  eigenvalues    EBANDS =      -367.49121421
  atomic energy  EATOM  =      1469.26749561
  Solvation  Ediel_sol  =         0.00000000
  ---------------------------------------------------
  free energy    TOTEN  =       -37.26405933 eV

  energy without entropy =      -37.26405933  energy(sigma->0) =      -37.26405933


--------------------------------------------------------------------------------------------------------




--------------------------------------- Iteration      1(  24)  ---------------------------------------


    POTLOK:  cpu time   22.2651: real time   22.3021
    SETDIJ:  cpu time    0.0417: real time    0.0417
     EDDAV:  cpu time   12.1252: real time   12.1543
       DOS:  cpu time    0.0169: real time    0.0169
    CHARGE:  cpu time    3.5005: real time    3.5052
    MIXING:  cpu time    1.0808: real time    1.0824
    --------------------------------------------
      LOOP:  cpu time   39.0303: real time   39.1027

 eigenvalue-minimisations  :    32
 total energy-change (2. order) :-0.4487270E-05  (-0.2146407E-08)
 number of electron      23.9999999 magnetization 
 augmentation part        2.0353585 magnetization 

 Broyden mixing:
  rms(total) = 0.95598E-05    rms(broyden)= 0.95598E-05
  rms(prec ) = 0.10991E-04
  weight for this iteration     100.00

 eigenvalues of (default mixing * dielectric matrix)
  average eigenvalue GAMMA=   2.3843
  9.5886  6.8268  4.8700  3.4759  2.7949  2.4213  2.0810  2.0810  1.5645  1.2613
  1.0179  1.0179  1.0205  0.7957  0.9427  0.8760  0.8760  0.8949  0.8949

 Free energy of the ion-electron system (eV)
  ---------------------------------------------------
  alpha Z        PSCENC =         0.05311416
  Ewald energy   TEWEN  =      1035.10936977
  -Hartree energ DENC   =     -2271.50173789
  -exchange      EXHF   =         0.00000000
  -V(xc)+E(xc)   XCENC  =       103.85639834
  PAW double counting   =      2105.06702940    -2111.62482286
  entropy T*S    EENTRO =        -0.00000000
  eigenvalues    EBANDS =      -367.49091035
  atomic energy  EATOM  =      1469.26749561
  Solvation  Ediel_sol  =         0.00000000
  ---------------------------------------------------
  free energy    TOTEN  =       -37.26406381 eV

  energy without entropy =      -37.26406381  energy(sigma->0) =      -37.26406381


--------------------------------------------------------------------------------------------------------




--------------------------------------- Iteration      1(  25)  ---------------------------------------


    POTLOK:  cpu time   22.2997: real time   22.3302
    SETDIJ:  cpu time    0.0563: real time    0.0563
     EDDAV:  cpu time   12.1223: real time   12.1480
       DOS:  cpu time    0.0288: real time    0.0288
    CHARGE:  cpu time    3.5006: real time    3.5072
    MIXING:  cpu time    1.0696: real time    1.0789
    --------------------------------------------
      LOOP:  cpu time   39.0773: real time   39.1494

 eigenvalue-minimisations  :    32
 total energy-change (2. order) :-0.3556111E-05  (-0.1710148E-08)
 number of electron      23.9999999 magnetization 
 augmentation part        2.0353586 magnetization 

 Broyden mixing:
  rms(total) = 0.37846E-05    rms(broyden)= 0.37845E-05
  rms(prec ) = 0.45899E-05
  weight for this iteration     100.00

 eigenvalues of (default mixing * dielectric matrix)
  average eigenvalue GAMMA=   2.3842
  9.6975  7.0620  5.2418  3.7636  2.9467  2.4586  2.1194  2.1194  1.4628  1.4628
  1.0153  1.0153  0.9994  0.9994  1.0005  0.7954  0.8675  0.8675  0.8943  0.8943

 Free energy of the ion-electron system (eV)
  ---------------------------------------------------
  alpha Z        PSCENC =         0.05311416
  Ewald energy   TEWEN  =      1035.10936977
  -Hartree energ DENC   =     -2271.50182956
  -exchange      EXHF   =         0.00000000
  -V(xc)+E(xc)   XCENC  =       103.85640075
  PAW double counting   =      2105.06362734    -2111.62141803
  entropy T*S    EENTRO =        -0.00000000
  eigenvalues    EBANDS =      -367.49082741
  atomic energy  EATOM  =      1469.26749561
  Solvation  Ediel_sol  =         0.00000000
  ---------------------------------------------------
  free energy    TOTEN  =       -37.26406737 eV

  energy without entropy =      -37.26406737  energy(sigma->0) =      -37.26406737


--------------------------------------------------------------------------------------------------------




--------------------------------------- Iteration      1(  26)  ---------------------------------------


    POTLOK:  cpu time   22.2704: real time   22.3001
    SETDIJ:  cpu time    0.0590: real time    0.0591
     EDDAV:  cpu time   13.9524: real time   13.9826
       DOS:  cpu time    0.0243: real time    0.0243
    CHARGE:  cpu time    3.5633: real time    3.5741
    MIXING:  cpu time    1.0746: real time    1.0827
    --------------------------------------------
      LOOP:  cpu time   40.9439: real time   41.0229

 eigenvalue-minimisations  :    40
 total energy-change (2. order) :-0.8421753E-06  (-0.8975949E-09)
 number of electron      23.9999999 magnetization 
 augmentation part        2.0353584 magnetization 

 Broyden mixing:
  rms(total) = 0.29373E-05    rms(broyden)= 0.29373E-05
  rms(prec ) = 0.34214E-05
  weight for this iteration     100.00

 eigenvalues of (default mixing * dielectric matrix)
  average eigenvalue GAMMA=   2.4463
  9.6927  7.4031  5.4562  4.1065  3.0695  2.3754  2.3754  2.4087  2.2678  1.5986
  1.2784  1.0171  1.0171  1.0505  0.8884  0.8884  0.7955  0.9831  0.9464  0.8764
  0.8764

 Free energy of the ion-electron system (eV)
  ---------------------------------------------------
  alpha Z        PSCENC =         0.05311416
  Ewald energy   TEWEN  =      1035.10936977
  -Hartree energ DENC   =     -2271.50182362
  -exchange      EXHF   =         0.00000000
  -V(xc)+E(xc)   XCENC  =       103.85640046
  PAW double counting   =      2105.06316062    -2111.62094928
  entropy T*S    EENTRO =        -0.00000000
  eigenvalues    EBANDS =      -367.49083594
  atomic energy  EATOM  =      1469.26749561
  Solvation  Ediel_sol  =         0.00000000
  ---------------------------------------------------
  free energy    TOTEN  =       -37.26406821 eV

  energy without entropy =      -37.26406821  energy(sigma->0) =      -37.26406821


--------------------------------------------------------------------------------------------------------




--------------------------------------- Iteration      1(  27)  ---------------------------------------


    POTLOK:  cpu time   22.2552: real time   22.2951
    SETDIJ:  cpu time    0.0457: real time    0.0457
     EDDAV:  cpu time   12.1090: real time   12.1270
       DOS:  cpu time    0.0291: real time    0.0291
    CHARGE:  cpu time    3.5130: real time    3.5204
    MIXING:  cpu time    1.1519: real time    1.1539
    --------------------------------------------
      LOOP:  cpu time   39.1039: real time   39.1712

 eigenvalue-minimisations  :    32
 total energy-change (2. order) :-0.9338137E-06  (-0.8092194E-09)
 number of electron      23.9999999 magnetization 
 augmentation part        2.0353577 magnetization 

 Broyden mixing:
  rms(total) = 0.23185E-05    rms(broyden)= 0.23185E-05
  rms(prec ) = 0.24740E-05
  weight for this iteration     100.00

 eigenvalues of (default mixing * dielectric matrix)
  average eigenvalue GAMMA=   2.4340
  9.7264  7.6417  5.7271  4.4028  3.2942  2.7369  2.4569  2.1761  1.7669  1.5785
  1.5785  1.1246  1.0178  1.0178  1.0348  1.0348  0.7957  0.8609  0.9005  0.9005
  0.8870  0.8870

 Free energy of the ion-electron system (eV)
  ---------------------------------------------------
  alpha Z        PSCENC =         0.05311416
  Ewald energy   TEWEN  =      1035.10936977
  -Hartree energ DENC   =     -2271.50189577
  -exchange      EXHF   =         0.00000000
  -V(xc)+E(xc)   XCENC  =       103.85640505
  PAW double counting   =      2105.06484494    -2111.62263029
  entropy T*S    EENTRO =        -0.00000000
  eigenvalues    EBANDS =      -367.49077262
  atomic energy  EATOM  =      1469.26749561
  Solvation  Ediel_sol  =         0.00000000
  ---------------------------------------------------
  free energy    TOTEN  =       -37.26406915 eV

  energy without entropy =      -37.26406915  energy(sigma->0) =      -37.26406915


--------------------------------------------------------------------------------------------------------




--------------------------------------- Iteration      1(  28)  ---------------------------------------


    POTLOK:  cpu time   22.1991: real time   22.2330
    SETDIJ:  cpu time    0.0526: real time    0.0527
     EDDAV:  cpu time   13.9719: real time   13.9925
       DOS:  cpu time    0.0175: real time    0.0175
    CHARGE:  cpu time    3.5208: real time    3.5254
    MIXING:  cpu time    1.2273: real time    1.2292
    --------------------------------------------
      LOOP:  cpu time   40.9893: real time   41.0502

 eigenvalue-minimisations  :    40
 total energy-change (2. order) :-0.1694325E-06  (-0.6498126E-09)
 number of electron      23.9999999 magnetization 
 augmentation part        2.0353579 magnetization 

 Broyden mixing:
  rms(total) = 0.10776E-05    rms(broyden)= 0.10776E-05
  rms(prec ) = 0.12005E-05
  weight for this iteration     100.00

 eigenvalues of (default mixing * dielectric matrix)
  average eigenvalue GAMMA=   2.4443
  9.7688  7.7625  5.9666  4.5950  3.4912  2.7676  2.5317  2.1837  1.8605  1.8605
  1.6660  1.2327  1.2327  1.0183  1.0183  1.0278  0.7958  0.9527  0.9527  0.8596
  0.9072  0.8839  0.8839

 Free energy of the ion-electron system (eV)
  ---------------------------------------------------
  alpha Z        PSCENC =         0.05311416
  Ewald energy   TEWEN  =      1035.10936977
  -Hartree energ DENC   =     -2271.50190046
  -exchange      EXHF   =         0.00000000
  -V(xc)+E(xc)   XCENC  =       103.85640475
  PAW double counting   =      2105.06444558    -2111.62222931
  entropy T*S    EENTRO =        -0.00000000
  eigenvalues    EBANDS =      -367.49076941
  atomic energy  EATOM  =      1469.26749561
  Solvation  Ediel_sol  =         0.00000000
  ---------------------------------------------------
  free energy    TOTEN  =       -37.26406932 eV

  energy without entropy =      -37.26406932  energy(sigma->0) =      -37.26406932


--------------------------------------------------------------------------------------------------------




--------------------------------------- Iteration      1(  29)  ---------------------------------------


    POTLOK:  cpu time   22.1523: real time   22.1845
    SETDIJ:  cpu time    0.0445: real time    0.0445
     EDDAV:  cpu time   12.0689: real time   12.0927
       DOS:  cpu time    0.0227: real time    0.0227
    CHARGE:  cpu time    3.5408: real time    3.5538
    MIXING:  cpu time    1.2262: real time    1.2281
    --------------------------------------------
      LOOP:  cpu time   39.0553: real time   39.1263

 eigenvalue-minimisations  :    32
 total energy-change (2. order) :-0.1662456E-06  (-0.5855973E-09)
 number of electron      23.9999999 magnetization 
 augmentation part        2.0353581 magnetization 

 Broyden mixing:
  rms(total) = 0.54806E-06    rms(broyden)= 0.54806E-06
  rms(prec ) = 0.61892E-06
  weight for this iteration     100.00

 eigenvalues of (default mixing * dielectric matrix)
  average eigenvalue GAMMA=   2.4605
  9.7865  8.0041  6.2194  4.8545  3.7516  3.0603  2.4526  2.4526  2.2038  1.7276
  1.5407  1.5407  1.0183  1.0183  1.1000  1.1000  0.8841  0.8841  0.7957  1.0344
  0.8663  0.8826  0.9372  0.9372

 Free energy of the ion-electron system (eV)
  ---------------------------------------------------
  alpha Z        PSCENC =         0.05311416
  Ewald energy   TEWEN  =      1035.10936977
  -Hartree energ DENC   =     -2271.50185448
  -exchange      EXHF   =         0.00000000
  -V(xc)+E(xc)   XCENC  =       103.85640207
  PAW double counting   =      2105.06458928    -2111.62237409
  entropy T*S    EENTRO =        -0.00000000
  eigenvalues    EBANDS =      -367.49081181
  atomic energy  EATOM  =      1469.26749561
  Solvation  Ediel_sol  =         0.00000000
  ---------------------------------------------------
  free energy    TOTEN  =       -37.26406948 eV

  energy without entropy =      -37.26406948  energy(sigma->0) =      -37.26406948


--------------------------------------------------------------------------------------------------------




--------------------------------------- Iteration      1(  30)  ---------------------------------------


    POTLOK:  cpu time   22.1642: real time   22.1921
    SETDIJ:  cpu time    0.0471: real time    0.0471
     EDDAV:  cpu time   12.0350: real time   12.0524
       DOS:  cpu time    0.0155: real time    0.0155
    --------------------------------------------
      LOOP:  cpu time   34.2618: real time   34.3071

 eigenvalue-minimisations  :    32
 total energy-change (2. order) :-0.6967321E-07  (-0.5509282E-09)
 number of electron      23.9999999 magnetization 
 augmentation part        2.0353581 magnetization 

 Free energy of the ion-electron system (eV)
  ---------------------------------------------------
  alpha Z        PSCENC =         0.05311416
  Ewald energy   TEWEN  =      1035.10936977
  -Hartree energ DENC   =     -2271.50183739
  -exchange      EXHF   =         0.00000000
  -V(xc)+E(xc)   XCENC  =       103.85640126
  PAW double counting   =      2105.06446393    -2111.62224975
  entropy T*S    EENTRO =        -0.00000000
  eigenvalues    EBANDS =      -367.49082715
  atomic energy  EATOM  =      1469.26749561
  Solvation  Ediel_sol  =         0.00000000
  ---------------------------------------------------
  free energy    TOTEN  =       -37.26406955 eV

  energy without entropy =      -37.26406955  energy(sigma->0) =      -37.26406955


--------------------------------------------------------------------------------------------------------




 average (electrostatic) potential at core
  the test charge radii are     0.5201  0.6991  0.7215
  (the norm of the test charge is              1.0000)
       1 -44.6893       2 -44.6445       3 -63.8928       4 -82.9289       5 -82.8866
       6 -80.4660
 
 
 
 E-fermi :  -7.0753     XC(G=0):  -0.0361     alpha+bet : -0.0089


 k-point     1 :       0.0000    0.0000    0.0000
  band No.  band energies     occupation 
      1     -29.4378      2.00000
      2     -28.4312      2.00000
      3     -25.2998      2.00000
      4     -13.9911      2.00000
      5     -13.0528      2.00000
      6     -12.9012      2.00000
      7     -12.9005      2.00000
      8     -12.8291      2.00000
      9      -9.2911      2.00000
     10      -9.2902      2.00000
     11      -9.1918      2.00000
     12      -7.1289      2.00000
     13      -1.2873      0.00000
     14      -0.7237      0.00000
     15      -0.7190      0.00000
     16      -0.6510      0.00000


--------------------------------------------------------------------------------------------------------


 soft charge-density along one line, spin component            1
         0         1         2         3         4         5         6         7         8         9
 total charge-density along one line
 
 pseudopotential strength for first ion, spin component:            1
 -2.379  -4.109   0.005  -0.016   0.001
 -4.109  -7.009   0.009  -0.031   0.001
  0.005   0.009  -0.321  -0.008   0.000
 -0.016  -0.031  -0.008  -0.295  -0.001
  0.001   0.001   0.000  -0.001  -0.324
 total augmentation occupancy for first ion, spin component:            1
  3.784  -0.789  -0.194   0.725  -0.028
 -0.789   0.219   0.034  -0.147   0.006
 -0.194   0.034   0.036  -0.028   0.001
  0.725  -0.147  -0.028   0.143  -0.004
 -0.028   0.006   0.001  -0.004   0.044


------------------------ aborting loop because EDIFF is reached ----------------------------------------



 DIPCOR: dipole corrections for dipol
 direction  1 min pos   384, direction  2 min pos   435, direction  3 min pos   450,
 dipolmoment          -0.011252      0.266076      0.296115 electrons x Angstroem
 Tr[quadrupol]        14.883380

 energy correction for charged system         0.000000 eV
 dipol+quadrupol energy correction            0.000112 eV
 added-field ion interaction          0.000000 eV  (added to PSCEN)

 
  *************** adding dipol energy to TOTEN NOW **************** 
    CHARGE:  cpu time    3.5270: real time    3.5318
    FORLOC:  cpu time    1.1082: real time    1.1094
    FORNL :  cpu time    0.4608: real time    0.4616
    STRESS:  cpu time    5.8433: real time    5.8521
    FORCOR:  cpu time   21.3537: real time   21.3810
    FORHAR:  cpu time    6.5374: real time    6.5459
    MIXING:  cpu time    1.2779: real time    1.2799
    OFIELD:  cpu time    0.0000: real time    0.0000

  FORCE on cell =-STRESS in cart. coord.  units (eV):
  Direction    XX          YY          ZZ          XY          YZ          ZX
  --------------------------------------------------------------------------------------
  Alpha Z     0.05311     0.05311     0.05311
  Ewald    -113.24829  1172.36143   -24.00361     1.25174   -32.93554    -3.39384
  Hartree   498.64860  1258.17234   514.68092     0.35297    -9.28714    -0.60896
  E(xc)    -111.68706  -109.15826  -111.31660     0.00355    -0.09338    -0.01410
  Local    -728.38239 -2669.69545  -806.86646    -1.32317    34.81488     2.98304
  n-local   -79.54343   -85.37322   -79.48798     0.01551    -0.40803    -0.00211
  augment    21.47967    16.67778    19.68278    -0.01795     0.47213     0.06839
  Kinetic   512.67741   418.83801   487.71103    -0.27595     7.26080     0.95022
  Fock        0.00000     0.00000     0.00000     0.00000     0.00000     0.00000
  -------------------------------------------------------------------------------------
  Total      -0.00237     1.87574     0.45319     0.00670    -0.17628    -0.01735
  in kB      -0.00009     0.07009     0.01694     0.00025    -0.00659    -0.00065
  external pressure =        0.03 kB  Pullay stress =        0.00 kB


 VOLUME and BASIS-vectors are now :
 -----------------------------------------------------------------------------
  energy-cutoff  :     1600.00
  volume of cell :    42875.00
      direct lattice vectors                 reciprocal lattice vectors
    35.000000000  0.000000000  0.000000000     0.028571429  0.000000000  0.000000000
     0.000000000 35.000000000  0.000000000     0.000000000  0.028571429  0.000000000
     0.000000000  0.000000000 35.000000000     0.000000000  0.000000000  0.028571429

  length of vectors
    35.000000000 35.000000000 35.000000000     0.028571429  0.028571429  0.028571429


 FORCES acting on ions
    electron-ion (+dipol)            ewald-force                    non-local-force                 convergence-correction
 -----------------------------------------------------------------------------------------------
   -.331E+01 -.328E+02 0.871E+02   0.364E+01 0.354E+02 -.959E+02   -.315E+00 -.237E+01 0.830E+01   0.181E-07 -.739E-07 -.428E-06
   0.133E+00 0.750E+02 -.350E+01   -.146E+00 -.842E+02 0.385E+01   0.107E-01 0.865E+01 -.282E+00   0.523E-08 -.414E-06 -.645E-07
   0.110E-01 0.165E+02 -.290E+00   -.112E-01 -.167E+02 0.294E+00   -.775E-04 0.758E-01 0.204E-02   0.442E-07 0.220E-05 0.574E-06
   0.302E-01 -.240E+03 -.794E+00   -.334E-01 0.305E+03 0.880E+00   0.358E-02 -.638E+02 -.941E-01   0.563E-07 0.326E-05 0.104E-05
   0.872E-02 0.298E+03 -.230E+00   -.948E-02 -.363E+03 0.249E+00   0.791E-03 0.645E+02 -.208E-01   0.229E-08 0.563E-05 0.962E-06
   0.194E+01 -.935E+02 -.511E+02   -.344E+01 0.124E+03 0.906E+02   0.149E+01 -.304E+02 -.391E+02   0.215E-06 -.297E-05 -.345E-05
 -----------------------------------------------------------------------------------------------
   -.119E+01 0.233E+02 0.312E+02   -.444E-15 -.568E-13 0.000E+00   0.119E+01 -.233E+02 -.312E+02   0.341E-06 0.764E-05 -.136E-05
 
 
 POSITION                                       TOTAL-FORCE (eV/Angst)
 -----------------------------------------------------------------------------------
      0.03541      5.65416     34.06830         0.018628      0.189306     -0.490093
      0.00000      4.45848      0.00000        -0.002657     -0.570957      0.069909
      0.00000      0.08826      0.00000        -0.000238     -0.134060      0.006266
      0.00000      1.25848      0.00000         0.000304      0.697990     -0.007994
      0.00000     33.91804      0.00000         0.000034     -0.534556     -0.000890
      0.00000      5.41985      0.00000        -0.016070      0.352277      0.422802
 -----------------------------------------------------------------------------------
    total drift:                                0.000002     -0.000016     -0.000019


--------------------------------------------------------------------------------------------------------



  FREE ENERGIE OF THE ION-ELECTRON SYSTEM (eV)
  ---------------------------------------------------
  free  energy   TOTEN  =       -37.26395799 eV

  energy  without entropy=      -37.26395799  energy(sigma->0) =      -37.26395799
 


--------------------------------------------------------------------------------------------------------


    POTLOK:  cpu time   22.2589: real time   22.2886


--------------------------------------------------------------------------------------------------------


 writing wavefunctions
     LOOP+:  cpu time 1769.6498: real time 1771.8762
    4ORBIT:  cpu time    0.0000: real time    0.0000

 total amount of memory used by VASP MPI-rank0  3707962. kBytes
=======================================================================

   base      :      30000. kBytes
   nonl-proj :     112154. kBytes
   fftplans  :    1215227. kBytes
   grid      :    2325657. kBytes
   one-center:          1. kBytes
   wavefun   :      24923. kBytes
 
  
  
 General timing and accounting informations for this job:
 ========================================================
  
                  Total CPU time used (sec):     2416.322
                            User time (sec):     2266.544
                          System time (sec):      149.778
                         Elapsed time (sec):     2423.005
  
                   Maximum memory used (kb):     4516984.
                   Average memory used (kb):           0.
  
                          Minor page faults:     61825282
                          Major page faults:           92
                 Voluntary context switches:        25915
