 vasp.6.1.2 22Jul20 (build Jan  6 2021 09:55:43) gamma-only                      
 executed on             LinuxPGI date 2021.03.02  04:08:16
 running on   32 total cores
 distrk:  each k-point on   32 cores,    1 groups
 distr:  one band on NCORE=   8 cores,    4 groups


--------------------------------------------------------------------------------------------------------


 INCAR:
 POTCAR:    PAW_PBE H 15Jun2001                   
 POTCAR:    PAW_PBE C 08Apr2002                   
 POTCAR:    PAW_PBE O 08Apr2002                   
 POTCAR:    PAW_PBE H 15Jun2001                   
   VRHFIN =H: ultrasoft test                                                                        
   LEXCH  = PE                                                                                      
   EATOM  =    12.4884 eV,    0.9179 Ry                                                             
                                                                                                    
   TITEL  = PAW_PBE H 15Jun2001                                                                     
   LULTRA =        F    use ultrasoft PP ?                                                          
   IUNSCR =        0    unscreen: 0-lin 1-nonlin 2-no                                               
   RPACOR =    0.000    partial core radius                                                         
   POMASS =    1.000; ZVAL   =    1.000    mass and valenz                                          
   RCORE  =    1.100    outmost cutoff radius                                                       
   RWIGS  =    0.700; RWIGS  =    0.370    wigner-seitz radius (au A)                               
   ENMAX  =  250.000; ENMIN  =  200.000 eV                                                          
   RCLOC  =    0.701    cutoff for local pot                                                        
   LCOR   =        T    correct aug charges                                                         
   LPAW   =        T    paw PP                                                                      
   EAUG   =  400.000                                                                                
   RMAX   =    1.123    core radius for proj-oper                                                   
   RAUG   =    1.200    factor for augmentation sphere                                              
   RDEP   =    1.112    radius for radial grids                                                     
   RDEPT  =    0.926    core radius for aug-charge                                                  
                                                                                                    
   Atomic configuration                                                                             
    2 entries                                                                                       
     n  l   j            E        occ.                                                              
     1  0  0.50        -6.4927   1.0000                                                             
     2  1  0.50        -3.4015   0.0000                                                             
   Description                                                                                      
     l       E           TYP  RCUT    TYP  RCUT                                                     
     0     -6.4927494     23  1.100                                                                 
     0      6.8029130     23  1.100                                                                 
     1     -4.0817478     23  1.100                                                                 
  local pseudopotential read in
  atomic valenz-charges read in
  non local Contribution for L=            0  read in
    real space projection operators read in
  non local Contribution for L=            0  read in
    real space projection operators read in
  non local Contribution for L=            1  read in
    real space projection operators read in
    PAW grid and wavefunctions read in
 
   number of l-projection  operators is LMAX  =            3
   number of lm-projection operators is LMMAX =            5
 
 POTCAR:    PAW_PBE C 08Apr2002                   
   VRHFIN =C: s2p2                                                                                  
   LEXCH  = PE                                                                                      
   EATOM  =   147.1560 eV,   10.8157 Ry                                                             
                                                                                                    
   TITEL  = PAW_PBE C 08Apr2002                                                                     
   LULTRA =        F    use ultrasoft PP ?                                                          
   IUNSCR =        1    unscreen: 0-lin 1-nonlin 2-no                                               
   RPACOR =    1.200    partial core radius                                                         
   POMASS =   12.011; ZVAL   =    4.000    mass and valenz                                          
   RCORE  =    1.500    outmost cutoff radius                                                       
   RWIGS  =    1.630; RWIGS  =    0.863    wigner-seitz radius (au A)                               
   ENMAX  =  400.000; ENMIN  =  300.000 eV                                                          
   ICORE  =        2    local potential                                                             
   LCOR   =        T    correct aug charges                                                         
   LPAW   =        T    paw PP                                                                      
   EAUG   =  644.873                                                                                
   DEXC   =    0.000                                                                                
   RMAX   =    1.529    core radius for proj-oper                                                   
   RAUG   =    1.300    factor for augmentation sphere                                              
   RDEP   =    1.501    radius for radial grids                                                     
   RDEPT  =    1.300    core radius for aug-charge                                                  
                                                                                                    
   Atomic configuration                                                                             
    4 entries                                                                                       
     n  l   j            E        occ.                                                              
     1  0  0.50      -273.3789   2.0000                                                             
     2  0  0.50       -13.7508   2.0000                                                             
     2  1  0.50        -5.2854   2.0000                                                             
     3  2  1.50        -5.4423   0.0000                                                             
   Description                                                                                      
     l       E           TYP  RCUT    TYP  RCUT                                                     
     0    -13.7508458     23  1.200                                                                 
     0     -8.2022199     23  1.200                                                                 
     1     -5.2854383     23  1.500                                                                 
     1     34.0145650     23  1.500                                                                 
     2     -5.4423304      7  1.500                                                                 
  local pseudopotential read in
  partial core-charges read in
  partial kinetic energy density read in
  atomic valenz-charges read in
  non local Contribution for L=            0  read in
    real space projection operators read in
  non local Contribution for L=            0  read in
    real space projection operators read in
  non local Contribution for L=            1  read in
    real space projection operators read in
  non local Contribution for L=            1  read in
    real space projection operators read in
    PAW grid and wavefunctions read in
 
   number of l-projection  operators is LMAX  =            4
   number of lm-projection operators is LMMAX =            8
 
 POTCAR:    PAW_PBE O 08Apr2002                   
   VRHFIN =O: s2p4                                                                                  
   LEXCH  = PE                                                                                      
   EATOM  =   432.3788 eV,   31.7789 Ry                                                             
                                                                                                    
   TITEL  = PAW_PBE O 08Apr2002                                                                     
   LULTRA =        F    use ultrasoft PP ?                                                          
   IUNSCR =        1    unscreen: 0-lin 1-nonlin 2-no                                               
   RPACOR =    1.200    partial core radius                                                         
   POMASS =   16.000; ZVAL   =    6.000    mass and valenz                                          
   RCORE  =    1.520    outmost cutoff radius                                                       
   RWIGS  =    1.550; RWIGS  =    0.820    wigner-seitz radius (au A)                               
   ENMAX  =  400.000; ENMIN  =  300.000 eV                                                          
   ICORE  =        2    local potential                                                             
   LCOR   =        T    correct aug charges                                                         
   LPAW   =        T    paw PP                                                                      
   EAUG   =  605.392                                                                                
   DEXC   =    0.000                                                                                
   RMAX   =    1.553    core radius for proj-oper                                                   
   RAUG   =    1.300    factor for augmentation sphere                                              
   RDEP   =    1.550    radius for radial grids                                                     
   RDEPT  =    1.329    core radius for aug-charge                                                  
                                                                                                    
   Atomic configuration                                                                             
    4 entries                                                                                       
     n  l   j            E        occ.                                                              
     1  0  0.50      -514.6923   2.0000                                                             
     2  0  0.50       -23.9615   2.0000                                                             
     2  1  0.50        -9.0305   4.0000                                                             
     3  2  1.50        -9.5241   0.0000                                                             
   Description                                                                                      
     l       E           TYP  RCUT    TYP  RCUT                                                     
     0    -23.9615318     23  1.200                                                                 
     0     -9.5240782     23  1.200                                                                 
     1     -9.0304911     23  1.520                                                                 
     1      8.1634956     23  1.520                                                                 
     2     -9.5240782      7  1.500                                                                 
  local pseudopotential read in
  partial core-charges read in
  partial kinetic energy density read in
  kinetic energy density of atom read in
  atomic valenz-charges read in
  non local Contribution for L=            0  read in
    real space projection operators read in
  non local Contribution for L=            0  read in
    real space projection operators read in
  non local Contribution for L=            1  read in
    real space projection operators read in
  non local Contribution for L=            1  read in
    real space projection operators read in
    PAW grid and wavefunctions read in
 
   number of l-projection  operators is LMAX  =            4
   number of lm-projection operators is LMMAX =            8
 
  PAW_PBE H 15Jun2001                   :
 energy of atom  1       EATOM=  -12.4884
 kinetic energy error for atom=    0.0000 (will be added to EATOM!!)
  PAW_PBE C 08Apr2002                   :
 energy of atom  2       EATOM= -147.1560
 kinetic energy error for atom=    0.0002 (will be added to EATOM!!)
  PAW_PBE O 08Apr2002                   :
 energy of atom  3       EATOM= -432.3788
 kinetic energy error for atom=    0.0005 (will be added to EATOM!!)
 
 
 POSCAR:  H  C  O
  positions in cartesian coordinates
  No initial velocities read in
 exchange correlation table for  LEXCH =        8
   RHO(1)=    0.500       N(1)  =     2000
   RHO(2)=  100.500       N(2)  =     4000
 


--------------------------------------------------------------------------------------------------------


 ion  position               nearest neighbor table
   1  0.001  0.153  0.973-   6 0.96
   2  0.000  0.119  0.000-   6 0.96
   3  0.000  0.003  0.000-   4 1.17   5 1.17
   4  0.000  0.036  0.000-   3 1.17
   5  0.000  0.969  0.000-   3 1.17
   6  0.000  0.146  0.000-   2 0.96   1 0.96
 
  LATTYP: Found a simple cubic cell.
 ALAT       =    35.0000000000
  
  Lattice vectors:
  
 A1 = (  35.0000000000,   0.0000000000,   0.0000000000)
 A2 = (   0.0000000000,  35.0000000000,   0.0000000000)
 A3 = (   0.0000000000,   0.0000000000,  35.0000000000)


Analysis of symmetry for initial positions (statically):
=====================================================================
 Subroutine PRICEL returns:
 Original cell was already a primitive cell.
 

 Routine SETGRP: Setting up the symmetry group for a 
 simple cubic supercell.


 Subroutine GETGRP returns: Found  1 space group operations
 (whereof  1 operations were pure point group operations)
 out of a pool of 48 trial point group operations.


The static configuration has the point symmetry C_1 .


Analysis of symmetry for dynamics (positions and initial velocities):
=====================================================================
 Subroutine PRICEL returns:
 Original cell was already a primitive cell.
 

 Routine SETGRP: Setting up the symmetry group for a 
 simple cubic supercell.


 Subroutine GETGRP returns: Found  1 space group operations
 (whereof  1 operations were pure point group operations)
 out of a pool of 48 trial point group operations.


The dynamic configuration has the point symmetry C_1 .


 Subroutine INISYM returns: Found  1 space group operations
 (whereof  1 operations are pure point group operations),
 and found     1 'primitive' translations


----------------------------------------------------------------------------------------

                                     Primitive cell                                     

  volume of cell :   42875.0000

  direct lattice vectors                    reciprocal lattice vectors
    35.000000000  0.000000000  0.000000000     0.028571429  0.000000000  0.000000000
     0.000000000 35.000000000  0.000000000     0.000000000  0.028571429  0.000000000
     0.000000000  0.000000000 35.000000000     0.000000000  0.000000000  0.028571429

  length of vectors
    35.000000000 35.000000000 35.000000000     0.028571429  0.028571429  0.028571429

  position of ions in fractional coordinates (direct lattice)
     0.001011704  0.152976117  0.973379868
     0.000000000  0.118813600  0.000000000
     0.000000000  0.002521600  0.000000000
     0.000000000  0.035956457  0.000000000
     0.000000000  0.969086743  0.000000000
     0.000000000  0.146281314  0.000000000

  ion indices of the primitive-cell ions
   primitive index   ion index
                 1           1
                 2           2
                 3           3
                 4           4
                 5           5
                 6           6

----------------------------------------------------------------------------------------

 
 
 KPOINTS: automatic mesh                          

Automatic generation of k-mesh.
Space group operators:
 irot       det(A)        alpha          n_x          n_y          n_z        tau_x        tau_y        tau_z
    1     1.000000     0.000000     1.000000     0.000000     0.000000     0.000000     0.000000     0.000000
 
 Subroutine IBZKPT returns following result:
 ===========================================
 
 Found      1 irreducible k-points:
 
 Following reciprocal coordinates:
            Coordinates               Weight
  0.000000  0.000000  0.000000      1.000000
 
 Following cartesian coordinates:
            Coordinates               Weight
  0.000000  0.000000  0.000000      1.000000
 


--------------------------------------------------------------------------------------------------------




 Dimension of arrays:
   k-points           NKPTS =      1   k-points in BZ     NKDIM =      1   number of bands    NBANDS=     16
   number of dos      NEDOS =    301   number of ions     NIONS =      6
   non local maximal  LDIM  =      4   non local SUM 2l+1 LMDIM =      8
   total plane-waves  NPLWV = ******
   max r-space proj   IRMAX =      1   max aug-charges    IRDMAX=  33660
   dimension x,y,z NGX =   480 NGY =  480 NGZ =  480
   dimension x,y,z NGXF=   960 NGYF=  960 NGZF=  960
   support grid    NGXF=   960 NGYF=  960 NGZF=  960
   ions per type =               2   1   3
   NGX,Y,Z   is equivalent  to a cutoff of  22.80, 22.80, 22.80 a.u.
   NGXF,Y,Z  is equivalent  to a cutoff of  45.60, 45.60, 45.60 a.u.

 SYSTEM =  C                                       
 POSCAR =   H  C  O                                

 Startparameter for this run:
   NWRITE =      2    write-flag & timer
   PREC   = acc       normal or accurate (medium, high low for compatibility)
   ISTART =      0    job   : 0-new  1-cont  2-samecut
   ICHARG =      2    charge: 1-file 2-atom 10-const
   ISPIN  =      1    spin polarized calculation?
   LNONCOLLINEAR =      F non collinear calculations
   LSORBIT =      F    spin-orbit coupling
   INIWAV =      1    electr: 0-lowe 1-rand  2-diag
   LASPH  =      T    aspherical Exc in radial PAW
   METAGGA=      F    non-selfconsistent MetaGGA calc.

 Electronic Relaxation 1
   ENCUT  = 1600.0 eV 117.60 Ry   10.84 a.u. 114.15114.15114.15*2*pi/ulx,y,z
   ENINI  = 1600.0     initial cutoff
   ENAUG  =  644.9 eV  augmentation charge cutoff
   NELM   =     60;   NELMIN=  2; NELMDL= -5     # of ELM steps 
   EDIFF  = 0.1E-06   stopping-criterion for ELM
   LREAL  =      F    real-space projection
   NLSPLINE    = F    spline interpolate recip. space projectors
   LCOMPAT=      F    compatible to vasp.4.4
   GGA_COMPAT  = T    GGA compatible to vasp.4.4-vasp.4.6
   LMAXPAW     = -100 max onsite density
   LMAXMIX     =    2 max onsite mixed and CHGCAR
   VOSKOWN=      0    Vosko Wilk Nusair interpolation
   ROPT   =    0.00000   0.00000   0.00000
 Ionic relaxation
   EDIFFG = 0.1E-05   stopping-criterion for IOM
   NSW    =      0    number of steps for IOM
   NBLOCK =      1;   KBLOCK =      1    inner block; outer block 
   IBRION =     -1    ionic relax: 0-MD 1-quasi-New 2-CG
   NFREE  =      0    steps in history (QN), initial steepest desc. (CG)
   ISIF   =      2    stress and relaxation
   IWAVPR =     10    prediction:  0-non 1-charg 2-wave 3-comb
   ISYM   =      2    0-nonsym 1-usesym 2-fastsym
   LCORR  =      T    Harris-Foulkes like correction to forces

   POTIM  = 0.5000    time-step for ionic-motion
   TEIN   =    0.0    initial temperature
   TEBEG  =    0.0;   TEEND  =   0.0 temperature during run
   SMASS  =  -3.00    Nose mass-parameter (am)
   estimated Nose-frequenzy (Omega)   =  0.10E-29 period in steps = 0.13E+47 mass=  -0.280E-25a.u.
   SCALEE = 1.0000    scale energy and forces
   NPACO  =    256;   APACO  = 16.0  distance and # of slots for P.C.
   PSTRESS=    0.0 pullay stress

  Mass of Ions in am
   POMASS =   1.00 12.01 16.00
  Ionic Valenz
   ZVAL   =   1.00  4.00  6.00
  Atomic Wigner-Seitz radii
   RWIGS  =  -1.00 -1.00 -1.00
  virtual crystal weights 
   VCA    =   1.00  1.00  1.00
   NELECT =      24.0000    total number of electrons
   NUPDOWN=      -1.0000    fix difference up-down

 DOS related values:
   EMIN   =  10.00;   EMAX   =-10.00  energy-range for DOS
   EFERMI =   0.00
   ISMEAR =     0;   SIGMA  =   0.01  broadening in eV -4-tet -1-fermi 0-gaus

 Electronic relaxation 2 (details)
   IALGO  =     38    algorithm
   LDIAG  =      T    sub-space diagonalisation (order eigenvalues)
   LSUBROT=      F    optimize rotation matrix (better conditioning)
   TURBO    =      0    0=normal 1=particle mesh
   IRESTART =      0    0=no restart 2=restart with 2 vectors
   NREBOOT  =      0    no. of reboots
   NMIN     =      0    reboot dimension
   EREF     =   0.00    reference energy to select bands
   IMIX   =      4    mixing-type and parameters
     AMIX     =   0.40;   BMIX     =  1.00
     AMIX_MAG =   1.60;   BMIX_MAG =  1.00
     AMIN     =   0.10
     WC   =   100.;   INIMIX=   1;  MIXPRE=   1;  MAXMIX= -45

 Intra band minimization:
   WEIMIN = 0.0000     energy-eigenvalue tresh-hold
   EBREAK =  0.16E-08  absolut break condition
   DEPER  =   0.30     relativ break condition  

   TIME   =   0.40     timestep for ELM

  volume/ion in A,a.u.               =    7145.83     48222.46
  Fermi-wavevector in a.u.,A,eV,Ry     =   0.134920  0.254962  0.247673  0.018203
  Thomas-Fermi vector in A             =   0.783236
 
 Write flags
   LWAVE        =      T    write WAVECAR
   LDOWNSAMPLE  =      F    k-point downsampling of WAVECAR
   LCHARG       =      T    write CHGCAR
   LVTOT        =      F    write LOCPOT, total local potential
   LVHAR        =      F    write LOCPOT, Hartree potential only
   LELF         =      F    write electronic localiz. function (ELF)
   LORBIT       =      0    0 simple, 1 ext, 2 COOP (PROOUT), +10 PAW based schemes


 Dipole corrections
   LMONO  =      F    monopole corrections only (constant potential shift)
   LDIPOL =      F    correct potential (dipole corrections)
   IDIPOL =      4    1-x, 2-y, 3-z, 4-all directions 
   EPSILON=  1.0000000 bulk dielectric constant

 Exchange correlation treatment:
   GGA     =    --    GGA type
   LEXCH   =     8    internal setting for exchange type
   VOSKOWN=      0    Vosko Wilk Nusair interpolation
   LHFCALC =     F    Hartree Fock is set to
   LHFONE  =     F    Hartree Fock one center treatment
   AEXX    =    0.0000 exact exchange contribution

 Linear response parameters
   LEPSILON=     F    determine dielectric tensor
   LRPA    =     F    only Hartree local field effects (RPA)
   LNABLA  =     F    use nabla operator in PAW spheres
   LVEL    =     F    velocity operator in full k-point grid
   LINTERFAST=   F  fast interpolation
   KINTER  =     0    interpolate to denser k-point grid
   CSHIFT  =0.1000    complex shift for real part using Kramers Kronig
   OMEGAMAX=  -1.0    maximum frequency
   DEG_THRESHOLD= 0.2000000E-02 threshold for treating states as degnerate
   RTIME   =   -0.100 relaxation time in fs
  (WPLASMAI=    0.000 imaginary part of plasma frequency in eV, 0.658/RTIME)
   DFIELD  = 0.0000000 0.0000000 0.0000000 field for delta impulse in time
 
 Orbital magnetization related:
   ORBITALMAG=     F  switch on orbital magnetization
   LCHIMAG   =     F  perturbation theory with respect to B field
   DQ        =  0.001000  dq finite difference perturbation B field
   LLRAUG    =     F  two centre corrections for induced B field



--------------------------------------------------------------------------------------------------------


 Static calculation
 charge density and potential will be updated during run
 non-spin polarized calculation
 Variant of blocked Davidson
 Davidson routine will perform the subspace rotation
 perform sub-space diagonalisation
    after iterative eigenvector-optimisation
 modified Broyden-mixing scheme, WC =      100.0
 initial mixing is a Kerker type mixing with AMIX =  0.4000 and BMIX =      1.0000
 Hartree-type preconditioning will be used
 using additional bands             4
 reciprocal scheme for non local part
 use partial core corrections
 calculate Harris-corrections to forces 
   (improved forces if not selfconsistent)
 use gradient corrections 
 use of overlap-Matrix (Vanderbilt PP)
 Gauss-broadening in eV      SIGMA  =   0.01


--------------------------------------------------------------------------------------------------------


  energy-cutoff  :     1600.00
  volume of cell :    42875.00
      direct lattice vectors                 reciprocal lattice vectors
    35.000000000  0.000000000  0.000000000     0.028571429  0.000000000  0.000000000
     0.000000000 35.000000000  0.000000000     0.000000000  0.028571429  0.000000000
     0.000000000  0.000000000 35.000000000     0.000000000  0.000000000  0.028571429

  length of vectors
    35.000000000 35.000000000 35.000000000     0.028571429  0.028571429  0.028571429


 
 k-points in units of 2pi/SCALE and weight: automatic mesh                          
   0.00000000  0.00000000  0.00000000       1.000
 
 k-points in reciprocal lattice and weights: automatic mesh                          
   0.00000000  0.00000000  0.00000000       1.000
 
 position of ions in fractional coordinates (direct lattice) 
   0.00101170  0.15297612  0.97337987
   0.00000000  0.11881360  0.00000000
   0.00000000  0.00252160  0.00000000
   0.00000000  0.03595646  0.00000000
   0.00000000  0.96908674  0.00000000
   0.00000000  0.14628131  0.00000000
 
 position of ions in cartesian coordinates  (Angst):
   0.03540965  5.35416408 34.06829539
   0.00000000  4.15847600  0.00000000
   0.00000000  0.08825600  0.00000000
   0.00000000  1.25847600  0.00000000
   0.00000000 33.91803600  0.00000000
   0.00000000  5.11984600  0.00000000
 


--------------------------------------------------------------------------------------------------------


 use parallel FFT for orbitals z direction half grid
 k-point   1 :   0.0000 0.0000 0.0000  plane waves: 3115599

 maximum and minimum number of plane-waves per node :    389462   389421

 maximum number of plane-waves:   3115599
 maximum index in each direction: 
   IXMAX=  114   IYMAX=  114   IZMAX=  114
   IXMIN= -114   IYMIN= -114   IZMIN=    0


 parallel 3D FFT for wavefunctions:
    minimum data exchange during FFTs selected (reduces bandwidth)
 parallel 3D FFT for charge:
    minimum data exchange during FFTs selected (reduces bandwidth)


 total amount of memory used by VASP MPI-rank0  3707962. kBytes
=======================================================================

   base      :      30000. kBytes
   nonl-proj :     112154. kBytes
   fftplans  :    1215227. kBytes
   grid      :    2325657. kBytes
   one-center:          1. kBytes
   wavefun   :      24923. kBytes
 
     INWAV:  cpu time    0.0000: real time    0.0000
 Broyden mixing: mesh for mixing (old mesh)
   NGX =229   NGY =229   NGZ =229
  (NGX  =960   NGY  =960   NGZ  =960)
  gives a total of ****** points

 initial charge density was supplied:
 charge density of overlapping atoms calculated
 number of electron      24.0000000 magnetization 
 keeping initial charge density in first step


--------------------------------------------------------------------------------------------------------


 Maximum index for augmentation-charges          1234 (set IRDMAX)


--------------------------------------------------------------------------------------------------------


 First call to EWALD:  gamma=   0.051
 Maximum number of real-space cells 3x 3x 3
 Maximum number of reciprocal cells 3x 3x 3

    FEWALD:  cpu time    0.0007: real time    0.0007


--------------------------------------- Iteration      1(   1)  ---------------------------------------


    POTLOK:  cpu time   22.5008: real time   22.5382
    SETDIJ:  cpu time    0.0513: real time    0.0524
     EDDAV:  cpu time   15.8814: real time   19.3601
       DOS:  cpu time    0.0187: real time    0.0187
    --------------------------------------------
      LOOP:  cpu time   38.4522: real time   41.9693

 eigenvalue-minimisations  :    48
 total energy-change (2. order) : 0.2499600E+03  (-0.4644291E+03)
 number of electron      24.0000000 magnetization 
 augmentation part       24.0000000 magnetization 

 Free energy of the ion-electron system (eV)
  ---------------------------------------------------
  alpha Z        PSCENC =         0.05311416
  Ewald energy   TEWEN  =      1059.35771956
  -Hartree energ DENC   =     -2222.17402569
  -exchange      EXHF   =         0.00000000
  -V(xc)+E(xc)   XCENC  =        99.81385589
  PAW double counting   =      1152.43853192    -1158.42170530
  entropy T*S    EENTRO =        -0.00430747
  eigenvalues    EBANDS =      -150.37064698
  atomic energy  EATOM  =      1469.26749561
  Solvation  Ediel_sol  =         0.00000000
  ---------------------------------------------------
  free energy    TOTEN  =       249.96003171 eV

  energy without entropy =      249.96433918  energy(sigma->0) =      249.96218545


--------------------------------------------------------------------------------------------------------




--------------------------------------- Iteration      1(   2)  ---------------------------------------


     EDDAV:  cpu time   20.1545: real time   20.1826
       DOS:  cpu time    0.0264: real time    0.0264
    --------------------------------------------
      LOOP:  cpu time   20.1809: real time   20.2091

 eigenvalue-minimisations  :    64
 total energy-change (2. order) :-0.1427147E+03  (-0.1423846E+03)
 number of electron      24.0000000 magnetization 
 augmentation part       24.0000000 magnetization 

 Free energy of the ion-electron system (eV)
  ---------------------------------------------------
  alpha Z        PSCENC =         0.05311416
  Ewald energy   TEWEN  =      1059.35771956
  -Hartree energ DENC   =     -2222.17402569
  -exchange      EXHF   =         0.00000000
  -V(xc)+E(xc)   XCENC  =        99.81385589
  PAW double counting   =      1152.43853192    -1158.42170530
  entropy T*S    EENTRO =        -0.00000000
  eigenvalues    EBANDS =      -293.08961635
  atomic energy  EATOM  =      1469.26749561
  Solvation  Ediel_sol  =         0.00000000
  ---------------------------------------------------
  free energy    TOTEN  =       107.24536982 eV

  energy without entropy =      107.24536982  energy(sigma->0) =      107.24536982


--------------------------------------------------------------------------------------------------------




--------------------------------------- Iteration      1(   3)  ---------------------------------------


     EDDAV:  cpu time   16.1756: real time   16.1987
       DOS:  cpu time    0.0279: real time    0.0279
    --------------------------------------------
      LOOP:  cpu time   16.2035: real time   16.2266

 eigenvalue-minimisations  :    48
 total energy-change (2. order) :-0.1093543E+03  (-0.1092331E+03)
 number of electron      24.0000000 magnetization 
 augmentation part       24.0000000 magnetization 

 Free energy of the ion-electron system (eV)
  ---------------------------------------------------
  alpha Z        PSCENC =         0.05311416
  Ewald energy   TEWEN  =      1059.35771956
  -Hartree energ DENC   =     -2222.17402569
  -exchange      EXHF   =         0.00000000
  -V(xc)+E(xc)   XCENC  =        99.81385589
  PAW double counting   =      1152.43853192    -1158.42170530
  entropy T*S    EENTRO =        -0.00000000
  eigenvalues    EBANDS =      -402.44390426
  atomic energy  EATOM  =      1469.26749561
  Solvation  Ediel_sol  =         0.00000000
  ---------------------------------------------------
  free energy    TOTEN  =        -2.10891809 eV

  energy without entropy =       -2.10891809  energy(sigma->0) =       -2.10891809


--------------------------------------------------------------------------------------------------------




--------------------------------------- Iteration      1(   4)  ---------------------------------------


     EDDAV:  cpu time   11.9573: real time   11.9741
       DOS:  cpu time    0.0043: real time    0.0043
    --------------------------------------------
      LOOP:  cpu time   11.9616: real time   11.9784

 eigenvalue-minimisations  :    32
 total energy-change (2. order) :-0.3746334E+02  (-0.3745928E+02)
 number of electron      24.0000000 magnetization 
 augmentation part       24.0000000 magnetization 

 Free energy of the ion-electron system (eV)
  ---------------------------------------------------
  alpha Z        PSCENC =         0.05311416
  Ewald energy   TEWEN  =      1059.35771956
  -Hartree energ DENC   =     -2222.17402569
  -exchange      EXHF   =         0.00000000
  -V(xc)+E(xc)   XCENC  =        99.81385589
  PAW double counting   =      1152.43853192    -1158.42170530
  entropy T*S    EENTRO =        -0.00000000
  eigenvalues    EBANDS =      -439.90724580
  atomic energy  EATOM  =      1469.26749561
  Solvation  Ediel_sol  =         0.00000000
  ---------------------------------------------------
  free energy    TOTEN  =       -39.57225964 eV

  energy without entropy =      -39.57225964  energy(sigma->0) =      -39.57225964


--------------------------------------------------------------------------------------------------------




--------------------------------------- Iteration      1(   5)  ---------------------------------------


     EDDAV:  cpu time   11.9735: real time   11.9904
       DOS:  cpu time    0.0109: real time    0.0109
    CHARGE:  cpu time    3.6298: real time    3.6368
    MIXING:  cpu time    0.5202: real time    0.5209
    --------------------------------------------
      LOOP:  cpu time   16.1344: real time   16.1590

 eigenvalue-minimisations  :    32
 total energy-change (2. order) :-0.1505820E+01  (-0.1505815E+01)
 number of electron      23.9999999 magnetization 
 augmentation part        2.3554822 magnetization 

 Broyden mixing:
  rms(total) = 0.12296E+01    rms(broyden)= 0.12296E+01
  rms(prec ) = 0.12608E+01
  weight for this iteration     100.00

 Free energy of the ion-electron system (eV)
  ---------------------------------------------------
  alpha Z        PSCENC =         0.05311416
  Ewald energy   TEWEN  =      1059.35771956
  -Hartree energ DENC   =     -2222.17402569
  -exchange      EXHF   =         0.00000000
  -V(xc)+E(xc)   XCENC  =        99.81385589
  PAW double counting   =      1152.43853192    -1158.42170530
  entropy T*S    EENTRO =        -0.00000000
  eigenvalues    EBANDS =      -441.41306536
  atomic energy  EATOM  =      1469.26749561
  Solvation  Ediel_sol  =         0.00000000
  ---------------------------------------------------
  free energy    TOTEN  =       -41.07807919 eV

  energy without entropy =      -41.07807919  energy(sigma->0) =      -41.07807919


--------------------------------------------------------------------------------------------------------




--------------------------------------- Iteration      1(   6)  ---------------------------------------


    POTLOK:  cpu time   22.3446: real time   22.3723
    SETDIJ:  cpu time    0.0540: real time    0.0540
     EDDAV:  cpu time   12.1975: real time   12.2217
       DOS:  cpu time    0.0005: real time    0.0005
    CHARGE:  cpu time    3.5709: real time    3.5756
    MIXING:  cpu time    0.5291: real time    0.5391
    --------------------------------------------
      LOOP:  cpu time   38.6966: real time   38.7632

 eigenvalue-minimisations  :    32
 total energy-change (2. order) : 0.3467721E+01  (-0.1655592E+01)
 number of electron      23.9999999 magnetization 
 augmentation part        2.0409591 magnetization 

 Broyden mixing:
  rms(total) = 0.53521E+00    rms(broyden)= 0.53521E+00
  rms(prec ) = 0.54147E+00
  weight for this iteration     100.00

 eigenvalues of (default mixing * dielectric matrix)
  average eigenvalue GAMMA=   1.0018
  1.0018

 Free energy of the ion-electron system (eV)
  ---------------------------------------------------
  alpha Z        PSCENC =         0.05311416
  Ewald energy   TEWEN  =      1059.35771956
  -Hartree energ DENC   =     -2272.11274648
  -exchange      EXHF   =         0.00000000
  -V(xc)+E(xc)   XCENC  =       102.71595597
  PAW double counting   =      1511.19829107    -1517.95898933
  entropy T*S    EENTRO =        -0.00000000
  eigenvalues    EBANDS =      -390.13119858
  atomic energy  EATOM  =      1469.26749561
  Solvation  Ediel_sol  =         0.00000000
  ---------------------------------------------------
  free energy    TOTEN  =       -37.61035802 eV

  energy without entropy =      -37.61035802  energy(sigma->0) =      -37.61035802


--------------------------------------------------------------------------------------------------------




--------------------------------------- Iteration      1(   7)  ---------------------------------------


    POTLOK:  cpu time   22.2807: real time   22.3151
    SETDIJ:  cpu time    0.0509: real time    0.0510
     EDDAV:  cpu time   15.9572: real time   15.9925
       DOS:  cpu time    0.0105: real time    0.0105
    CHARGE:  cpu time    3.5530: real time    3.5575
    MIXING:  cpu time    0.5664: real time    0.5671
    --------------------------------------------
      LOOP:  cpu time   42.4187: real time   42.4936

 eigenvalue-minimisations  :    48
 total energy-change (2. order) : 0.2132915E+00  (-0.4191769E-01)
 number of electron      23.9999999 magnetization 
 augmentation part        2.0452363 magnetization 

 Broyden mixing:
  rms(total) = 0.31645E+00    rms(broyden)= 0.31645E+00
  rms(prec ) = 0.32055E+00
  weight for this iteration     100.00

 eigenvalues of (default mixing * dielectric matrix)
  average eigenvalue GAMMA=   1.6759
  1.0285  2.3233

 Free energy of the ion-electron system (eV)
  ---------------------------------------------------
  alpha Z        PSCENC =         0.05311416
  Ewald energy   TEWEN  =      1059.35771956
  -Hartree energ DENC   =     -2281.00832078
  -exchange      EXHF   =         0.00000000
  -V(xc)+E(xc)   XCENC  =       103.16219703
  PAW double counting   =      1737.95446425    -1744.60552866
  entropy T*S    EENTRO =        -0.00000000
  eigenvalues    EBANDS =      -381.57820771
  atomic energy  EATOM  =      1469.26749561
  Solvation  Ediel_sol  =         0.00000000
  ---------------------------------------------------
  free energy    TOTEN  =       -37.39706653 eV

  energy without entropy =      -37.39706653  energy(sigma->0) =      -37.39706653


--------------------------------------------------------------------------------------------------------




--------------------------------------- Iteration      1(   8)  ---------------------------------------


    POTLOK:  cpu time   22.3579: real time   22.3853
    SETDIJ:  cpu time    0.0492: real time    0.0492
     EDDAV:  cpu time   16.0678: real time   16.0903
       DOS:  cpu time    0.0228: real time    0.0228
    CHARGE:  cpu time    3.4594: real time    3.4637
    MIXING:  cpu time    0.6205: real time    0.6265
    --------------------------------------------
      LOOP:  cpu time   42.5776: real time   42.6378

 eigenvalue-minimisations  :    48
 total energy-change (2. order) : 0.1336941E+00  (-0.3337780E-01)
 number of electron      23.9999999 magnetization 
 augmentation part        2.0462705 magnetization 

 Broyden mixing:
  rms(total) = 0.64311E-01    rms(broyden)= 0.64311E-01
  rms(prec ) = 0.67444E-01
  weight for this iteration     100.00

 eigenvalues of (default mixing * dielectric matrix)
  average eigenvalue GAMMA=   1.3534
  2.4004  1.0048  0.6550

 Free energy of the ion-electron system (eV)
  ---------------------------------------------------
  alpha Z        PSCENC =         0.05311416
  Ewald energy   TEWEN  =      1059.35771956
  -Hartree energ DENC   =     -2292.94292553
  -exchange      EXHF   =         0.00000000
  -V(xc)+E(xc)   XCENC  =       103.79776034
  PAW double counting   =      2084.20036609    -2090.79435267
  entropy T*S    EENTRO =        -0.00000000
  eigenvalues    EBANDS =      -370.20254999
  atomic energy  EATOM  =      1469.26749561
  Solvation  Ediel_sol  =         0.00000000
  ---------------------------------------------------
  free energy    TOTEN  =       -37.26337242 eV

  energy without entropy =      -37.26337242  energy(sigma->0) =      -37.26337242


--------------------------------------------------------------------------------------------------------




--------------------------------------- Iteration      1(   9)  ---------------------------------------


    POTLOK:  cpu time   22.4011: real time   22.4286
    SETDIJ:  cpu time    0.0565: real time    0.0565
     EDDAV:  cpu time   16.0682: real time   16.0926
       DOS:  cpu time    0.0125: real time    0.0125
    CHARGE:  cpu time    3.5923: real time    3.5968
    MIXING:  cpu time    0.5359: real time    0.5366
    --------------------------------------------
      LOOP:  cpu time   42.6665: real time   42.7235

 eigenvalue-minimisations  :    48
 total energy-change (2. order) : 0.8367848E-02  (-0.2406871E-02)
 number of electron      23.9999999 magnetization 
 augmentation part        2.0405107 magnetization 

 Broyden mixing:
  rms(total) = 0.36648E-01    rms(broyden)= 0.36648E-01
  rms(prec ) = 0.39315E-01
  weight for this iteration     100.00

 eigenvalues of (default mixing * dielectric matrix)
  average eigenvalue GAMMA=   1.4305
  2.4670  1.0035  1.0035  1.2480

 Free energy of the ion-electron system (eV)
  ---------------------------------------------------
  alpha Z        PSCENC =         0.05311416
  Ewald energy   TEWEN  =      1059.35771956
  -Hartree energ DENC   =     -2293.64991580
  -exchange      EXHF   =         0.00000000
  -V(xc)+E(xc)   XCENC  =       103.84089784
  PAW double counting   =      2101.25683821    -2107.85046699
  entropy T*S    EENTRO =        -0.00000000
  eigenvalues    EBANDS =      -369.53068716
  atomic energy  EATOM  =      1469.26749561
  Solvation  Ediel_sol  =         0.00000000
  ---------------------------------------------------
  free energy    TOTEN  =       -37.25500457 eV

  energy without entropy =      -37.25500457  energy(sigma->0) =      -37.25500457


--------------------------------------------------------------------------------------------------------




--------------------------------------- Iteration      1(  10)  ---------------------------------------


    POTLOK:  cpu time   22.3555: real time   22.3869
    SETDIJ:  cpu time    0.0452: real time    0.0452
     EDDAV:  cpu time   12.0611: real time   12.0813
       DOS:  cpu time    0.0085: real time    0.0085
    CHARGE:  cpu time    3.5015: real time    3.5119
    MIXING:  cpu time    0.6128: real time    0.6136
    --------------------------------------------
      LOOP:  cpu time   38.5846: real time   38.6474

 eigenvalue-minimisations  :    32
 total energy-change (2. order) : 0.5117042E-03  (-0.1150578E-02)
 number of electron      23.9999999 magnetization 
 augmentation part        2.0351116 magnetization 

 Broyden mixing:
  rms(total) = 0.15158E-01    rms(broyden)= 0.15158E-01
  rms(prec ) = 0.17711E-01
  weight for this iteration     100.00

 eigenvalues of (default mixing * dielectric matrix)
  average eigenvalue GAMMA=   1.3810
  2.3714  1.2848  1.2848  1.1683  0.7954

 Free energy of the ion-electron system (eV)
  ---------------------------------------------------
  alpha Z        PSCENC =         0.05311416
  Ewald energy   TEWEN  =      1059.35771956
  -Hartree energ DENC   =     -2294.22991721
  -exchange      EXHF   =         0.00000000
  -V(xc)+E(xc)   XCENC  =       103.86463118
  PAW double counting   =      2111.65977613    -2118.23422460
  entropy T*S    EENTRO =        -0.00000000
  eigenvalues    EBANDS =      -368.99308769
  atomic energy  EATOM  =      1469.26749561
  Solvation  Ediel_sol  =         0.00000000
  ---------------------------------------------------
  free energy    TOTEN  =       -37.25449287 eV

  energy without entropy =      -37.25449287  energy(sigma->0) =      -37.25449287


--------------------------------------------------------------------------------------------------------




--------------------------------------- Iteration      1(  11)  ---------------------------------------


    POTLOK:  cpu time   22.3671: real time   22.3967
    SETDIJ:  cpu time    0.0470: real time    0.0470
     EDDAV:  cpu time   16.0071: real time   16.0304
       DOS:  cpu time    0.0143: real time    0.0143
    CHARGE:  cpu time    3.6115: real time    3.6162
    MIXING:  cpu time    0.5789: real time    0.5824
    --------------------------------------------
      LOOP:  cpu time   42.6259: real time   42.6870

 eigenvalue-minimisations  :    48
 total energy-change (2. order) :-0.2441750E-02  (-0.2279347E-03)
 number of electron      23.9999999 magnetization 
 augmentation part        2.0378395 magnetization 

 Broyden mixing:
  rms(total) = 0.91972E-02    rms(broyden)= 0.91972E-02
  rms(prec ) = 0.11993E-01
  weight for this iteration     100.00

 eigenvalues of (default mixing * dielectric matrix)
  average eigenvalue GAMMA=   1.4459
  2.4341  2.4341  1.0186  1.0186  1.0150  0.7548

 Free energy of the ion-electron system (eV)
  ---------------------------------------------------
  alpha Z        PSCENC =         0.05311416
  Ewald energy   TEWEN  =      1059.35771956
  -Hartree energ DENC   =     -2294.18000730
  -exchange      EXHF   =         0.00000000
  -V(xc)+E(xc)   XCENC  =       103.84709204
  PAW double counting   =      2106.81495428    -2113.38073060
  entropy T*S    EENTRO =        -0.00000000
  eigenvalues    EBANDS =      -369.03657238
  atomic energy  EATOM  =      1469.26749561
  Solvation  Ediel_sol  =         0.00000000
  ---------------------------------------------------
  free energy    TOTEN  =       -37.25693461 eV

  energy without entropy =      -37.25693461  energy(sigma->0) =      -37.25693461


--------------------------------------------------------------------------------------------------------




--------------------------------------- Iteration      1(  12)  ---------------------------------------


    POTLOK:  cpu time   22.3723: real time   22.3997
    SETDIJ:  cpu time    0.0423: real time    0.0423
     EDDAV:  cpu time   15.9440: real time   15.9768
       DOS:  cpu time    0.0008: real time    0.0008
    CHARGE:  cpu time    3.5457: real time    3.5509
    MIXING:  cpu time    0.6559: real time    0.6568
    --------------------------------------------
      LOOP:  cpu time   42.5609: real time   42.6272

 eigenvalue-minimisations  :    48
 total energy-change (2. order) :-0.3271777E-02  (-0.1842970E-03)
 number of electron      23.9999999 magnetization 
 augmentation part        2.0358845 magnetization 

 Broyden mixing:
  rms(total) = 0.66361E-02    rms(broyden)= 0.66361E-02
  rms(prec ) = 0.84222E-02
  weight for this iteration     100.00

 eigenvalues of (default mixing * dielectric matrix)
  average eigenvalue GAMMA=   1.5558
  3.2960  2.4212  1.2387  1.1273  1.1273  0.8400  0.8400

 Free energy of the ion-electron system (eV)
  ---------------------------------------------------
  alpha Z        PSCENC =         0.05311416
  Ewald energy   TEWEN  =      1059.35771956
  -Hartree energ DENC   =     -2294.67900724
  -exchange      EXHF   =         0.00000000
  -V(xc)+E(xc)   XCENC  =       103.85995966
  PAW double counting   =      2107.26697924    -2113.82733713
  entropy T*S    EENTRO =        -0.00000000
  eigenvalues    EBANDS =      -368.55913026
  atomic energy  EATOM  =      1469.26749561
  Solvation  Ediel_sol  =         0.00000000
  ---------------------------------------------------
  free energy    TOTEN  =       -37.26020639 eV

  energy without entropy =      -37.26020639  energy(sigma->0) =      -37.26020639


--------------------------------------------------------------------------------------------------------




--------------------------------------- Iteration      1(  13)  ---------------------------------------


    POTLOK:  cpu time   22.4069: real time   22.4426
    SETDIJ:  cpu time    0.0408: real time    0.0408
     EDDAV:  cpu time   16.0225: real time   16.0581
       DOS:  cpu time    0.0009: real time    0.0009
    CHARGE:  cpu time    3.4443: real time    3.4570
    MIXING:  cpu time    0.6969: real time    0.6978
    --------------------------------------------
      LOOP:  cpu time   42.6122: real time   42.6972

 eigenvalue-minimisations  :    48
 total energy-change (2. order) :-0.4596595E-02  (-0.1239876E-03)
 number of electron      23.9999999 magnetization 
 augmentation part        2.0361528 magnetization 

 Broyden mixing:
  rms(total) = 0.33187E-02    rms(broyden)= 0.33187E-02
  rms(prec ) = 0.45409E-02
  weight for this iteration     100.00

 eigenvalues of (default mixing * dielectric matrix)
  average eigenvalue GAMMA=   1.7125
  4.2688  2.4961  2.1149  1.0215  1.0215  1.0755  0.9357  0.7659

 Free energy of the ion-electron system (eV)
  ---------------------------------------------------
  alpha Z        PSCENC =         0.05311416
  Ewald energy   TEWEN  =      1059.35771956
  -Hartree energ DENC   =     -2295.14471147
  -exchange      EXHF   =         0.00000000
  -V(xc)+E(xc)   XCENC  =       103.86723648
  PAW double counting   =      2105.89554775    -2112.45595578
  entropy T*S    EENTRO =        -0.00000000
  eigenvalues    EBANDS =      -368.10524930
  atomic energy  EATOM  =      1469.26749561
  Solvation  Ediel_sol  =         0.00000000
  ---------------------------------------------------
  free energy    TOTEN  =       -37.26480299 eV

  energy without entropy =      -37.26480299  energy(sigma->0) =      -37.26480299


--------------------------------------------------------------------------------------------------------




--------------------------------------- Iteration      1(  14)  ---------------------------------------


    POTLOK:  cpu time   22.4033: real time   22.4351
    SETDIJ:  cpu time    0.0404: real time    0.0404
     EDDAV:  cpu time   13.9811: real time   14.0009
       DOS:  cpu time    0.0139: real time    0.0139
    CHARGE:  cpu time    3.5384: real time    3.5431
    MIXING:  cpu time    0.7088: real time    0.7098
    --------------------------------------------
      LOOP:  cpu time   40.6860: real time   40.7432

 eigenvalue-minimisations  :    40
 total energy-change (2. order) :-0.4243821E-02  (-0.9136253E-04)
 number of electron      23.9999999 magnetization 
 augmentation part        2.0360788 magnetization 

 Broyden mixing:
  rms(total) = 0.23981E-02    rms(broyden)= 0.23981E-02
  rms(prec ) = 0.29418E-02
  weight for this iteration     100.00

 eigenvalues of (default mixing * dielectric matrix)
  average eigenvalue GAMMA=   1.8905
  5.3906  2.8642  2.3551  1.6685  0.9723  0.9723  1.0199  1.0199  0.7518

 Free energy of the ion-electron system (eV)
  ---------------------------------------------------
  alpha Z        PSCENC =         0.05311416
  Ewald energy   TEWEN  =      1059.35771956
  -Hartree energ DENC   =     -2295.41592612
  -exchange      EXHF   =         0.00000000
  -V(xc)+E(xc)   XCENC  =       103.86876479
  PAW double counting   =      2103.99796490    -2110.56096900
  entropy T*S    EENTRO =        -0.00000000
  eigenvalues    EBANDS =      -367.83721072
  atomic energy  EATOM  =      1469.26749561
  Solvation  Ediel_sol  =         0.00000000
  ---------------------------------------------------
  free energy    TOTEN  =       -37.26904681 eV

  energy without entropy =      -37.26904681  energy(sigma->0) =      -37.26904681


--------------------------------------------------------------------------------------------------------




--------------------------------------- Iteration      1(  15)  ---------------------------------------


    POTLOK:  cpu time   22.4028: real time   22.4310
    SETDIJ:  cpu time    0.0563: real time    0.0563
     EDDAV:  cpu time   16.0805: real time   16.1036
       DOS:  cpu time    0.0039: real time    0.0039
    CHARGE:  cpu time    3.5397: real time    3.5441
    MIXING:  cpu time    0.7194: real time    0.7204
    --------------------------------------------
      LOOP:  cpu time   42.8025: real time   42.8593

 eigenvalue-minimisations  :    48
 total energy-change (2. order) :-0.2610553E-02  (-0.3595792E-04)
 number of electron      23.9999999 magnetization 
 augmentation part        2.0358803 magnetization 

 Broyden mixing:
  rms(total) = 0.11357E-02    rms(broyden)= 0.11357E-02
  rms(prec ) = 0.14288E-02
  weight for this iteration     100.00

 eigenvalues of (default mixing * dielectric matrix)
  average eigenvalue GAMMA=   1.9233
  6.1145  3.0603  2.4400  1.7767  0.9768  0.9768  1.1128  1.1128  0.9076  0.7546

 Free energy of the ion-electron system (eV)
  ---------------------------------------------------
  alpha Z        PSCENC =         0.05311416
  Ewald energy   TEWEN  =      1059.35771956
  -Hartree energ DENC   =     -2295.39819963
  -exchange      EXHF   =         0.00000000
  -V(xc)+E(xc)   XCENC  =       103.86263783
  PAW double counting   =      2104.65157968    -2111.21238280
  entropy T*S    EENTRO =        -0.00000000
  eigenvalues    EBANDS =      -367.85362178
  atomic energy  EATOM  =      1469.26749561
  Solvation  Ediel_sol  =         0.00000000
  ---------------------------------------------------
  free energy    TOTEN  =       -37.27165736 eV

  energy without entropy =      -37.27165736  energy(sigma->0) =      -37.27165736


--------------------------------------------------------------------------------------------------------




--------------------------------------- Iteration      1(  16)  ---------------------------------------


    POTLOK:  cpu time   22.4076: real time   22.4373
    SETDIJ:  cpu time    0.0554: real time    0.0554
     EDDAV:  cpu time   16.0446: real time   16.0673
       DOS:  cpu time    0.0046: real time    0.0046
    CHARGE:  cpu time    3.5814: real time    3.5891
    MIXING:  cpu time    0.7004: real time    0.7014
    --------------------------------------------
      LOOP:  cpu time   42.7940: real time   42.8551

 eigenvalue-minimisations  :    48
 total energy-change (2. order) :-0.9103066E-03  (-0.4904936E-05)
 number of electron      23.9999999 magnetization 
 augmentation part        2.0358525 magnetization 

 Broyden mixing:
  rms(total) = 0.55997E-03    rms(broyden)= 0.55997E-03
  rms(prec ) = 0.80790E-03
  weight for this iteration     100.00

 eigenvalues of (default mixing * dielectric matrix)
  average eigenvalue GAMMA=   1.9728
  6.6967  3.3816  2.4447  2.0104  1.4947  0.9796  0.9796  1.0381  1.0381  0.8787
  0.7584

 Free energy of the ion-electron system (eV)
  ---------------------------------------------------
  alpha Z        PSCENC =         0.05311416
  Ewald energy   TEWEN  =      1059.35771956
  -Hartree energ DENC   =     -2295.38437099
  -exchange      EXHF   =         0.00000000
  -V(xc)+E(xc)   XCENC  =       103.86061166
  PAW double counting   =      2105.16746815    -2111.72723420
  entropy T*S    EENTRO =        -0.00000000
  eigenvalues    EBANDS =      -367.86737164
  atomic energy  EATOM  =      1469.26749561
  Solvation  Ediel_sol  =         0.00000000
  ---------------------------------------------------
  free energy    TOTEN  =       -37.27256767 eV

  energy without entropy =      -37.27256767  energy(sigma->0) =      -37.27256767


--------------------------------------------------------------------------------------------------------




--------------------------------------- Iteration      1(  17)  ---------------------------------------


    POTLOK:  cpu time   22.4340: real time   22.4616
    SETDIJ:  cpu time    0.0407: real time    0.0407
     EDDAV:  cpu time   15.9232: real time   15.9537
       DOS:  cpu time    0.0035: real time    0.0035
    CHARGE:  cpu time    3.5053: real time    3.5098
    MIXING:  cpu time    0.8011: real time    0.8022
    --------------------------------------------
      LOOP:  cpu time   42.7078: real time   42.7715

 eigenvalue-minimisations  :    48
 total energy-change (2. order) :-0.6910298E-03  (-0.2593462E-05)
 number of electron      23.9999999 magnetization 
 augmentation part        2.0358180 magnetization 

 Broyden mixing:
  rms(total) = 0.40928E-03    rms(broyden)= 0.40928E-03
  rms(prec ) = 0.54829E-03
  weight for this iteration     100.00

 eigenvalues of (default mixing * dielectric matrix)
  average eigenvalue GAMMA=   2.1239
  7.7372  4.0424  2.7237  2.3925  1.7862  0.9855  0.9855  0.7570  1.0505  1.0505
  1.0498  0.9260

 Free energy of the ion-electron system (eV)
  ---------------------------------------------------
  alpha Z        PSCENC =         0.05311416
  Ewald energy   TEWEN  =      1059.35771956
  -Hartree energ DENC   =     -2295.37157418
  -exchange      EXHF   =         0.00000000
  -V(xc)+E(xc)   XCENC  =       103.85921357
  PAW double counting   =      2105.23056707    -2111.79007073
  entropy T*S    EENTRO =        -0.00000000
  eigenvalues    EBANDS =      -367.87972376
  atomic energy  EATOM  =      1469.26749561
  Solvation  Ediel_sol  =         0.00000000
  ---------------------------------------------------
  free energy    TOTEN  =       -37.27325870 eV

  energy without entropy =      -37.27325870  energy(sigma->0) =      -37.27325870


--------------------------------------------------------------------------------------------------------




--------------------------------------- Iteration      1(  18)  ---------------------------------------


    POTLOK:  cpu time   22.3859: real time   22.4150
    SETDIJ:  cpu time    0.0413: real time    0.0413
     EDDAV:  cpu time   14.0168: real time   14.0480
       DOS:  cpu time    0.0017: real time    0.0017
    CHARGE:  cpu time    3.5781: real time    3.5850
    MIXING:  cpu time    0.7941: real time    0.7952
    --------------------------------------------
      LOOP:  cpu time   40.8178: real time   40.8862

 eigenvalue-minimisations  :    40
 total energy-change (2. order) :-0.5512919E-03  (-0.2479374E-05)
 number of electron      23.9999999 magnetization 
 augmentation part        2.0357866 magnetization 

 Broyden mixing:
  rms(total) = 0.32010E-03    rms(broyden)= 0.32010E-03
  rms(prec ) = 0.36442E-03
  weight for this iteration     100.00

 eigenvalues of (default mixing * dielectric matrix)
  average eigenvalue GAMMA=   2.1770
  8.0210  4.5563  2.5450  2.5450  2.2173  1.6993  0.9787  0.9787  0.7568  1.0659
  1.0659  0.8895  0.9817

 Free energy of the ion-electron system (eV)
  ---------------------------------------------------
  alpha Z        PSCENC =         0.05311416
  Ewald energy   TEWEN  =      1059.35771956
  -Hartree energ DENC   =     -2295.36699282
  -exchange      EXHF   =         0.00000000
  -V(xc)+E(xc)   XCENC  =       103.85854820
  PAW double counting   =      2105.15220869    -2111.71198422
  entropy T*S    EENTRO =        -0.00000000
  eigenvalues    EBANDS =      -367.88391918
  atomic energy  EATOM  =      1469.26749561
  Solvation  Ediel_sol  =         0.00000000
  ---------------------------------------------------
  free energy    TOTEN  =       -37.27380999 eV

  energy without entropy =      -37.27380999  energy(sigma->0) =      -37.27380999


--------------------------------------------------------------------------------------------------------




--------------------------------------- Iteration      1(  19)  ---------------------------------------


    POTLOK:  cpu time   22.3941: real time   22.4228
    SETDIJ:  cpu time    0.0417: real time    0.0417
     EDDAV:  cpu time   15.9783: real time   16.0010
       DOS:  cpu time    0.0017: real time    0.0017
    CHARGE:  cpu time    3.5422: real time    3.5468
    MIXING:  cpu time    0.8251: real time    0.8263
    --------------------------------------------
      LOOP:  cpu time   42.7831: real time   42.8404

 eigenvalue-minimisations  :    48
 total energy-change (2. order) :-0.2044283E-03  (-0.3392968E-06)
 number of electron      23.9999999 magnetization 
 augmentation part        2.0358289 magnetization 

 Broyden mixing:
  rms(total) = 0.13027E-03    rms(broyden)= 0.13027E-03
  rms(prec ) = 0.16051E-03
  weight for this iteration     100.00

 eigenvalues of (default mixing * dielectric matrix)
  average eigenvalue GAMMA=   2.2384
  8.7544  5.1196  3.2172  2.4751  2.1329  1.8317  0.9841  0.9841  1.1185  1.1185
  0.7560  0.9893  0.9893  0.8671

 Free energy of the ion-electron system (eV)
  ---------------------------------------------------
  alpha Z        PSCENC =         0.05311416
  Ewald energy   TEWEN  =      1059.35771956
  -Hartree energ DENC   =     -2295.36142461
  -exchange      EXHF   =         0.00000000
  -V(xc)+E(xc)   XCENC  =       103.85807900
  PAW double counting   =      2104.99127534    -2111.55128636
  entropy T*S    EENTRO =        -0.00000000
  eigenvalues    EBANDS =      -367.88898712
  atomic energy  EATOM  =      1469.26749561
  Solvation  Ediel_sol  =         0.00000000
  ---------------------------------------------------
  free energy    TOTEN  =       -37.27401442 eV

  energy without entropy =      -37.27401442  energy(sigma->0) =      -37.27401442


--------------------------------------------------------------------------------------------------------




--------------------------------------- Iteration      1(  20)  ---------------------------------------


    POTLOK:  cpu time   22.3916: real time   22.4205
    SETDIJ:  cpu time    0.0410: real time    0.0410
     EDDAV:  cpu time   14.0280: real time   14.0512
       DOS:  cpu time    0.0037: real time    0.0037
    CHARGE:  cpu time    3.5194: real time    3.5240
    MIXING:  cpu time    0.9115: real time    0.9129
    --------------------------------------------
      LOOP:  cpu time   40.8952: real time   40.9532

 eigenvalue-minimisations  :    40
 total energy-change (2. order) :-0.8493123E-04  (-0.9091611E-07)
 number of electron      23.9999999 magnetization 
 augmentation part        2.0358239 magnetization 

 Broyden mixing:
  rms(total) = 0.10537E-03    rms(broyden)= 0.10537E-03
  rms(prec ) = 0.11959E-03
  weight for this iteration     100.00

 eigenvalues of (default mixing * dielectric matrix)
  average eigenvalue GAMMA=   2.3578
  9.0707  5.6912  3.8103  2.6883  2.6155  1.9269  1.9269  0.9750  0.9750  0.7558
  1.0650  1.0650  0.9199  0.9405  0.9405

 Free energy of the ion-electron system (eV)
  ---------------------------------------------------
  alpha Z        PSCENC =         0.05311416
  Ewald energy   TEWEN  =      1059.35771956
  -Hartree energ DENC   =     -2295.36125299
  -exchange      EXHF   =         0.00000000
  -V(xc)+E(xc)   XCENC  =       103.85800396
  PAW double counting   =      2104.98625541    -2111.54625040
  entropy T*S    EENTRO =        -0.00000000
  eigenvalues    EBANDS =      -367.88918466
  atomic energy  EATOM  =      1469.26749561
  Solvation  Ediel_sol  =         0.00000000
  ---------------------------------------------------
  free energy    TOTEN  =       -37.27409935 eV

  energy without entropy =      -37.27409935  energy(sigma->0) =      -37.27409935


--------------------------------------------------------------------------------------------------------




--------------------------------------- Iteration      1(  21)  ---------------------------------------


    POTLOK:  cpu time   22.3468: real time   22.3790
    SETDIJ:  cpu time    0.0427: real time    0.0427
     EDDAV:  cpu time   13.9762: real time   13.9965
       DOS:  cpu time    0.0098: real time    0.0098
    CHARGE:  cpu time    3.5212: real time    3.5258
    MIXING:  cpu time    0.9075: real time    0.9088
    --------------------------------------------
      LOOP:  cpu time   40.8042: real time   40.8627

 eigenvalue-minimisations  :    40
 total energy-change (2. order) :-0.7321005E-04  (-0.8534545E-07)
 number of electron      23.9999999 magnetization 
 augmentation part        2.0358065 magnetization 

 Broyden mixing:
  rms(total) = 0.56102E-04    rms(broyden)= 0.56102E-04
  rms(prec ) = 0.60672E-04
  weight for this iteration     100.00

 eigenvalues of (default mixing * dielectric matrix)
  average eigenvalue GAMMA=   2.3001
  9.1920  5.9729  3.9635  2.8822  2.4581  2.0388  1.8035  0.9784  0.9784  1.0944
  1.0944  0.9779  0.9779  0.8631  0.7577  0.7691

 Free energy of the ion-electron system (eV)
  ---------------------------------------------------
  alpha Z        PSCENC =         0.05311416
  Ewald energy   TEWEN  =      1059.35771956
  -Hartree energ DENC   =     -2295.36545113
  -exchange      EXHF   =         0.00000000
  -V(xc)+E(xc)   XCENC  =       103.85813985
  PAW double counting   =      2105.05400829    -2111.61389444
  entropy T*S    EENTRO =        -0.00000000
  eigenvalues    EBANDS =      -367.88530446
  atomic energy  EATOM  =      1469.26749561
  Solvation  Ediel_sol  =         0.00000000
  ---------------------------------------------------
  free energy    TOTEN  =       -37.27417256 eV

  energy without entropy =      -37.27417256  energy(sigma->0) =      -37.27417256


--------------------------------------------------------------------------------------------------------




--------------------------------------- Iteration      1(  22)  ---------------------------------------


    POTLOK:  cpu time   22.3348: real time   22.3625
    SETDIJ:  cpu time    0.0474: real time    0.0474
     EDDAV:  cpu time   14.0389: real time   14.0691
       DOS:  cpu time    0.0123: real time    0.0123
    CHARGE:  cpu time    3.4491: real time    3.4536
    MIXING:  cpu time    0.9967: real time    1.0047
    --------------------------------------------
      LOOP:  cpu time   40.8792: real time   40.9496

 eigenvalue-minimisations  :    40
 total energy-change (2. order) :-0.7934658E-05  (-0.3685239E-08)
 number of electron      23.9999999 magnetization 
 augmentation part        2.0358117 magnetization 

 Broyden mixing:
  rms(total) = 0.35846E-04    rms(broyden)= 0.35846E-04
  rms(prec ) = 0.39829E-04
  weight for this iteration     100.00

 eigenvalues of (default mixing * dielectric matrix)
  average eigenvalue GAMMA=   2.3687
  9.3007  6.3327  4.1460  3.1102  2.5350  2.2687  2.2687  1.7628  0.9753  0.9753
  0.7561  1.0411  1.0411  1.0190  0.8847  0.9255  0.9255

 Free energy of the ion-electron system (eV)
  ---------------------------------------------------
  alpha Z        PSCENC =         0.05311416
  Ewald energy   TEWEN  =      1059.35771956
  -Hartree energ DENC   =     -2295.36388855
  -exchange      EXHF   =         0.00000000
  -V(xc)+E(xc)   XCENC  =       103.85804656
  PAW double counting   =      2105.04193810    -2111.60180608
  entropy T*S    EENTRO =        -0.00000000
  eigenvalues    EBANDS =      -367.88679987
  atomic energy  EATOM  =      1469.26749561
  Solvation  Ediel_sol  =         0.00000000
  ---------------------------------------------------
  free energy    TOTEN  =       -37.27418049 eV

  energy without entropy =      -37.27418049  energy(sigma->0) =      -37.27418049


--------------------------------------------------------------------------------------------------------




--------------------------------------- Iteration      1(  23)  ---------------------------------------


    POTLOK:  cpu time   22.2886: real time   22.3248
    SETDIJ:  cpu time    0.0755: real time    0.0755
     EDDAV:  cpu time   12.0970: real time   12.1145
       DOS:  cpu time    0.0079: real time    0.0079
    CHARGE:  cpu time    3.5276: real time    3.5322
    MIXING:  cpu time    0.9769: real time    0.9789
    --------------------------------------------
      LOOP:  cpu time   38.9734: real time   39.0338

 eigenvalue-minimisations  :    32
 total energy-change (2. order) :-0.1654825E-04  (-0.1000791E-07)
 number of electron      23.9999999 magnetization 
 augmentation part        2.0358128 magnetization 

 Broyden mixing:
  rms(total) = 0.29199E-04    rms(broyden)= 0.29199E-04
  rms(prec ) = 0.30663E-04
  weight for this iteration     100.00

 eigenvalues of (default mixing * dielectric matrix)
  average eigenvalue GAMMA=   2.3433
  9.5280  6.5504  4.6506  3.2405  2.4960  2.4960  2.1016  1.7361  1.0935  1.0935
  0.9777  0.9777  0.7558  0.9541  0.9541  0.8653  0.8539  0.8539

 Free energy of the ion-electron system (eV)
  ---------------------------------------------------
  alpha Z        PSCENC =         0.05311416
  Ewald energy   TEWEN  =      1059.35771956
  -Hartree energ DENC   =     -2295.36331368
  -exchange      EXHF   =         0.00000000
  -V(xc)+E(xc)   XCENC  =       103.85800212
  PAW double counting   =      2105.03583287    -2111.59573375
  entropy T*S    EENTRO =        -0.00000000
  eigenvalues    EBANDS =      -367.88731393
  atomic energy  EATOM  =      1469.26749561
  Solvation  Ediel_sol  =         0.00000000
  ---------------------------------------------------
  free energy    TOTEN  =       -37.27419704 eV

  energy without entropy =      -37.27419704  energy(sigma->0) =      -37.27419704


--------------------------------------------------------------------------------------------------------




--------------------------------------- Iteration      1(  24)  ---------------------------------------


    POTLOK:  cpu time   22.2542: real time   22.2817
    SETDIJ:  cpu time    0.0883: real time    0.0884
     EDDAV:  cpu time   14.1410: real time   14.1650
       DOS:  cpu time    0.0233: real time    0.0233
    CHARGE:  cpu time    3.5161: real time    3.5208
    MIXING:  cpu time    1.0152: real time    1.0167
    --------------------------------------------
      LOOP:  cpu time   41.0380: real time   41.0958

 eigenvalue-minimisations  :    40
 total energy-change (2. order) :-0.2122070E-05  (-0.1880521E-08)
 number of electron      23.9999999 magnetization 
 augmentation part        2.0358143 magnetization 

 Broyden mixing:
  rms(total) = 0.15772E-04    rms(broyden)= 0.15772E-04
  rms(prec ) = 0.16956E-04
  weight for this iteration     100.00

 eigenvalues of (default mixing * dielectric matrix)
  average eigenvalue GAMMA=   2.3395
  9.5461  6.7183  4.7354  3.3541  2.6859  2.3878  1.9228  1.9228  1.3519  1.3519
  0.9731  0.9731  1.0216  1.0216  0.9984  0.9594  0.9594  0.7560  0.8114

 Free energy of the ion-electron system (eV)
  ---------------------------------------------------
  alpha Z        PSCENC =         0.05311416
  Ewald energy   TEWEN  =      1059.35771956
  -Hartree energ DENC   =     -2295.36327649
  -exchange      EXHF   =         0.00000000
  -V(xc)+E(xc)   XCENC  =       103.85799253
  PAW double counting   =      2105.03228911    -2111.59218812
  entropy T*S    EENTRO =        -0.00000000
  eigenvalues    EBANDS =      -367.88734553
  atomic energy  EATOM  =      1469.26749561
  Solvation  Ediel_sol  =         0.00000000
  ---------------------------------------------------
  free energy    TOTEN  =       -37.27419916 eV

  energy without entropy =      -37.27419916  energy(sigma->0) =      -37.27419916


--------------------------------------------------------------------------------------------------------




--------------------------------------- Iteration      1(  25)  ---------------------------------------


    POTLOK:  cpu time   22.2674: real time   22.2965
    SETDIJ:  cpu time    0.0426: real time    0.0426
     EDDAV:  cpu time   11.9608: real time   11.9778
       DOS:  cpu time    0.0016: real time    0.0016
    CHARGE:  cpu time    3.5444: real time    3.5490
    MIXING:  cpu time    1.0896: real time    1.0912
    --------------------------------------------
      LOOP:  cpu time   38.9064: real time   38.9587

 eigenvalue-minimisations  :    32
 total energy-change (2. order) :-0.3370083E-05  (-0.2027265E-08)
 number of electron      23.9999999 magnetization 
 augmentation part        2.0358150 magnetization 

 Broyden mixing:
  rms(total) = 0.10610E-04    rms(broyden)= 0.10610E-04
  rms(prec ) = 0.11250E-04
  weight for this iteration     100.00

 eigenvalues of (default mixing * dielectric matrix)
  average eigenvalue GAMMA=   2.3773
  9.6492  7.0655  5.1803  3.7848  2.9476  2.3929  2.1346  2.1346  1.5871  1.1609
  1.1609  0.9728  0.9728  1.0289  1.0289  0.7560  0.9258  0.9258  0.9100  0.8262

 Free energy of the ion-electron system (eV)
  ---------------------------------------------------
  alpha Z        PSCENC =         0.05311416
  Ewald energy   TEWEN  =      1059.35771956
  -Hartree energ DENC   =     -2295.36333912
  -exchange      EXHF   =         0.00000000
  -V(xc)+E(xc)   XCENC  =       103.85799579
  PAW double counting   =      2105.03447136    -2111.59436913
  entropy T*S    EENTRO =        -0.00000000
  eigenvalues    EBANDS =      -367.88729077
  atomic energy  EATOM  =      1469.26749561
  Solvation  Ediel_sol  =         0.00000000
  ---------------------------------------------------
  free energy    TOTEN  =       -37.27420253 eV

  energy without entropy =      -37.27420253  energy(sigma->0) =      -37.27420253


--------------------------------------------------------------------------------------------------------




--------------------------------------- Iteration      1(  26)  ---------------------------------------


    POTLOK:  cpu time   22.2907: real time   22.3185
    SETDIJ:  cpu time    0.0453: real time    0.0453
     EDDAV:  cpu time   12.0078: real time   12.0283
       DOS:  cpu time    0.0015: real time    0.0015
    CHARGE:  cpu time    3.5646: real time    3.5710
    MIXING:  cpu time    1.0680: real time    1.0696
    --------------------------------------------
      LOOP:  cpu time   38.9778: real time   39.0342

 eigenvalue-minimisations  :    32
 total energy-change (2. order) :-0.1364680E-05  (-0.1171554E-08)
 number of electron      23.9999999 magnetization 
 augmentation part        2.0358143 magnetization 

 Broyden mixing:
  rms(total) = 0.40836E-05    rms(broyden)= 0.40836E-05
  rms(prec ) = 0.45008E-05
  weight for this iteration     100.00

 eigenvalues of (default mixing * dielectric matrix)
  average eigenvalue GAMMA=   2.4035
  9.6912  7.3130  5.4027  4.0605  3.0867  2.4494  2.4494  2.0870  1.7975  1.2952
  1.2952  0.9741  0.9741  1.1036  1.0477  1.0477  0.7560  0.9288  0.9288  0.9382
  0.8456

 Free energy of the ion-electron system (eV)
  ---------------------------------------------------
  alpha Z        PSCENC =         0.05311416
  Ewald energy   TEWEN  =      1059.35771956
  -Hartree energ DENC   =     -2295.36354642
  -exchange      EXHF   =         0.00000000
  -V(xc)+E(xc)   XCENC  =       103.85800568
  PAW double counting   =      2105.03195770    -2111.59186235
  entropy T*S    EENTRO =        -0.00000000
  eigenvalues    EBANDS =      -367.88708784
  atomic energy  EATOM  =      1469.26749561
  Solvation  Ediel_sol  =         0.00000000
  ---------------------------------------------------
  free energy    TOTEN  =       -37.27420390 eV

  energy without entropy =      -37.27420390  energy(sigma->0) =      -37.27420390


--------------------------------------------------------------------------------------------------------




--------------------------------------- Iteration      1(  27)  ---------------------------------------


    POTLOK:  cpu time   22.2495: real time   22.2765
    SETDIJ:  cpu time    0.0453: real time    0.0453
     EDDAV:  cpu time   11.9970: real time   12.0137
       DOS:  cpu time    0.0017: real time    0.0017
    CHARGE:  cpu time    3.6073: real time    3.6117
    MIXING:  cpu time    1.1073: real time    1.1089
    --------------------------------------------
      LOOP:  cpu time   39.0080: real time   39.0577

 eigenvalue-minimisations  :    32
 total energy-change (2. order) :-0.7931681E-06  (-0.8020500E-09)
 number of electron      23.9999999 magnetization 
 augmentation part        2.0358144 magnetization 

 Broyden mixing:
  rms(total) = 0.28147E-05    rms(broyden)= 0.28147E-05
  rms(prec ) = 0.30341E-05
  weight for this iteration     100.00

 eigenvalues of (default mixing * dielectric matrix)
  average eigenvalue GAMMA=   2.4077
  9.7214  7.5281  5.6692  4.2949  3.1960  2.7489  2.3428  2.2277  1.9221  1.5246
  1.2242  1.2242  0.9744  0.9744  1.0497  1.0497  0.7560  0.9315  0.9315  0.9131
  0.9131  0.8522

 Free energy of the ion-electron system (eV)
  ---------------------------------------------------
  alpha Z        PSCENC =         0.05311416
  Ewald energy   TEWEN  =      1059.35771956
  -Hartree energ DENC   =     -2295.36358475
  -exchange      EXHF   =         0.00000000
  -V(xc)+E(xc)   XCENC  =       103.85800624
  PAW double counting   =      2105.03239731    -2111.59229745
  entropy T*S    EENTRO =        -0.00000000
  eigenvalues    EBANDS =      -367.88705538
  atomic energy  EATOM  =      1469.26749561
  Solvation  Ediel_sol  =         0.00000000
  ---------------------------------------------------
  free energy    TOTEN  =       -37.27420469 eV

  energy without entropy =      -37.27420469  energy(sigma->0) =      -37.27420469


--------------------------------------------------------------------------------------------------------




--------------------------------------- Iteration      1(  28)  ---------------------------------------


    POTLOK:  cpu time   22.2476: real time   22.2757
    SETDIJ:  cpu time    0.0650: real time    0.0650
     EDDAV:  cpu time   14.0720: real time   14.0993
       DOS:  cpu time    0.0003: real time    0.0003
    CHARGE:  cpu time    3.5899: real time    3.5942
    MIXING:  cpu time    1.1806: real time    1.1823
    --------------------------------------------
      LOOP:  cpu time   41.1554: real time   41.2168

 eigenvalue-minimisations  :    40
 total energy-change (2. order) :-0.3379623E-06  (-0.6723138E-09)
 number of electron      23.9999999 magnetization 
 augmentation part        2.0358140 magnetization 

 Broyden mixing:
  rms(total) = 0.12640E-05    rms(broyden)= 0.12640E-05
  rms(prec ) = 0.13948E-05
  weight for this iteration     100.00

 eigenvalues of (default mixing * dielectric matrix)
  average eigenvalue GAMMA=   2.4228
  9.7652  7.6722  5.9104  4.5091  3.4174  2.8286  2.3080  2.3080  2.1088  1.6685
  1.2887  1.2887  0.9745  0.9745  1.1371  1.1371  1.0274  1.0274  0.7560  0.9303
  0.9303  0.9151  0.8416

 Free energy of the ion-electron system (eV)
  ---------------------------------------------------
  alpha Z        PSCENC =         0.05311416
  Ewald energy   TEWEN  =      1059.35771956
  -Hartree energ DENC   =     -2295.36351530
  -exchange      EXHF   =         0.00000000
  -V(xc)+E(xc)   XCENC  =       103.85800283
  PAW double counting   =      2105.03292876    -2111.59282626
  entropy T*S    EENTRO =        -0.00000000
  eigenvalues    EBANDS =      -367.88712440
  atomic energy  EATOM  =      1469.26749561
  Solvation  Ediel_sol  =         0.00000000
  ---------------------------------------------------
  free energy    TOTEN  =       -37.27420503 eV

  energy without entropy =      -37.27420503  energy(sigma->0) =      -37.27420503


--------------------------------------------------------------------------------------------------------




--------------------------------------- Iteration      1(  29)  ---------------------------------------


    POTLOK:  cpu time   22.1792: real time   22.2088
    SETDIJ:  cpu time    0.0413: real time    0.0414
     EDDAV:  cpu time   12.0385: real time   12.0550
       DOS:  cpu time    0.0005: real time    0.0005
    CHARGE:  cpu time    3.5046: real time    3.5088
    MIXING:  cpu time    1.2460: real time    1.2478
    --------------------------------------------
      LOOP:  cpu time   39.0101: real time   39.0622

 eigenvalue-minimisations  :    32
 total energy-change (2. order) :-0.1751978E-06  (-0.5862404E-09)
 number of electron      23.9999999 magnetization 
 augmentation part        2.0358140 magnetization 

 Broyden mixing:
  rms(total) = 0.99691E-06    rms(broyden)= 0.99691E-06
  rms(prec ) = 0.10631E-05
  weight for this iteration     100.00

 eigenvalues of (default mixing * dielectric matrix)
  average eigenvalue GAMMA=   2.4406
  9.7693  7.9538  6.1384  4.7932  3.6350  2.9833  2.5579  2.2750  2.2750  1.7683
  1.5177  1.2807  1.2807  0.9746  0.9746  0.7560  1.0274  1.0274  0.9741  0.9741
  0.9311  0.9311  0.8443  0.9312

 Free energy of the ion-electron system (eV)
  ---------------------------------------------------
  alpha Z        PSCENC =         0.05311416
  Ewald energy   TEWEN  =      1059.35771956
  -Hartree energ DENC   =     -2295.36347561
  -exchange      EXHF   =         0.00000000
  -V(xc)+E(xc)   XCENC  =       103.85800103
  PAW double counting   =      2105.03287312    -2111.59277184
  entropy T*S    EENTRO =        -0.00000000
  eigenvalues    EBANDS =      -367.88716123
  atomic energy  EATOM  =      1469.26749561
  Solvation  Ediel_sol  =         0.00000000
  ---------------------------------------------------
  free energy    TOTEN  =       -37.27420521 eV

  energy without entropy =      -37.27420521  energy(sigma->0) =      -37.27420521


--------------------------------------------------------------------------------------------------------




--------------------------------------- Iteration      1(  30)  ---------------------------------------


    POTLOK:  cpu time   22.1246: real time   22.1537
    SETDIJ:  cpu time    0.0621: real time    0.0621
     EDDAV:  cpu time   12.0929: real time   12.1149
       DOS:  cpu time    0.0016: real time    0.0016
    --------------------------------------------
      LOOP:  cpu time   34.2812: real time   34.3324

 eigenvalue-minimisations  :    32
 total energy-change (2. order) :-0.8629922E-07  (-0.5449756E-09)
 number of electron      23.9999999 magnetization 
 augmentation part        2.0358140 magnetization 

 Free energy of the ion-electron system (eV)
  ---------------------------------------------------
  alpha Z        PSCENC =         0.05311416
  Ewald energy   TEWEN  =      1059.35771956
  -Hartree energ DENC   =     -2295.36347052
  -exchange      EXHF   =         0.00000000
  -V(xc)+E(xc)   XCENC  =       103.85800081
  PAW double counting   =      2105.03304499    -2111.59294459
  entropy T*S    EENTRO =        -0.00000000
  eigenvalues    EBANDS =      -367.88716532
  atomic energy  EATOM  =      1469.26749561
  Solvation  Ediel_sol  =         0.00000000
  ---------------------------------------------------
  free energy    TOTEN  =       -37.27420529 eV

  energy without entropy =      -37.27420529  energy(sigma->0) =      -37.27420529


--------------------------------------------------------------------------------------------------------




 average (electrostatic) potential at core
  the test charge radii are     0.5201  0.6991  0.7215
  (the norm of the test charge is              1.0000)
       1 -44.6637       2 -44.6030       3 -63.9322       4 -82.9735       5 -82.9201
       6 -80.4359
 
 
 
 E-fermi :  -7.0381     XC(G=0):  -0.0362     alpha+bet : -0.0089


 k-point     1 :       0.0000    0.0000    0.0000
  band No.  band energies     occupation 
      1     -29.4751      2.00000
      2     -28.4685      2.00000
      3     -25.2697      2.00000
      4     -14.0411      2.00000
      5     -13.0365      2.00000
      6     -12.9374      2.00000
      7     -12.9364      2.00000
      8     -12.8575      2.00000
      9      -9.3292      2.00000
     10      -9.3278      2.00000
     11      -9.1625      2.00000
     12      -7.1017      2.00000
     13      -1.3049      0.00000
     14      -0.7601      0.00000
     15      -0.7563      0.00000
     16      -0.5925      0.00000


--------------------------------------------------------------------------------------------------------


 soft charge-density along one line, spin component            1
         0         1         2         3         4         5         6         7         8         9
 total charge-density along one line
 
 pseudopotential strength for first ion, spin component:            1
 -2.379  -4.108   0.005  -0.016   0.001
 -4.108  -7.008   0.009  -0.031   0.001
  0.005   0.009  -0.321  -0.008   0.000
 -0.016  -0.031  -0.008  -0.295  -0.001
  0.001   0.001   0.000  -0.001  -0.324
 total augmentation occupancy for first ion, spin component:            1
  3.785  -0.789  -0.194   0.725  -0.028
 -0.789   0.219   0.034  -0.147   0.006
 -0.194   0.034   0.036  -0.028   0.001
  0.725  -0.147  -0.028   0.143  -0.004
 -0.028   0.006   0.001  -0.004   0.044


------------------------ aborting loop because EDIFF is reached ----------------------------------------



 DIPCOR: dipole corrections for dipol
 direction  1 min pos   381, direction  2 min pos   466, direction  3 min pos   466,
 dipolmoment          -0.011228      0.275927      0.295475 electrons x Angstroem
 Tr[quadrupol]        13.834541

 energy correction for charged system         0.000000 eV
 dipol+quadrupol energy correction            0.000115 eV
 added-field ion interaction          0.000000 eV  (added to PSCEN)

 
  *************** adding dipol energy to TOTEN NOW **************** 
    CHARGE:  cpu time    3.4831: real time    3.4875
    FORLOC:  cpu time    1.1645: real time    1.1656
    FORNL :  cpu time    0.4590: real time    0.4597
    STRESS:  cpu time    5.8616: real time    5.8703
    FORCOR:  cpu time   21.3454: real time   21.3789
    FORHAR:  cpu time    6.5365: real time    6.5525
    MIXING:  cpu time    1.2852: real time    1.2872
    OFIELD:  cpu time    0.0000: real time    0.0000

  FORCE on cell =-STRESS in cart. coord.  units (eV):
  Direction    XX          YY          ZZ          XY          YZ          ZX
  --------------------------------------------------------------------------------------
  Alpha Z     0.05311     0.05311     0.05311
  Ewald    -113.12799  1196.10126   -23.61539     1.28607   -33.83884    -3.40402
  Hartree   500.20444  1278.81300   516.34603     0.37647    -9.90555    -0.61311
  E(xc)    -111.69106  -109.15751  -111.32057     0.00355    -0.09344    -0.01410
  Local    -730.07028 -2714.05340  -808.93050    -1.38077    36.33055     2.99734
  n-local   -79.55467   -85.38030   -79.49905     0.01556    -0.40933    -0.00212
  augment    21.48364    16.68195    19.68684    -0.01798     0.47288     0.06839
  Kinetic   512.70043   418.78313   487.73039    -0.27622     7.26796     0.95036
  Fock        0.00000     0.00000     0.00000     0.00000     0.00000     0.00000
  -------------------------------------------------------------------------------------
  Total      -0.00238     1.84126     0.45086     0.00668    -0.17577    -0.01726
  in kB      -0.00009     0.06881     0.01685     0.00025    -0.00657    -0.00065
  external pressure =        0.03 kB  Pullay stress =        0.00 kB


 VOLUME and BASIS-vectors are now :
 -----------------------------------------------------------------------------
  energy-cutoff  :     1600.00
  volume of cell :    42875.00
      direct lattice vectors                 reciprocal lattice vectors
    35.000000000  0.000000000  0.000000000     0.028571429  0.000000000  0.000000000
     0.000000000 35.000000000  0.000000000     0.000000000  0.028571429  0.000000000
     0.000000000  0.000000000 35.000000000     0.000000000  0.000000000  0.028571429

  length of vectors
    35.000000000 35.000000000 35.000000000     0.028571429  0.028571429  0.028571429


 FORCES acting on ions
    electron-ion (+dipol)            ewald-force                    non-local-force                 convergence-correction
 -----------------------------------------------------------------------------------------------
   -.332E+01 -.338E+02 0.874E+02   0.365E+01 0.364E+02 -.961E+02   -.315E+00 -.237E+01 0.829E+01   -.174E-07 -.632E-07 0.388E-06
   0.133E+00 0.724E+02 -.350E+01   -.146E+00 -.816E+02 0.385E+01   0.107E-01 0.866E+01 -.282E+00   -.429E-09 0.540E-06 -.372E-07
   0.130E-01 0.186E+02 -.341E+00   -.132E-01 -.189E+02 0.346E+00   -.860E-04 0.102E+00 0.226E-02   -.707E-07 -.527E-06 0.117E-05
   0.371E-01 -.233E+03 -.977E+00   -.410E-01 0.297E+03 0.108E+01   0.421E-02 -.637E+02 -.111E+00   -.525E-07 0.118E-04 0.205E-05
   0.100E-01 0.300E+03 -.264E+00   -.109E-01 -.365E+03 0.286E+00   0.886E-03 0.646E+02 -.233E-01   -.285E-07 -.808E-05 0.156E-05
   0.194E+01 -.101E+03 -.511E+02   -.344E+01 0.132E+03 0.906E+02   0.149E+01 -.303E+02 -.391E+02   0.766E-07 0.557E-06 -.243E-05
 -----------------------------------------------------------------------------------------------
   -.119E+01 0.230E+02 0.312E+02   0.000E+00 0.284E-13 -.142E-13   0.119E+01 -.230E+02 -.312E+02   -.930E-07 0.419E-05 0.270E-05
 
 
 POSITION                                       TOTAL-FORCE (eV/Angst)
 -----------------------------------------------------------------------------------
      0.03541      5.35416     34.06830         0.018533      0.188747     -0.487589
      0.00000      4.15848      0.00000        -0.002653     -0.583640      0.069806
      0.00000      0.08826      0.00000        -0.000275     -0.161449      0.007220
      0.00000      1.25848      0.00000         0.000353      0.711189     -0.009293
      0.00000     33.91804      0.00000         0.000036     -0.511686     -0.000956
      0.00000      5.11985      0.00000        -0.015994      0.356839      0.420811
 -----------------------------------------------------------------------------------
    total drift:                                0.000002      0.000129     -0.000016


--------------------------------------------------------------------------------------------------------



  FREE ENERGIE OF THE ION-ELECTRON SYSTEM (eV)
  ---------------------------------------------------
  free  energy   TOTEN  =       -37.27409023 eV

  energy  without entropy=      -37.27409023  energy(sigma->0) =      -37.27409023
 


--------------------------------------------------------------------------------------------------------


    POTLOK:  cpu time   22.2016: real time   22.2355


--------------------------------------------------------------------------------------------------------


 writing wavefunctions
     LOOP+:  cpu time 1752.6969: real time 1758.2115
    4ORBIT:  cpu time    0.0000: real time    0.0000

 total amount of memory used by VASP MPI-rank0  3707962. kBytes
=======================================================================

   base      :      30000. kBytes
   nonl-proj :     112154. kBytes
   fftplans  :    1215227. kBytes
   grid      :    2325657. kBytes
   one-center:          1. kBytes
   wavefun   :      24923. kBytes
 
  
  
 General timing and accounting informations for this job:
 ========================================================
  
                  Total CPU time used (sec):     2394.977
                            User time (sec):     2245.308
                          System time (sec):      149.669
                         Elapsed time (sec):     2403.507
  
                   Maximum memory used (kb):     4524972.
                   Average memory used (kb):           0.
  
                          Minor page faults:     61772076
                          Major page faults:          121
                 Voluntary context switches:        16105
