 vasp.6.1.2 22Jul20 (build Jan  6 2021 09:55:43) gamma-only                      
 executed on             LinuxPGI date 2021.03.02  05:16:05
 running on   32 total cores
 distrk:  each k-point on   32 cores,    1 groups
 distr:  one band on NCORE=   8 cores,    4 groups


--------------------------------------------------------------------------------------------------------


 INCAR:
 POTCAR:    PAW_PBE H 15Jun2001                   
 POTCAR:    PAW_PBE C 08Apr2002                   
 POTCAR:    PAW_PBE O 08Apr2002                   
 POTCAR:    PAW_PBE H 15Jun2001                   
   VRHFIN =H: ultrasoft test                                                                        
   LEXCH  = PE                                                                                      
   EATOM  =    12.4884 eV,    0.9179 Ry                                                             
                                                                                                    
   TITEL  = PAW_PBE H 15Jun2001                                                                     
   LULTRA =        F    use ultrasoft PP ?                                                          
   IUNSCR =        0    unscreen: 0-lin 1-nonlin 2-no                                               
   RPACOR =    0.000    partial core radius                                                         
   POMASS =    1.000; ZVAL   =    1.000    mass and valenz                                          
   RCORE  =    1.100    outmost cutoff radius                                                       
   RWIGS  =    0.700; RWIGS  =    0.370    wigner-seitz radius (au A)                               
   ENMAX  =  250.000; ENMIN  =  200.000 eV                                                          
   RCLOC  =    0.701    cutoff for local pot                                                        
   LCOR   =        T    correct aug charges                                                         
   LPAW   =        T    paw PP                                                                      
   EAUG   =  400.000                                                                                
   RMAX   =    1.123    core radius for proj-oper                                                   
   RAUG   =    1.200    factor for augmentation sphere                                              
   RDEP   =    1.112    radius for radial grids                                                     
   RDEPT  =    0.926    core radius for aug-charge                                                  
                                                                                                    
   Atomic configuration                                                                             
    2 entries                                                                                       
     n  l   j            E        occ.                                                              
     1  0  0.50        -6.4927   1.0000                                                             
     2  1  0.50        -3.4015   0.0000                                                             
   Description                                                                                      
     l       E           TYP  RCUT    TYP  RCUT                                                     
     0     -6.4927494     23  1.100                                                                 
     0      6.8029130     23  1.100                                                                 
     1     -4.0817478     23  1.100                                                                 
  local pseudopotential read in
  atomic valenz-charges read in
  non local Contribution for L=            0  read in
    real space projection operators read in
  non local Contribution for L=            0  read in
    real space projection operators read in
  non local Contribution for L=            1  read in
    real space projection operators read in
    PAW grid and wavefunctions read in
 
   number of l-projection  operators is LMAX  =            3
   number of lm-projection operators is LMMAX =            5
 
 POTCAR:    PAW_PBE C 08Apr2002                   
   VRHFIN =C: s2p2                                                                                  
   LEXCH  = PE                                                                                      
   EATOM  =   147.1560 eV,   10.8157 Ry                                                             
                                                                                                    
   TITEL  = PAW_PBE C 08Apr2002                                                                     
   LULTRA =        F    use ultrasoft PP ?                                                          
   IUNSCR =        1    unscreen: 0-lin 1-nonlin 2-no                                               
   RPACOR =    1.200    partial core radius                                                         
   POMASS =   12.011; ZVAL   =    4.000    mass and valenz                                          
   RCORE  =    1.500    outmost cutoff radius                                                       
   RWIGS  =    1.630; RWIGS  =    0.863    wigner-seitz radius (au A)                               
   ENMAX  =  400.000; ENMIN  =  300.000 eV                                                          
   ICORE  =        2    local potential                                                             
   LCOR   =        T    correct aug charges                                                         
   LPAW   =        T    paw PP                                                                      
   EAUG   =  644.873                                                                                
   DEXC   =    0.000                                                                                
   RMAX   =    1.529    core radius for proj-oper                                                   
   RAUG   =    1.300    factor for augmentation sphere                                              
   RDEP   =    1.501    radius for radial grids                                                     
   RDEPT  =    1.300    core radius for aug-charge                                                  
                                                                                                    
   Atomic configuration                                                                             
    4 entries                                                                                       
     n  l   j            E        occ.                                                              
     1  0  0.50      -273.3789   2.0000                                                             
     2  0  0.50       -13.7508   2.0000                                                             
     2  1  0.50        -5.2854   2.0000                                                             
     3  2  1.50        -5.4423   0.0000                                                             
   Description                                                                                      
     l       E           TYP  RCUT    TYP  RCUT                                                     
     0    -13.7508458     23  1.200                                                                 
     0     -8.2022199     23  1.200                                                                 
     1     -5.2854383     23  1.500                                                                 
     1     34.0145650     23  1.500                                                                 
     2     -5.4423304      7  1.500                                                                 
  local pseudopotential read in
  partial core-charges read in
  partial kinetic energy density read in
  atomic valenz-charges read in
  non local Contribution for L=            0  read in
    real space projection operators read in
  non local Contribution for L=            0  read in
    real space projection operators read in
  non local Contribution for L=            1  read in
    real space projection operators read in
  non local Contribution for L=            1  read in
    real space projection operators read in
    PAW grid and wavefunctions read in
 
   number of l-projection  operators is LMAX  =            4
   number of lm-projection operators is LMMAX =            8
 
 POTCAR:    PAW_PBE O 08Apr2002                   
   VRHFIN =O: s2p4                                                                                  
   LEXCH  = PE                                                                                      
   EATOM  =   432.3788 eV,   31.7789 Ry                                                             
                                                                                                    
   TITEL  = PAW_PBE O 08Apr2002                                                                     
   LULTRA =        F    use ultrasoft PP ?                                                          
   IUNSCR =        1    unscreen: 0-lin 1-nonlin 2-no                                               
   RPACOR =    1.200    partial core radius                                                         
   POMASS =   16.000; ZVAL   =    6.000    mass and valenz                                          
   RCORE  =    1.520    outmost cutoff radius                                                       
   RWIGS  =    1.550; RWIGS  =    0.820    wigner-seitz radius (au A)                               
   ENMAX  =  400.000; ENMIN  =  300.000 eV                                                          
   ICORE  =        2    local potential                                                             
   LCOR   =        T    correct aug charges                                                         
   LPAW   =        T    paw PP                                                                      
   EAUG   =  605.392                                                                                
   DEXC   =    0.000                                                                                
   RMAX   =    1.553    core radius for proj-oper                                                   
   RAUG   =    1.300    factor for augmentation sphere                                              
   RDEP   =    1.550    radius for radial grids                                                     
   RDEPT  =    1.329    core radius for aug-charge                                                  
                                                                                                    
   Atomic configuration                                                                             
    4 entries                                                                                       
     n  l   j            E        occ.                                                              
     1  0  0.50      -514.6923   2.0000                                                             
     2  0  0.50       -23.9615   2.0000                                                             
     2  1  0.50        -9.0305   4.0000                                                             
     3  2  1.50        -9.5241   0.0000                                                             
   Description                                                                                      
     l       E           TYP  RCUT    TYP  RCUT                                                     
     0    -23.9615318     23  1.200                                                                 
     0     -9.5240782     23  1.200                                                                 
     1     -9.0304911     23  1.520                                                                 
     1      8.1634956     23  1.520                                                                 
     2     -9.5240782      7  1.500                                                                 
  local pseudopotential read in
  partial core-charges read in
  partial kinetic energy density read in
  kinetic energy density of atom read in
  atomic valenz-charges read in
  non local Contribution for L=            0  read in
    real space projection operators read in
  non local Contribution for L=            0  read in
    real space projection operators read in
  non local Contribution for L=            1  read in
    real space projection operators read in
  non local Contribution for L=            1  read in
    real space projection operators read in
    PAW grid and wavefunctions read in
 
   number of l-projection  operators is LMAX  =            4
   number of lm-projection operators is LMMAX =            8
 
  PAW_PBE H 15Jun2001                   :
 energy of atom  1       EATOM=  -12.4884
 kinetic energy error for atom=    0.0000 (will be added to EATOM!!)
  PAW_PBE C 08Apr2002                   :
 energy of atom  2       EATOM= -147.1560
 kinetic energy error for atom=    0.0002 (will be added to EATOM!!)
  PAW_PBE O 08Apr2002                   :
 energy of atom  3       EATOM= -432.3788
 kinetic energy error for atom=    0.0005 (will be added to EATOM!!)
 
 
 POSCAR:  H  C  O
  positions in cartesian coordinates
  No initial velocities read in
 exchange correlation table for  LEXCH =        8
   RHO(1)=    0.500       N(1)  =     2000
   RHO(2)=  100.500       N(2)  =     4000
 


--------------------------------------------------------------------------------------------------------


 ion  position               nearest neighbor table
   1  0.001  0.210  0.973-   6 0.96
   2  0.000  0.176  0.000-   6 0.96
   3  0.000  0.003  0.000-   4 1.17   5 1.17
   4  0.000  0.036  0.000-   3 1.17
   5  0.000  0.969  0.000-   3 1.17
   6  0.000  0.203  0.000-   2 0.96   1 0.96
 
  LATTYP: Found a simple cubic cell.
 ALAT       =    35.0000000000
  
  Lattice vectors:
  
 A1 = (  35.0000000000,   0.0000000000,   0.0000000000)
 A2 = (   0.0000000000,  35.0000000000,   0.0000000000)
 A3 = (   0.0000000000,   0.0000000000,  35.0000000000)


Analysis of symmetry for initial positions (statically):
=====================================================================
 Subroutine PRICEL returns:
 Original cell was already a primitive cell.
 

 Routine SETGRP: Setting up the symmetry group for a 
 simple cubic supercell.


 Subroutine GETGRP returns: Found  1 space group operations
 (whereof  1 operations were pure point group operations)
 out of a pool of 48 trial point group operations.


The static configuration has the point symmetry C_1 .


Analysis of symmetry for dynamics (positions and initial velocities):
=====================================================================
 Subroutine PRICEL returns:
 Original cell was already a primitive cell.
 

 Routine SETGRP: Setting up the symmetry group for a 
 simple cubic supercell.


 Subroutine GETGRP returns: Found  1 space group operations
 (whereof  1 operations were pure point group operations)
 out of a pool of 48 trial point group operations.


The dynamic configuration has the point symmetry C_1 .


 Subroutine INISYM returns: Found  1 space group operations
 (whereof  1 operations are pure point group operations),
 and found     1 'primitive' translations


----------------------------------------------------------------------------------------

                                     Primitive cell                                     

  volume of cell :   42875.0000

  direct lattice vectors                    reciprocal lattice vectors
    35.000000000  0.000000000  0.000000000     0.028571429  0.000000000  0.000000000
     0.000000000 35.000000000  0.000000000     0.000000000  0.028571429  0.000000000
     0.000000000  0.000000000 35.000000000     0.000000000  0.000000000  0.028571429

  length of vectors
    35.000000000 35.000000000 35.000000000     0.028571429  0.028571429  0.028571429

  position of ions in fractional coordinates (direct lattice)
     0.001011704  0.210118974  0.973379868
     0.000000000  0.175956457  0.000000000
     0.000000000  0.002521600  0.000000000
     0.000000000  0.035956457  0.000000000
     0.000000000  0.969086743  0.000000000
     0.000000000  0.203424171  0.000000000

  ion indices of the primitive-cell ions
   primitive index   ion index
                 1           1
                 2           2
                 3           3
                 4           4
                 5           5
                 6           6

----------------------------------------------------------------------------------------

 
 
 KPOINTS: automatic mesh                          

Automatic generation of k-mesh.
Space group operators:
 irot       det(A)        alpha          n_x          n_y          n_z        tau_x        tau_y        tau_z
    1     1.000000     0.000000     1.000000     0.000000     0.000000     0.000000     0.000000     0.000000
 
 Subroutine IBZKPT returns following result:
 ===========================================
 
 Found      1 irreducible k-points:
 
 Following reciprocal coordinates:
            Coordinates               Weight
  0.000000  0.000000  0.000000      1.000000
 
 Following cartesian coordinates:
            Coordinates               Weight
  0.000000  0.000000  0.000000      1.000000
 


--------------------------------------------------------------------------------------------------------




 Dimension of arrays:
   k-points           NKPTS =      1   k-points in BZ     NKDIM =      1   number of bands    NBANDS=     16
   number of dos      NEDOS =    301   number of ions     NIONS =      6
   non local maximal  LDIM  =      4   non local SUM 2l+1 LMDIM =      8
   total plane-waves  NPLWV = ******
   max r-space proj   IRMAX =      1   max aug-charges    IRDMAX=  33660
   dimension x,y,z NGX =   480 NGY =  480 NGZ =  480
   dimension x,y,z NGXF=   960 NGYF=  960 NGZF=  960
   support grid    NGXF=   960 NGYF=  960 NGZF=  960
   ions per type =               2   1   3
   NGX,Y,Z   is equivalent  to a cutoff of  22.80, 22.80, 22.80 a.u.
   NGXF,Y,Z  is equivalent  to a cutoff of  45.60, 45.60, 45.60 a.u.

 SYSTEM =  C                                       
 POSCAR =   H  C  O                                

 Startparameter for this run:
   NWRITE =      2    write-flag & timer
   PREC   = acc       normal or accurate (medium, high low for compatibility)
   ISTART =      0    job   : 0-new  1-cont  2-samecut
   ICHARG =      2    charge: 1-file 2-atom 10-const
   ISPIN  =      1    spin polarized calculation?
   LNONCOLLINEAR =      F non collinear calculations
   LSORBIT =      F    spin-orbit coupling
   INIWAV =      1    electr: 0-lowe 1-rand  2-diag
   LASPH  =      T    aspherical Exc in radial PAW
   METAGGA=      F    non-selfconsistent MetaGGA calc.

 Electronic Relaxation 1
   ENCUT  = 1600.0 eV 117.60 Ry   10.84 a.u. 114.15114.15114.15*2*pi/ulx,y,z
   ENINI  = 1600.0     initial cutoff
   ENAUG  =  644.9 eV  augmentation charge cutoff
   NELM   =     60;   NELMIN=  2; NELMDL= -5     # of ELM steps 
   EDIFF  = 0.1E-06   stopping-criterion for ELM
   LREAL  =      F    real-space projection
   NLSPLINE    = F    spline interpolate recip. space projectors
   LCOMPAT=      F    compatible to vasp.4.4
   GGA_COMPAT  = T    GGA compatible to vasp.4.4-vasp.4.6
   LMAXPAW     = -100 max onsite density
   LMAXMIX     =    2 max onsite mixed and CHGCAR
   VOSKOWN=      0    Vosko Wilk Nusair interpolation
   ROPT   =    0.00000   0.00000   0.00000
 Ionic relaxation
   EDIFFG = 0.1E-05   stopping-criterion for IOM
   NSW    =      0    number of steps for IOM
   NBLOCK =      1;   KBLOCK =      1    inner block; outer block 
   IBRION =     -1    ionic relax: 0-MD 1-quasi-New 2-CG
   NFREE  =      0    steps in history (QN), initial steepest desc. (CG)
   ISIF   =      2    stress and relaxation
   IWAVPR =     10    prediction:  0-non 1-charg 2-wave 3-comb
   ISYM   =      2    0-nonsym 1-usesym 2-fastsym
   LCORR  =      T    Harris-Foulkes like correction to forces

   POTIM  = 0.5000    time-step for ionic-motion
   TEIN   =    0.0    initial temperature
   TEBEG  =    0.0;   TEEND  =   0.0 temperature during run
   SMASS  =  -3.00    Nose mass-parameter (am)
   estimated Nose-frequenzy (Omega)   =  0.10E-29 period in steps = 0.13E+47 mass=  -0.280E-25a.u.
   SCALEE = 1.0000    scale energy and forces
   NPACO  =    256;   APACO  = 16.0  distance and # of slots for P.C.
   PSTRESS=    0.0 pullay stress

  Mass of Ions in am
   POMASS =   1.00 12.01 16.00
  Ionic Valenz
   ZVAL   =   1.00  4.00  6.00
  Atomic Wigner-Seitz radii
   RWIGS  =  -1.00 -1.00 -1.00
  virtual crystal weights 
   VCA    =   1.00  1.00  1.00
   NELECT =      24.0000    total number of electrons
   NUPDOWN=      -1.0000    fix difference up-down

 DOS related values:
   EMIN   =  10.00;   EMAX   =-10.00  energy-range for DOS
   EFERMI =   0.00
   ISMEAR =     0;   SIGMA  =   0.01  broadening in eV -4-tet -1-fermi 0-gaus

 Electronic relaxation 2 (details)
   IALGO  =     38    algorithm
   LDIAG  =      T    sub-space diagonalisation (order eigenvalues)
   LSUBROT=      F    optimize rotation matrix (better conditioning)
   TURBO    =      0    0=normal 1=particle mesh
   IRESTART =      0    0=no restart 2=restart with 2 vectors
   NREBOOT  =      0    no. of reboots
   NMIN     =      0    reboot dimension
   EREF     =   0.00    reference energy to select bands
   IMIX   =      4    mixing-type and parameters
     AMIX     =   0.40;   BMIX     =  1.00
     AMIX_MAG =   1.60;   BMIX_MAG =  1.00
     AMIN     =   0.10
     WC   =   100.;   INIMIX=   1;  MIXPRE=   1;  MAXMIX= -45

 Intra band minimization:
   WEIMIN = 0.0000     energy-eigenvalue tresh-hold
   EBREAK =  0.16E-08  absolut break condition
   DEPER  =   0.30     relativ break condition  

   TIME   =   0.40     timestep for ELM

  volume/ion in A,a.u.               =    7145.83     48222.46
  Fermi-wavevector in a.u.,A,eV,Ry     =   0.134920  0.254962  0.247673  0.018203
  Thomas-Fermi vector in A             =   0.783236
 
 Write flags
   LWAVE        =      T    write WAVECAR
   LDOWNSAMPLE  =      F    k-point downsampling of WAVECAR
   LCHARG       =      T    write CHGCAR
   LVTOT        =      F    write LOCPOT, total local potential
   LVHAR        =      F    write LOCPOT, Hartree potential only
   LELF         =      F    write electronic localiz. function (ELF)
   LORBIT       =      0    0 simple, 1 ext, 2 COOP (PROOUT), +10 PAW based schemes


 Dipole corrections
   LMONO  =      F    monopole corrections only (constant potential shift)
   LDIPOL =      F    correct potential (dipole corrections)
   IDIPOL =      4    1-x, 2-y, 3-z, 4-all directions 
   EPSILON=  1.0000000 bulk dielectric constant

 Exchange correlation treatment:
   GGA     =    --    GGA type
   LEXCH   =     8    internal setting for exchange type
   VOSKOWN=      0    Vosko Wilk Nusair interpolation
   LHFCALC =     F    Hartree Fock is set to
   LHFONE  =     F    Hartree Fock one center treatment
   AEXX    =    0.0000 exact exchange contribution

 Linear response parameters
   LEPSILON=     F    determine dielectric tensor
   LRPA    =     F    only Hartree local field effects (RPA)
   LNABLA  =     F    use nabla operator in PAW spheres
   LVEL    =     F    velocity operator in full k-point grid
   LINTERFAST=   F  fast interpolation
   KINTER  =     0    interpolate to denser k-point grid
   CSHIFT  =0.1000    complex shift for real part using Kramers Kronig
   OMEGAMAX=  -1.0    maximum frequency
   DEG_THRESHOLD= 0.2000000E-02 threshold for treating states as degnerate
   RTIME   =   -0.100 relaxation time in fs
  (WPLASMAI=    0.000 imaginary part of plasma frequency in eV, 0.658/RTIME)
   DFIELD  = 0.0000000 0.0000000 0.0000000 field for delta impulse in time
 
 Orbital magnetization related:
   ORBITALMAG=     F  switch on orbital magnetization
   LCHIMAG   =     F  perturbation theory with respect to B field
   DQ        =  0.001000  dq finite difference perturbation B field
   LLRAUG    =     F  two centre corrections for induced B field



--------------------------------------------------------------------------------------------------------


 Static calculation
 charge density and potential will be updated during run
 non-spin polarized calculation
 Variant of blocked Davidson
 Davidson routine will perform the subspace rotation
 perform sub-space diagonalisation
    after iterative eigenvector-optimisation
 modified Broyden-mixing scheme, WC =      100.0
 initial mixing is a Kerker type mixing with AMIX =  0.4000 and BMIX =      1.0000
 Hartree-type preconditioning will be used
 using additional bands             4
 reciprocal scheme for non local part
 use partial core corrections
 calculate Harris-corrections to forces 
   (improved forces if not selfconsistent)
 use gradient corrections 
 use of overlap-Matrix (Vanderbilt PP)
 Gauss-broadening in eV      SIGMA  =   0.01


--------------------------------------------------------------------------------------------------------


  energy-cutoff  :     1600.00
  volume of cell :    42875.00
      direct lattice vectors                 reciprocal lattice vectors
    35.000000000  0.000000000  0.000000000     0.028571429  0.000000000  0.000000000
     0.000000000 35.000000000  0.000000000     0.000000000  0.028571429  0.000000000
     0.000000000  0.000000000 35.000000000     0.000000000  0.000000000  0.028571429

  length of vectors
    35.000000000 35.000000000 35.000000000     0.028571429  0.028571429  0.028571429


 
 k-points in units of 2pi/SCALE and weight: automatic mesh                          
   0.00000000  0.00000000  0.00000000       1.000
 
 k-points in reciprocal lattice and weights: automatic mesh                          
   0.00000000  0.00000000  0.00000000       1.000
 
 position of ions in fractional coordinates (direct lattice) 
   0.00101170  0.21011897  0.97337987
   0.00000000  0.17595646  0.00000000
   0.00000000  0.00252160  0.00000000
   0.00000000  0.03595646  0.00000000
   0.00000000  0.96908674  0.00000000
   0.00000000  0.20342417  0.00000000
 
 position of ions in cartesian coordinates  (Angst):
   0.03540965  7.35416408 34.06829539
   0.00000000  6.15847600  0.00000000
   0.00000000  0.08825600  0.00000000
   0.00000000  1.25847600  0.00000000
   0.00000000 33.91803600  0.00000000
   0.00000000  7.11984600  0.00000000
 


--------------------------------------------------------------------------------------------------------


 use parallel FFT for orbitals z direction half grid
 k-point   1 :   0.0000 0.0000 0.0000  plane waves: 3115599

 maximum and minimum number of plane-waves per node :    389462   389421

 maximum number of plane-waves:   3115599
 maximum index in each direction: 
   IXMAX=  114   IYMAX=  114   IZMAX=  114
   IXMIN= -114   IYMIN= -114   IZMIN=    0


 parallel 3D FFT for wavefunctions:
    minimum data exchange during FFTs selected (reduces bandwidth)
 parallel 3D FFT for charge:
    minimum data exchange during FFTs selected (reduces bandwidth)


 total amount of memory used by VASP MPI-rank0  3707962. kBytes
=======================================================================

   base      :      30000. kBytes
   nonl-proj :     112154. kBytes
   fftplans  :    1215227. kBytes
   grid      :    2325657. kBytes
   one-center:          1. kBytes
   wavefun   :      24923. kBytes
 
     INWAV:  cpu time    0.0000: real time    0.0000
 Broyden mixing: mesh for mixing (old mesh)
   NGX =229   NGY =229   NGZ =229
  (NGX  =960   NGY  =960   NGZ  =960)
  gives a total of ****** points

 initial charge density was supplied:
 charge density of overlapping atoms calculated
 number of electron      24.0000000 magnetization 
 keeping initial charge density in first step


--------------------------------------------------------------------------------------------------------


 Maximum index for augmentation-charges          1234 (set IRDMAX)


--------------------------------------------------------------------------------------------------------


 First call to EWALD:  gamma=   0.051
 Maximum number of real-space cells 3x 3x 3
 Maximum number of reciprocal cells 3x 3x 3

    FEWALD:  cpu time    0.0010: real time    0.0010


--------------------------------------- Iteration      1(   1)  ---------------------------------------


    POTLOK:  cpu time   23.9464: real time   23.9818
    SETDIJ:  cpu time    0.0572: real time    0.0586
     EDDAV:  cpu time   14.9910: real time   16.4806
       DOS:  cpu time    0.0054: real time    0.0054
    --------------------------------------------
      LOOP:  cpu time   39.0000: real time   40.5264

 eigenvalue-minimisations  :    48
 total energy-change (2. order) : 0.2548954E+03  (-0.4595204E+03)
 number of electron      24.0000000 magnetization 
 augmentation part       24.0000000 magnetization 

 Free energy of the ion-electron system (eV)
  ---------------------------------------------------
  alpha Z        PSCENC =         0.05311416
  Ewald energy   TEWEN  =       942.02888186
  -Hartree energ DENC   =     -2104.88363405
  -exchange      EXHF   =         0.00000000
  -V(xc)+E(xc)   XCENC  =        99.79779262
  PAW double counting   =      1152.43853192    -1158.42170530
  entropy T*S    EENTRO =        -0.00192894
  eigenvalues    EBANDS =      -145.38315189
  atomic energy  EATOM  =      1469.26749561
  Solvation  Ediel_sol  =         0.00000000
  ---------------------------------------------------
  free energy    TOTEN  =       254.89539601 eV

  energy without entropy =      254.89732494  energy(sigma->0) =      254.89636048


--------------------------------------------------------------------------------------------------------




--------------------------------------- Iteration      1(   2)  ---------------------------------------


     EDDAV:  cpu time   17.0019: real time   17.0311
       DOS:  cpu time    0.0035: real time    0.0035
    --------------------------------------------
      LOOP:  cpu time   17.0054: real time   17.0346

 eigenvalue-minimisations  :    56
 total energy-change (2. order) :-0.1216587E+03  (-0.1206179E+03)
 number of electron      24.0000000 magnetization 
 augmentation part       24.0000000 magnetization 

 Free energy of the ion-electron system (eV)
  ---------------------------------------------------
  alpha Z        PSCENC =         0.05311416
  Ewald energy   TEWEN  =       942.02888186
  -Hartree energ DENC   =     -2104.88363405
  -exchange      EXHF   =         0.00000000
  -V(xc)+E(xc)   XCENC  =        99.79779262
  PAW double counting   =      1152.43853192    -1158.42170530
  entropy T*S    EENTRO =        -0.00000000
  eigenvalues    EBANDS =      -267.04378945
  atomic energy  EATOM  =      1469.26749561
  Solvation  Ediel_sol  =         0.00000000
  ---------------------------------------------------
  free energy    TOTEN  =       133.23668738 eV

  energy without entropy =      133.23668738  energy(sigma->0) =      133.23668738


--------------------------------------------------------------------------------------------------------




--------------------------------------- Iteration      1(   3)  ---------------------------------------


     EDDAV:  cpu time   14.8411: real time   14.8684
       DOS:  cpu time    0.0007: real time    0.0007
    --------------------------------------------
      LOOP:  cpu time   14.8419: real time   14.8691

 eigenvalue-minimisations  :    48
 total energy-change (2. order) :-0.1210134E+03  (-0.1208075E+03)
 number of electron      24.0000000 magnetization 
 augmentation part       24.0000000 magnetization 

 Free energy of the ion-electron system (eV)
  ---------------------------------------------------
  alpha Z        PSCENC =         0.05311416
  Ewald energy   TEWEN  =       942.02888186
  -Hartree energ DENC   =     -2104.88363405
  -exchange      EXHF   =         0.00000000
  -V(xc)+E(xc)   XCENC  =        99.79779262
  PAW double counting   =      1152.43853192    -1158.42170530
  entropy T*S    EENTRO =        -0.00000000
  eigenvalues    EBANDS =      -388.05721129
  atomic energy  EATOM  =      1469.26749561
  Solvation  Ediel_sol  =         0.00000000
  ---------------------------------------------------
  free energy    TOTEN  =        12.22326554 eV

  energy without entropy =       12.22326554  energy(sigma->0) =       12.22326554


--------------------------------------------------------------------------------------------------------




--------------------------------------- Iteration      1(   4)  ---------------------------------------


     EDDAV:  cpu time   11.1552: real time   11.1748
       DOS:  cpu time    0.0012: real time    0.0012
    --------------------------------------------
      LOOP:  cpu time   11.1564: real time   11.1760

 eigenvalue-minimisations  :    32
 total energy-change (2. order) :-0.5015489E+02  (-0.5015029E+02)
 number of electron      24.0000000 magnetization 
 augmentation part       24.0000000 magnetization 

 Free energy of the ion-electron system (eV)
  ---------------------------------------------------
  alpha Z        PSCENC =         0.05311416
  Ewald energy   TEWEN  =       942.02888186
  -Hartree energ DENC   =     -2104.88363405
  -exchange      EXHF   =         0.00000000
  -V(xc)+E(xc)   XCENC  =        99.79779262
  PAW double counting   =      1152.43853192    -1158.42170530
  entropy T*S    EENTRO =        -0.00000000
  eigenvalues    EBANDS =      -438.21210414
  atomic energy  EATOM  =      1469.26749561
  Solvation  Ediel_sol  =         0.00000000
  ---------------------------------------------------
  free energy    TOTEN  =       -37.93162731 eV

  energy without entropy =      -37.93162731  energy(sigma->0) =      -37.93162731


--------------------------------------------------------------------------------------------------------




--------------------------------------- Iteration      1(   5)  ---------------------------------------


     EDDAV:  cpu time   11.0748: real time   11.0940
       DOS:  cpu time    0.0006: real time    0.0006
    CHARGE:  cpu time    3.5701: real time    3.5760
    MIXING:  cpu time    0.6628: real time    0.6637
    --------------------------------------------
      LOOP:  cpu time   15.3083: real time   15.3342

 eigenvalue-minimisations  :    32
 total energy-change (2. order) :-0.3123360E+01  (-0.3123333E+01)
 number of electron      23.9999999 magnetization 
 augmentation part        2.3486155 magnetization 

 Broyden mixing:
  rms(total) = 0.12199E+01    rms(broyden)= 0.12199E+01
  rms(prec ) = 0.12509E+01
  weight for this iteration     100.00

 Free energy of the ion-electron system (eV)
  ---------------------------------------------------
  alpha Z        PSCENC =         0.05311416
  Ewald energy   TEWEN  =       942.02888186
  -Hartree energ DENC   =     -2104.88363405
  -exchange      EXHF   =         0.00000000
  -V(xc)+E(xc)   XCENC  =        99.79779262
  PAW double counting   =      1152.43853192    -1158.42170530
  entropy T*S    EENTRO =        -0.00000000
  eigenvalues    EBANDS =      -441.33546410
  atomic energy  EATOM  =      1469.26749561
  Solvation  Ediel_sol  =         0.00000000
  ---------------------------------------------------
  free energy    TOTEN  =       -41.05498727 eV

  energy without entropy =      -41.05498727  energy(sigma->0) =      -41.05498727


--------------------------------------------------------------------------------------------------------




--------------------------------------- Iteration      1(   6)  ---------------------------------------


    POTLOK:  cpu time   23.8200: real time   23.8551
    SETDIJ:  cpu time    0.0558: real time    0.0558
     EDDAV:  cpu time   11.2803: real time   11.2997
       DOS:  cpu time    0.0022: real time    0.0022
    CHARGE:  cpu time    3.4213: real time    3.4267
    MIXING:  cpu time    0.4682: real time    0.4767
    --------------------------------------------
      LOOP:  cpu time   39.0477: real time   39.1162

 eigenvalue-minimisations  :    32
 total energy-change (2. order) : 0.3477459E+01  (-0.1548613E+01)
 number of electron      23.9999999 magnetization 
 augmentation part        2.0458671 magnetization 

 Broyden mixing:
  rms(total) = 0.53176E+00    rms(broyden)= 0.53176E+00
  rms(prec ) = 0.53809E+00
  weight for this iteration     100.00

 eigenvalues of (default mixing * dielectric matrix)
  average eigenvalue GAMMA=   1.0213
  1.0213

 Free energy of the ion-electron system (eV)
  ---------------------------------------------------
  alpha Z        PSCENC =         0.05311416
  Ewald energy   TEWEN  =       942.02888186
  -Hartree energ DENC   =     -2154.73680974
  -exchange      EXHF   =         0.00000000
  -V(xc)+E(xc)   XCENC  =       102.66699836
  PAW double counting   =      1510.66374513    -1517.41102228
  entropy T*S    EENTRO =        -0.00000000
  eigenvalues    EBANDS =      -390.10993147
  atomic energy  EATOM  =      1469.26749561
  Solvation  Ediel_sol  =         0.00000000
  ---------------------------------------------------
  free energy    TOTEN  =       -37.57752835 eV

  energy without entropy =      -37.57752835  energy(sigma->0) =      -37.57752835


--------------------------------------------------------------------------------------------------------




--------------------------------------- Iteration      1(   7)  ---------------------------------------


    POTLOK:  cpu time   23.7775: real time   23.8125
    SETDIJ:  cpu time    0.0579: real time    0.0580
     EDDAV:  cpu time   14.7080: real time   14.7340
       DOS:  cpu time    0.0014: real time    0.0014
    CHARGE:  cpu time    3.3701: real time    3.3754
    MIXING:  cpu time    0.5346: real time    0.5354
    --------------------------------------------
      LOOP:  cpu time   42.4496: real time   42.5167

 eigenvalue-minimisations  :    48
 total energy-change (2. order) : 0.2170953E+00  (-0.4168601E-01)
 number of electron      23.9999999 magnetization 
 augmentation part        2.0442873 magnetization 

 Broyden mixing:
  rms(total) = 0.31348E+00    rms(broyden)= 0.31348E+00
  rms(prec ) = 0.31758E+00
  weight for this iteration     100.00

 eigenvalues of (default mixing * dielectric matrix)
  average eigenvalue GAMMA=   1.6947
  1.0483  2.3411

 Free energy of the ion-electron system (eV)
  ---------------------------------------------------
  alpha Z        PSCENC =         0.05311416
  Ewald energy   TEWEN  =       942.02888186
  -Hartree energ DENC   =     -2164.66364619
  -exchange      EXHF   =         0.00000000
  -V(xc)+E(xc)   XCENC  =       103.16357833
  PAW double counting   =      1743.30589961    -1749.95559307
  entropy T*S    EENTRO =        -0.00000000
  eigenvalues    EBANDS =      -380.56016335
  atomic energy  EATOM  =      1469.26749561
  Solvation  Ediel_sol  =         0.00000000
  ---------------------------------------------------
  free energy    TOTEN  =       -37.36043303 eV

  energy without entropy =      -37.36043303  energy(sigma->0) =      -37.36043303


--------------------------------------------------------------------------------------------------------




--------------------------------------- Iteration      1(   8)  ---------------------------------------


    POTLOK:  cpu time   23.8148: real time   23.8497
    SETDIJ:  cpu time    0.1197: real time    0.1197
     EDDAV:  cpu time   15.0494: real time   15.0753
       DOS:  cpu time    0.0049: real time    0.0049
    CHARGE:  cpu time    3.4718: real time    3.4771
    MIXING:  cpu time    0.5103: real time    0.5111
    --------------------------------------------
      LOOP:  cpu time   42.9709: real time   43.0379

 eigenvalue-minimisations  :    48
 total energy-change (2. order) : 0.1358163E+00  (-0.3063381E-01)
 number of electron      23.9999999 magnetization 
 augmentation part        2.0435476 magnetization 

 Broyden mixing:
  rms(total) = 0.59894E-01    rms(broyden)= 0.59894E-01
  rms(prec ) = 0.62714E-01
  weight for this iteration     100.00

 eigenvalues of (default mixing * dielectric matrix)
  average eigenvalue GAMMA=   1.3282
  2.3981  1.0353  0.5514

 Free energy of the ion-electron system (eV)
  ---------------------------------------------------
  alpha Z        PSCENC =         0.05311416
  Ewald energy   TEWEN  =       942.02888186
  -Hartree energ DENC   =     -2176.94587893
  -exchange      EXHF   =         0.00000000
  -V(xc)+E(xc)   XCENC  =       103.79663891
  PAW double counting   =      2089.00674769    -2095.59414477
  entropy T*S    EENTRO =        -0.00000000
  eigenvalues    EBANDS =      -368.83747124
  atomic energy  EATOM  =      1469.26749561
  Solvation  Ediel_sol  =         0.00000000
  ---------------------------------------------------
  free energy    TOTEN  =       -37.22461670 eV

  energy without entropy =      -37.22461670  energy(sigma->0) =      -37.22461670


--------------------------------------------------------------------------------------------------------




--------------------------------------- Iteration      1(   9)  ---------------------------------------


    POTLOK:  cpu time   23.7893: real time   23.8250
    SETDIJ:  cpu time    0.0490: real time    0.0490
     EDDAV:  cpu time   15.0397: real time   15.0654
       DOS:  cpu time    0.0089: real time    0.0089
    CHARGE:  cpu time    3.4320: real time    3.4375
    MIXING:  cpu time    0.5160: real time    0.5169
    --------------------------------------------
      LOOP:  cpu time   42.8349: real time   42.9028

 eigenvalue-minimisations  :    48
 total energy-change (2. order) : 0.4644627E-02  (-0.1687148E-02)
 number of electron      23.9999999 magnetization 
 augmentation part        2.0395379 magnetization 

 Broyden mixing:
  rms(total) = 0.39458E-01    rms(broyden)= 0.39458E-01
  rms(prec ) = 0.41894E-01
  weight for this iteration     100.00

 eigenvalues of (default mixing * dielectric matrix)
  average eigenvalue GAMMA=   1.4239
  2.4574  1.1163  1.0609  1.0609

 Free energy of the ion-electron system (eV)
  ---------------------------------------------------
  alpha Z        PSCENC =         0.05311416
  Ewald energy   TEWEN  =       942.02888186
  -Hartree energ DENC   =     -2177.54976489
  -exchange      EXHF   =         0.00000000
  -V(xc)+E(xc)   XCENC  =       103.82861742
  PAW double counting   =      2101.59470085    -2108.18090211
  entropy T*S    EENTRO =        -0.00000000
  eigenvalues    EBANDS =      -368.26211498
  atomic energy  EATOM  =      1469.26749561
  Solvation  Ediel_sol  =         0.00000000
  ---------------------------------------------------
  free energy    TOTEN  =       -37.21997208 eV

  energy without entropy =      -37.21997208  energy(sigma->0) =      -37.21997208


--------------------------------------------------------------------------------------------------------




--------------------------------------- Iteration      1(  10)  ---------------------------------------


    POTLOK:  cpu time   23.8738: real time   23.9085
    SETDIJ:  cpu time    0.0516: real time    0.0516
     EDDAV:  cpu time   11.0922: real time   11.1150
       DOS:  cpu time    0.0062: real time    0.0062
    CHARGE:  cpu time    3.3851: real time    3.3901
    MIXING:  cpu time    0.5801: real time    0.5811
    --------------------------------------------
      LOOP:  cpu time   38.9889: real time   39.0524

 eigenvalue-minimisations  :    32
 total energy-change (2. order) :-0.1611880E-02  (-0.1940011E-02)
 number of electron      23.9999999 magnetization 
 augmentation part        2.0329003 magnetization 

 Broyden mixing:
  rms(total) = 0.17404E-01    rms(broyden)= 0.17404E-01
  rms(prec ) = 0.19470E-01
  weight for this iteration     100.00

 eigenvalues of (default mixing * dielectric matrix)
  average eigenvalue GAMMA=   1.3275
  2.4058  1.2325  1.1394  1.1394  0.7205

 Free energy of the ion-electron system (eV)
  ---------------------------------------------------
  alpha Z        PSCENC =         0.05311416
  Ewald energy   TEWEN  =       942.02888186
  -Hartree energ DENC   =     -2178.33049371
  -exchange      EXHF   =         0.00000000
  -V(xc)+E(xc)   XCENC  =       103.85946783
  PAW double counting   =      2111.60807642    -2118.17475565
  entropy T*S    EENTRO =        -0.00000000
  eigenvalues    EBANDS =      -367.53337049
  atomic energy  EATOM  =      1469.26749561
  Solvation  Ediel_sol  =         0.00000000
  ---------------------------------------------------
  free energy    TOTEN  =       -37.22158396 eV

  energy without entropy =      -37.22158396  energy(sigma->0) =      -37.22158396


--------------------------------------------------------------------------------------------------------




--------------------------------------- Iteration      1(  11)  ---------------------------------------


    POTLOK:  cpu time   23.7940: real time   23.8288
    SETDIJ:  cpu time    0.0552: real time    0.0553
     EDDAV:  cpu time   14.7747: real time   14.8031
       DOS:  cpu time    0.0045: real time    0.0045
    CHARGE:  cpu time    3.4268: real time    3.4320
    MIXING:  cpu time    0.5620: real time    0.5649
    --------------------------------------------
      LOOP:  cpu time   42.6173: real time   42.6886

 eigenvalue-minimisations  :    48
 total energy-change (2. order) :-0.2295056E-02  (-0.2415712E-03)
 number of electron      23.9999999 magnetization 
 augmentation part        2.0354646 magnetization 

 Broyden mixing:
  rms(total) = 0.91377E-02    rms(broyden)= 0.91377E-02
  rms(prec ) = 0.11648E-01
  weight for this iteration     100.00

 eigenvalues of (default mixing * dielectric matrix)
  average eigenvalue GAMMA=   1.4322
  2.4239  2.4239  0.9990  0.9990  1.0190  0.7281

 Free energy of the ion-electron system (eV)
  ---------------------------------------------------
  alpha Z        PSCENC =         0.05311416
  Ewald energy   TEWEN  =       942.02888186
  -Hartree energ DENC   =     -2178.31515340
  -exchange      EXHF   =         0.00000000
  -V(xc)+E(xc)   XCENC  =       103.84539049
  PAW double counting   =      2108.54427009    -2115.10299524
  entropy T*S    EENTRO =        -0.00000000
  eigenvalues    EBANDS =      -367.54488258
  atomic energy  EATOM  =      1469.26749561
  Solvation  Ediel_sol  =         0.00000000
  ---------------------------------------------------
  free energy    TOTEN  =       -37.22387901 eV

  energy without entropy =      -37.22387901  energy(sigma->0) =      -37.22387901


--------------------------------------------------------------------------------------------------------




--------------------------------------- Iteration      1(  12)  ---------------------------------------


    POTLOK:  cpu time   23.9132: real time   23.9479
    SETDIJ:  cpu time    0.0758: real time    0.0758
     EDDAV:  cpu time   14.8739: real time   14.8993
       DOS:  cpu time    0.0040: real time    0.0041
    CHARGE:  cpu time    3.3977: real time    3.4028
    MIXING:  cpu time    0.6048: real time    0.6057
    --------------------------------------------
      LOOP:  cpu time   42.8693: real time   42.9356

 eigenvalue-minimisations  :    48
 total energy-change (2. order) :-0.4673994E-02  (-0.1458447E-03)
 number of electron      23.9999999 magnetization 
 augmentation part        2.0349521 magnetization 

 Broyden mixing:
  rms(total) = 0.55822E-02    rms(broyden)= 0.55822E-02
  rms(prec ) = 0.73877E-02
  weight for this iteration     100.00

 eigenvalues of (default mixing * dielectric matrix)
  average eigenvalue GAMMA=   1.4677
  2.8035  2.4757  1.1275  1.1275  1.0739  0.8498  0.8158

 Free energy of the ion-electron system (eV)
  ---------------------------------------------------
  alpha Z        PSCENC =         0.05311416
  Ewald energy   TEWEN  =       942.02888186
  -Hartree energ DENC   =     -2178.79113362
  -exchange      EXHF   =         0.00000000
  -V(xc)+E(xc)   XCENC  =       103.85177576
  PAW double counting   =      2107.24188482    -2113.79425906
  entropy T*S    EENTRO =        -0.00000000
  eigenvalues    EBANDS =      -367.08631255
  atomic energy  EATOM  =      1469.26749561
  Solvation  Ediel_sol  =         0.00000000
  ---------------------------------------------------
  free energy    TOTEN  =       -37.22855301 eV

  energy without entropy =      -37.22855301  energy(sigma->0) =      -37.22855301


--------------------------------------------------------------------------------------------------------




--------------------------------------- Iteration      1(  13)  ---------------------------------------


    POTLOK:  cpu time   23.8873: real time   23.9221
    SETDIJ:  cpu time    0.0527: real time    0.0528
     EDDAV:  cpu time   14.8569: real time   14.8828
       DOS:  cpu time    0.0015: real time    0.0015
    CHARGE:  cpu time    3.4577: real time    3.4628
    MIXING:  cpu time    0.6067: real time    0.6077
    --------------------------------------------
      LOOP:  cpu time   42.8629: real time   42.9297

 eigenvalue-minimisations  :    48
 total energy-change (2. order) :-0.3568126E-02  (-0.5776343E-04)
 number of electron      23.9999999 magnetization 
 augmentation part        2.0347053 magnetization 

 Broyden mixing:
  rms(total) = 0.37554E-02    rms(broyden)= 0.37554E-02
  rms(prec ) = 0.51080E-02
  weight for this iteration     100.00

 eigenvalues of (default mixing * dielectric matrix)
  average eigenvalue GAMMA=   1.5808
  3.7073  2.4564  1.7721  0.9812  0.9812  1.0106  1.0106  0.7270

 Free energy of the ion-electron system (eV)
  ---------------------------------------------------
  alpha Z        PSCENC =         0.05311416
  Ewald energy   TEWEN  =       942.02888186
  -Hartree energ DENC   =     -2179.21790006
  -exchange      EXHF   =         0.00000000
  -V(xc)+E(xc)   XCENC  =       103.86145038
  PAW double counting   =      2106.61397963    -2113.16806585
  entropy T*S    EENTRO =        -0.00000000
  eigenvalues    EBANDS =      -366.67107686
  atomic energy  EATOM  =      1469.26749561
  Solvation  Ediel_sol  =         0.00000000
  ---------------------------------------------------
  free energy    TOTEN  =       -37.23212113 eV

  energy without entropy =      -37.23212113  energy(sigma->0) =      -37.23212113


--------------------------------------------------------------------------------------------------------




--------------------------------------- Iteration      1(  14)  ---------------------------------------


    POTLOK:  cpu time   23.8618: real time   23.8966
    SETDIJ:  cpu time    0.0492: real time    0.0493
     EDDAV:  cpu time   14.7371: real time   14.7627
       DOS:  cpu time    0.0041: real time    0.0041
    CHARGE:  cpu time    3.4688: real time    3.4741
    MIXING:  cpu time    0.6468: real time    0.6479
    --------------------------------------------
      LOOP:  cpu time   42.7679: real time   42.8346

 eigenvalue-minimisations  :    48
 total energy-change (2. order) :-0.3699935E-02  (-0.7085429E-04)
 number of electron      23.9999999 magnetization 
 augmentation part        2.0347258 magnetization 

 Broyden mixing:
  rms(total) = 0.19479E-02    rms(broyden)= 0.19479E-02
  rms(prec ) = 0.28814E-02
  weight for this iteration     100.00

 eigenvalues of (default mixing * dielectric matrix)
  average eigenvalue GAMMA=   1.7170
  4.5187  2.6288  2.3018  1.3225  1.0033  1.0033  0.9745  0.9745  0.7260

 Free energy of the ion-electron system (eV)
  ---------------------------------------------------
  alpha Z        PSCENC =         0.05311416
  Ewald energy   TEWEN  =       942.02888186
  -Hartree energ DENC   =     -2179.55043835
  -exchange      EXHF   =         0.00000000
  -V(xc)+E(xc)   XCENC  =       103.86585170
  PAW double counting   =      2104.96365814    -2111.51950844
  entropy T*S    EENTRO =        -0.00000000
  eigenvalues    EBANDS =      -366.34487576
  atomic energy  EATOM  =      1469.26749561
  Solvation  Ediel_sol  =         0.00000000
  ---------------------------------------------------
  free energy    TOTEN  =       -37.23582107 eV

  energy without entropy =      -37.23582107  energy(sigma->0) =      -37.23582107


--------------------------------------------------------------------------------------------------------




--------------------------------------- Iteration      1(  15)  ---------------------------------------


    POTLOK:  cpu time   23.9397: real time   23.9743
    SETDIJ:  cpu time    0.0513: real time    0.0513
     EDDAV:  cpu time   13.0169: real time   13.0392
       DOS:  cpu time    0.0027: real time    0.0028
    CHARGE:  cpu time    3.4297: real time    3.4349
    MIXING:  cpu time    0.7248: real time    0.7260
    --------------------------------------------
      LOOP:  cpu time   41.1651: real time   41.2284

 eigenvalue-minimisations  :    40
 total energy-change (2. order) :-0.3166770E-02  (-0.4539547E-04)
 number of electron      23.9999999 magnetization 
 augmentation part        2.0345621 magnetization 

 Broyden mixing:
  rms(total) = 0.15694E-02    rms(broyden)= 0.15694E-02
  rms(prec ) = 0.19276E-02
  weight for this iteration     100.00

 eigenvalues of (default mixing * dielectric matrix)
  average eigenvalue GAMMA=   1.8849
  5.7808  3.0854  2.4309  1.8790  0.9840  0.9840  1.0298  0.9690  0.9690  0.7370

 Free energy of the ion-electron system (eV)
  ---------------------------------------------------
  alpha Z        PSCENC =         0.05311416
  Ewald energy   TEWEN  =       942.02888186
  -Hartree energ DENC   =     -2179.66059856
  -exchange      EXHF   =         0.00000000
  -V(xc)+E(xc)   XCENC  =       103.86401493
  PAW double counting   =      2104.59298750    -2111.14771321
  entropy T*S    EENTRO =        -0.00000000
  eigenvalues    EBANDS =      -366.23717014
  atomic energy  EATOM  =      1469.26749561
  Solvation  Ediel_sol  =         0.00000000
  ---------------------------------------------------
  free energy    TOTEN  =       -37.23898784 eV

  energy without entropy =      -37.23898784  energy(sigma->0) =      -37.23898784


--------------------------------------------------------------------------------------------------------




--------------------------------------- Iteration      1(  16)  ---------------------------------------


    POTLOK:  cpu time   23.8834: real time   23.9183
    SETDIJ:  cpu time    0.0587: real time    0.0587
     EDDAV:  cpu time   13.1223: real time   13.1455
       DOS:  cpu time    0.0044: real time    0.0044
    CHARGE:  cpu time    3.4890: real time    3.4944
    MIXING:  cpu time    0.7396: real time    0.7434
    --------------------------------------------
      LOOP:  cpu time   41.2974: real time   41.3647

 eigenvalue-minimisations  :    40
 total energy-change (2. order) :-0.1546774E-02  (-0.1690439E-04)
 number of electron      23.9999999 magnetization 
 augmentation part        2.0344760 magnetization 

 Broyden mixing:
  rms(total) = 0.61921E-03    rms(broyden)= 0.61921E-03
  rms(prec ) = 0.85002E-03
  weight for this iteration     100.00

 eigenvalues of (default mixing * dielectric matrix)
  average eigenvalue GAMMA=   1.9600
  6.4878  3.1079  2.4765  1.9175  1.9175  0.9844  0.9844  1.0201  0.9632  0.9632
  0.7372

 Free energy of the ion-electron system (eV)
  ---------------------------------------------------
  alpha Z        PSCENC =         0.05311416
  Ewald energy   TEWEN  =       942.02888186
  -Hartree energ DENC   =     -2179.62937892
  -exchange      EXHF   =         0.00000000
  -V(xc)+E(xc)   XCENC  =       103.85995710
  PAW double counting   =      2105.22072686    -2111.77333876
  entropy T*S    EENTRO =        -0.00000000
  eigenvalues    EBANDS =      -366.26799253
  atomic energy  EATOM  =      1469.26749561
  Solvation  Ediel_sol  =         0.00000000
  ---------------------------------------------------
  free energy    TOTEN  =       -37.24053461 eV

  energy without entropy =      -37.24053461  energy(sigma->0) =      -37.24053461


--------------------------------------------------------------------------------------------------------




--------------------------------------- Iteration      1(  17)  ---------------------------------------


    POTLOK:  cpu time   23.8656: real time   23.9002
    SETDIJ:  cpu time    0.1123: real time    0.1123
     EDDAV:  cpu time   14.8397: real time   14.8665
       DOS:  cpu time    0.0034: real time    0.0034
    CHARGE:  cpu time    3.4497: real time    3.4553
    MIXING:  cpu time    0.7433: real time    0.7445
    --------------------------------------------
      LOOP:  cpu time   43.0139: real time   43.0823

 eigenvalue-minimisations  :    48
 total energy-change (2. order) :-0.8171218E-03  (-0.3870418E-05)
 number of electron      23.9999999 magnetization 
 augmentation part        2.0344658 magnetization 

 Broyden mixing:
  rms(total) = 0.29943E-03    rms(broyden)= 0.29943E-03
  rms(prec ) = 0.44117E-03
  weight for this iteration     100.00

 eigenvalues of (default mixing * dielectric matrix)
  average eigenvalue GAMMA=   2.0917
  7.6965  3.9634  2.4807  2.4807  1.7096  0.9795  0.9795  1.1691  0.7368  0.9744
  0.9744  0.9561

 Free energy of the ion-electron system (eV)
  ---------------------------------------------------
  alpha Z        PSCENC =         0.05311416
  Ewald energy   TEWEN  =       942.02888186
  -Hartree energ DENC   =     -2179.62283979
  -exchange      EXHF   =         0.00000000
  -V(xc)+E(xc)   XCENC  =       103.85882444
  PAW double counting   =      2105.31865077    -2111.87206257
  entropy T*S    EENTRO =        -0.00000000
  eigenvalues    EBANDS =      -366.27341622
  atomic energy  EATOM  =      1469.26749561
  Solvation  Ediel_sol  =         0.00000000
  ---------------------------------------------------
  free energy    TOTEN  =       -37.24135173 eV

  energy without entropy =      -37.24135173  energy(sigma->0) =      -37.24135173


--------------------------------------------------------------------------------------------------------




--------------------------------------- Iteration      1(  18)  ---------------------------------------


    POTLOK:  cpu time   23.7980: real time   23.8324
    SETDIJ:  cpu time    0.0558: real time    0.0558
     EDDAV:  cpu time   11.1030: real time   11.1222
       DOS:  cpu time    0.0031: real time    0.0031
    CHARGE:  cpu time    3.4511: real time    3.4564
    MIXING:  cpu time    0.8799: real time    0.8813
    --------------------------------------------
      LOOP:  cpu time   39.2910: real time   39.3512

 eigenvalue-minimisations  :    32
 total energy-change (2. order) :-0.3851548E-03  (-0.1740346E-05)
 number of electron      23.9999999 magnetization 
 augmentation part        2.0344487 magnetization 

 Broyden mixing:
  rms(total) = 0.27142E-03    rms(broyden)= 0.27142E-03
  rms(prec ) = 0.32768E-03
  weight for this iteration     100.00

 eigenvalues of (default mixing * dielectric matrix)
  average eigenvalue GAMMA=   2.1918
  8.1393  4.3830  2.8011  2.3907  2.3907  1.6790  0.9809  0.9809  1.1416  0.7370
  0.9673  0.9673  0.9345

 Free energy of the ion-electron system (eV)
  ---------------------------------------------------
  alpha Z        PSCENC =         0.05311416
  Ewald energy   TEWEN  =       942.02888186
  -Hartree energ DENC   =     -2179.59772693
  -exchange      EXHF   =         0.00000000
  -V(xc)+E(xc)   XCENC  =       103.85747918
  PAW double counting   =      2105.33416205    -2111.88762146
  entropy T*S    EENTRO =        -0.00000000
  eigenvalues    EBANDS =      -366.29752137
  atomic energy  EATOM  =      1469.26749561
  Solvation  Ediel_sol  =         0.00000000
  ---------------------------------------------------
  free energy    TOTEN  =       -37.24173689 eV

  energy without entropy =      -37.24173689  energy(sigma->0) =      -37.24173689


--------------------------------------------------------------------------------------------------------




--------------------------------------- Iteration      1(  19)  ---------------------------------------


    POTLOK:  cpu time   23.9006: real time   23.9350
    SETDIJ:  cpu time    0.0532: real time    0.0532
     EDDAV:  cpu time   14.8311: real time   14.8565
       DOS:  cpu time    0.0002: real time    0.0002
    CHARGE:  cpu time    3.4538: real time    3.4590
    MIXING:  cpu time    0.8282: real time    0.8296
    --------------------------------------------
      LOOP:  cpu time   43.0669: real time   43.1334

 eigenvalue-minimisations  :    48
 total energy-change (2. order) :-0.2632272E-03  (-0.8230741E-06)
 number of electron      23.9999999 magnetization 
 augmentation part        2.0344687 magnetization 

 Broyden mixing:
  rms(total) = 0.16625E-03    rms(broyden)= 0.16625E-03
  rms(prec ) = 0.18709E-03
  weight for this iteration     100.00

 eigenvalues of (default mixing * dielectric matrix)
  average eigenvalue GAMMA=   2.2129
  8.7714  4.8987  3.2555  2.4506  2.3290  1.7136  0.9815  0.9815  1.1419  1.0216
  0.9890  0.8988  0.7368  0.8112

 Free energy of the ion-electron system (eV)
  ---------------------------------------------------
  alpha Z        PSCENC =         0.05311416
  Ewald energy   TEWEN  =       942.02888186
  -Hartree energ DENC   =     -2179.59141971
  -exchange      EXHF   =         0.00000000
  -V(xc)+E(xc)   XCENC  =       103.85713351
  PAW double counting   =      2105.22049215    -2111.77406973
  entropy T*S    EENTRO =        -0.00000000
  eigenvalues    EBANDS =      -366.30362799
  atomic energy  EATOM  =      1469.26749561
  Solvation  Ediel_sol  =         0.00000000
  ---------------------------------------------------
  free energy    TOTEN  =       -37.24200012 eV

  energy without entropy =      -37.24200012  energy(sigma->0) =      -37.24200012


--------------------------------------------------------------------------------------------------------




--------------------------------------- Iteration      1(  20)  ---------------------------------------


    POTLOK:  cpu time   23.8883: real time   23.9228
    SETDIJ:  cpu time    0.1165: real time    0.1166
     EDDAV:  cpu time   12.9294: real time   12.9519
       DOS:  cpu time    0.0039: real time    0.0039
    CHARGE:  cpu time    3.4387: real time    3.4436
    MIXING:  cpu time    0.9351: real time    0.9367
    --------------------------------------------
      LOOP:  cpu time   41.3120: real time   41.3755

 eigenvalue-minimisations  :    40
 total energy-change (2. order) :-0.5463189E-04  (-0.6089034E-07)
 number of electron      23.9999999 magnetization 
 augmentation part        2.0344739 magnetization 

 Broyden mixing:
  rms(total) = 0.12556E-03    rms(broyden)= 0.12556E-03
  rms(prec ) = 0.13772E-03
  weight for this iteration     100.00

 eigenvalues of (default mixing * dielectric matrix)
  average eigenvalue GAMMA=   2.3319
  9.0479  5.5895  3.6490  2.7331  2.4510  2.1914  1.6801  0.9823  0.9823  0.7370
  1.0946  1.0946  0.9129  0.9129  0.9197

 Free energy of the ion-electron system (eV)
  ---------------------------------------------------
  alpha Z        PSCENC =         0.05311416
  Ewald energy   TEWEN  =       942.02888186
  -Hartree energ DENC   =     -2179.58820526
  -exchange      EXHF   =         0.00000000
  -V(xc)+E(xc)   XCENC  =       103.85694763
  PAW double counting   =      2105.19696138    -2111.75048705
  entropy T*S    EENTRO =        -0.00000000
  eigenvalues    EBANDS =      -366.30676309
  atomic energy  EATOM  =      1469.26749561
  Solvation  Ediel_sol  =         0.00000000
  ---------------------------------------------------
  free energy    TOTEN  =       -37.24205475 eV

  energy without entropy =      -37.24205475  energy(sigma->0) =      -37.24205475


--------------------------------------------------------------------------------------------------------




--------------------------------------- Iteration      1(  21)  ---------------------------------------


    POTLOK:  cpu time   23.7925: real time   23.8275
    SETDIJ:  cpu time    0.0526: real time    0.0527
     EDDAV:  cpu time   11.1224: real time   11.1423
       DOS:  cpu time    0.0021: real time    0.0021
    CHARGE:  cpu time    3.4049: real time    3.4099
    MIXING:  cpu time    1.0055: real time    1.0072
    --------------------------------------------
      LOOP:  cpu time   39.3801: real time   39.4416

 eigenvalue-minimisations  :    32
 total energy-change (2. order) :-0.6672383E-04  (-0.8846055E-07)
 number of electron      23.9999999 magnetization 
 augmentation part        2.0344564 magnetization 

 Broyden mixing:
  rms(total) = 0.62636E-04    rms(broyden)= 0.62636E-04
  rms(prec ) = 0.67002E-04
  weight for this iteration     100.00

 eigenvalues of (default mixing * dielectric matrix)
  average eigenvalue GAMMA=   2.2798
  9.2591  5.7508  3.7831  2.7468  2.4609  2.2974  1.6924  0.9829  0.9829  1.1469
  0.7370  1.0446  0.9867  0.9024  0.8516  0.8516

 Free energy of the ion-electron system (eV)
  ---------------------------------------------------
  alpha Z        PSCENC =         0.05311416
  Ewald energy   TEWEN  =       942.02888186
  -Hartree energ DENC   =     -2179.58888040
  -exchange      EXHF   =         0.00000000
  -V(xc)+E(xc)   XCENC  =       103.85693938
  PAW double counting   =      2105.24129773    -2111.79466848
  entropy T*S    EENTRO =        -0.00000000
  eigenvalues    EBANDS =      -366.30630134
  atomic energy  EATOM  =      1469.26749561
  Solvation  Ediel_sol  =         0.00000000
  ---------------------------------------------------
  free energy    TOTEN  =       -37.24212147 eV

  energy without entropy =      -37.24212147  energy(sigma->0) =      -37.24212147


--------------------------------------------------------------------------------------------------------




--------------------------------------- Iteration      1(  22)  ---------------------------------------


    POTLOK:  cpu time   23.7916: real time   23.8264
    SETDIJ:  cpu time    0.0602: real time    0.0602
     EDDAV:  cpu time   12.9982: real time   13.0207
       DOS:  cpu time    0.0071: real time    0.0071
    CHARGE:  cpu time    3.4393: real time    3.4444
    MIXING:  cpu time    1.0705: real time    1.0721
    --------------------------------------------
      LOOP:  cpu time   41.3669: real time   41.4309

 eigenvalue-minimisations  :    40
 total energy-change (2. order) :-0.9333908E-05  (-0.5570334E-08)
 number of electron      23.9999999 magnetization 
 augmentation part        2.0344582 magnetization 

 Broyden mixing:
  rms(total) = 0.56850E-04    rms(broyden)= 0.56850E-04
  rms(prec ) = 0.60001E-04
  weight for this iteration     100.00

 eigenvalues of (default mixing * dielectric matrix)
  average eigenvalue GAMMA=   2.3418
  9.3769  6.2379  4.1003  2.7821  2.7821  2.1351  2.1351  1.5905  0.9825  0.9825
  1.1845  0.7369  1.0163  1.0163  0.9182  0.9182  0.9149

 Free energy of the ion-electron system (eV)
  ---------------------------------------------------
  alpha Z        PSCENC =         0.05311416
  Ewald energy   TEWEN  =       942.02888186
  -Hartree energ DENC   =     -2179.58874762
  -exchange      EXHF   =         0.00000000
  -V(xc)+E(xc)   XCENC  =       103.85692287
  PAW double counting   =      2105.24311476    -2111.79650540
  entropy T*S    EENTRO =        -0.00000000
  eigenvalues    EBANDS =      -366.30640705
  atomic energy  EATOM  =      1469.26749561
  Solvation  Ediel_sol  =         0.00000000
  ---------------------------------------------------
  free energy    TOTEN  =       -37.24213081 eV

  energy without entropy =      -37.24213081  energy(sigma->0) =      -37.24213081


--------------------------------------------------------------------------------------------------------




--------------------------------------- Iteration      1(  23)  ---------------------------------------


    POTLOK:  cpu time   23.7792: real time   23.8140
    SETDIJ:  cpu time    0.0529: real time    0.0529
     EDDAV:  cpu time    9.3107: real time    9.3268
       DOS:  cpu time    0.0065: real time    0.0065
    CHARGE:  cpu time    3.4078: real time    3.4128
    MIXING:  cpu time    1.0785: real time    1.0802
    --------------------------------------------
      LOOP:  cpu time   37.6356: real time   37.6932

 eigenvalue-minimisations  :    24
 total energy-change (2. order) :-0.1431714E-04  (-0.8898406E-08)
 number of electron      23.9999999 magnetization 
 augmentation part        2.0344592 magnetization 

 Broyden mixing:
  rms(total) = 0.18602E-04    rms(broyden)= 0.18602E-04
  rms(prec ) = 0.20523E-04
  weight for this iteration     100.00

 eigenvalues of (default mixing * dielectric matrix)
  average eigenvalue GAMMA=   2.3095
  9.4946  6.4309  4.3213  3.1169  2.3205  2.2611  2.2611  1.6489  0.9830  0.9830
  1.1551  1.1551  0.7369  0.9891  0.9891  0.9148  0.9148  0.8945

 Free energy of the ion-electron system (eV)
  ---------------------------------------------------
  alpha Z        PSCENC =         0.05311416
  Ewald energy   TEWEN  =       942.02888186
  -Hartree energ DENC   =     -2179.58936671
  -exchange      EXHF   =         0.00000000
  -V(xc)+E(xc)   XCENC  =       103.85693895
  PAW double counting   =      2105.24339373    -2111.79685587
  entropy T*S    EENTRO =        -0.00000000
  eigenvalues    EBANDS =      -366.30574685
  atomic energy  EATOM  =      1469.26749561
  Solvation  Ediel_sol  =         0.00000000
  ---------------------------------------------------
  free energy    TOTEN  =       -37.24214512 eV

  energy without entropy =      -37.24214512  energy(sigma->0) =      -37.24214512


--------------------------------------------------------------------------------------------------------




--------------------------------------- Iteration      1(  24)  ---------------------------------------


    POTLOK:  cpu time   23.7896: real time   23.8240
    SETDIJ:  cpu time    0.0706: real time    0.0706
     EDDAV:  cpu time   13.0568: real time   13.0790
       DOS:  cpu time    0.0046: real time    0.0046
    CHARGE:  cpu time    3.4980: real time    3.5032
    MIXING:  cpu time    1.0704: real time    1.0722
    --------------------------------------------
      LOOP:  cpu time   41.4899: real time   41.5535

 eigenvalue-minimisations  :    40
 total energy-change (2. order) :-0.3122681E-05  (-0.2328612E-08)
 number of electron      23.9999999 magnetization 
 augmentation part        2.0344638 magnetization 

 Broyden mixing:
  rms(total) = 0.14546E-04    rms(broyden)= 0.14546E-04
  rms(prec ) = 0.15846E-04
  weight for this iteration     100.00

 eigenvalues of (default mixing * dielectric matrix)
  average eigenvalue GAMMA=   2.3319
  9.5756  6.6783  4.6050  3.3913  2.4527  2.4527  1.9567  1.9567  1.4972  0.9825
  0.9825  1.2460  0.7369  1.0723  1.0607  0.9267  0.9267  0.9748  0.8301

 Free energy of the ion-electron system (eV)
  ---------------------------------------------------
  alpha Z        PSCENC =         0.05311416
  Ewald energy   TEWEN  =       942.02888186
  -Hartree energ DENC   =     -2179.58873484
  -exchange      EXHF   =         0.00000000
  -V(xc)+E(xc)   XCENC  =       103.85689353
  PAW double counting   =      2105.23233457    -2111.78578629
  entropy T*S    EENTRO =        -0.00000000
  eigenvalues    EBANDS =      -366.30634685
  atomic energy  EATOM  =      1469.26749561
  Solvation  Ediel_sol  =         0.00000000
  ---------------------------------------------------
  free energy    TOTEN  =       -37.24214825 eV

  energy without entropy =      -37.24214825  energy(sigma->0) =      -37.24214825


--------------------------------------------------------------------------------------------------------




--------------------------------------- Iteration      1(  25)  ---------------------------------------


    POTLOK:  cpu time   23.7774: real time   23.8126
    SETDIJ:  cpu time    0.0763: real time    0.0763
     EDDAV:  cpu time    9.3158: real time    9.3317
       DOS:  cpu time    0.0025: real time    0.0025
    CHARGE:  cpu time    3.3892: real time    3.3942
    MIXING:  cpu time    1.2082: real time    1.2102
    --------------------------------------------
      LOOP:  cpu time   37.7694: real time   37.8275

 eigenvalue-minimisations  :    24
 total energy-change (2. order) :-0.3561471E-05  (-0.1959895E-08)
 number of electron      23.9999999 magnetization 
 augmentation part        2.0344641 magnetization 

 Broyden mixing:
  rms(total) = 0.74236E-05    rms(broyden)= 0.74236E-05
  rms(prec ) = 0.81695E-05
  weight for this iteration     100.00

 eigenvalues of (default mixing * dielectric matrix)
  average eigenvalue GAMMA=   2.3605
  9.6840  7.0118  5.0323  3.6650  2.8595  2.4260  2.0116  2.0116  1.4956  1.4956
  0.9826  0.9826  1.1694  0.7369  1.0144  1.0144  0.9245  0.9245  0.9036  0.8637

 Free energy of the ion-electron system (eV)
  ---------------------------------------------------
  alpha Z        PSCENC =         0.05311416
  Ewald energy   TEWEN  =       942.02888186
  -Hartree energ DENC   =     -2179.58877165
  -exchange      EXHF   =         0.00000000
  -V(xc)+E(xc)   XCENC  =       103.85689367
  PAW double counting   =      2105.23646806    -2111.78990965
  entropy T*S    EENTRO =        -0.00000000
  eigenvalues    EBANDS =      -366.30632387
  atomic energy  EATOM  =      1469.26749561
  Solvation  Ediel_sol  =         0.00000000
  ---------------------------------------------------
  free energy    TOTEN  =       -37.24215181 eV

  energy without entropy =      -37.24215181  energy(sigma->0) =      -37.24215181


--------------------------------------------------------------------------------------------------------




--------------------------------------- Iteration      1(  26)  ---------------------------------------


    POTLOK:  cpu time   23.7729: real time   23.8100
    SETDIJ:  cpu time    0.0615: real time    0.0616
     EDDAV:  cpu time   11.1220: real time   11.1412
       DOS:  cpu time    0.0058: real time    0.0058
    CHARGE:  cpu time    3.4086: real time    3.4137
    MIXING:  cpu time    1.3995: real time    1.4051
    --------------------------------------------
      LOOP:  cpu time   39.7703: real time   39.8373

 eigenvalue-minimisations  :    32
 total energy-change (2. order) :-0.1368110E-05  (-0.1309621E-08)
 number of electron      23.9999999 magnetization 
 augmentation part        2.0344617 magnetization 

 Broyden mixing:
  rms(total) = 0.30298E-05    rms(broyden)= 0.30298E-05
  rms(prec ) = 0.35633E-05
  weight for this iteration     100.00

 eigenvalues of (default mixing * dielectric matrix)
  average eigenvalue GAMMA=   2.3599
  9.6966  7.1857  5.1977  3.8476  2.9329  2.4757  2.1024  1.7803  1.7803  1.7996
  0.9826  0.9826  1.1790  1.1790  0.7369  1.0206  1.0206  0.9140  0.9140  0.9424
  0.8874

 Free energy of the ion-electron system (eV)
  ---------------------------------------------------
  alpha Z        PSCENC =         0.05311416
  Ewald energy   TEWEN  =       942.02888186
  -Hartree energ DENC   =     -2179.58911198
  -exchange      EXHF   =         0.00000000
  -V(xc)+E(xc)   XCENC  =       103.85691314
  PAW double counting   =      2105.23620603    -2111.78965293
  entropy T*S    EENTRO =        -0.00000000
  eigenvalues    EBANDS =      -366.30599907
  atomic energy  EATOM  =      1469.26749561
  Solvation  Ediel_sol  =         0.00000000
  ---------------------------------------------------
  free energy    TOTEN  =       -37.24215317 eV

  energy without entropy =      -37.24215317  energy(sigma->0) =      -37.24215317


--------------------------------------------------------------------------------------------------------




--------------------------------------- Iteration      1(  27)  ---------------------------------------


    POTLOK:  cpu time   23.7543: real time   23.7893
    SETDIJ:  cpu time    0.0535: real time    0.0535
     EDDAV:  cpu time   11.1080: real time   11.1272
       DOS:  cpu time    0.0023: real time    0.0023
    CHARGE:  cpu time    3.4340: real time    3.4395
    MIXING:  cpu time    1.3897: real time    1.3918
    --------------------------------------------
      LOOP:  cpu time   39.7419: real time   39.8037

 eigenvalue-minimisations  :    32
 total energy-change (2. order) :-0.7312774E-06  (-0.9396803E-09)
 number of electron      23.9999999 magnetization 
 augmentation part        2.0344625 magnetization 

 Broyden mixing:
  rms(total) = 0.16608E-05    rms(broyden)= 0.16608E-05
  rms(prec ) = 0.19844E-05
  weight for this iteration     100.00

 eigenvalues of (default mixing * dielectric matrix)
  average eigenvalue GAMMA=   2.3699
  9.7490  7.4382  5.4864  4.0635  3.0709  2.5160  2.5160  1.9272  1.9272  1.4883
  1.4883  0.9826  0.9826  0.7369  1.0823  1.0823  0.9745  0.9745  0.9103  0.9103
  0.9615  0.8687

 Free energy of the ion-electron system (eV)
  ---------------------------------------------------
  alpha Z        PSCENC =         0.05311416
  Ewald energy   TEWEN  =       942.02888186
  -Hartree energ DENC   =     -2179.58901443
  -exchange      EXHF   =         0.00000000
  -V(xc)+E(xc)   XCENC  =       103.85690565
  PAW double counting   =      2105.23553056    -2111.78897379
  entropy T*S    EENTRO =        -0.00000000
  eigenvalues    EBANDS =      -366.30609354
  atomic energy  EATOM  =      1469.26749561
  Solvation  Ediel_sol  =         0.00000000
  ---------------------------------------------------
  free energy    TOTEN  =       -37.24215391 eV

  energy without entropy =      -37.24215391  energy(sigma->0) =      -37.24215391


--------------------------------------------------------------------------------------------------------




--------------------------------------- Iteration      1(  28)  ---------------------------------------


    POTLOK:  cpu time   23.7267: real time   23.7613
    SETDIJ:  cpu time    0.0914: real time    0.0915
     EDDAV:  cpu time   11.1311: real time   11.1505
       DOS:  cpu time    0.0012: real time    0.0012
    CHARGE:  cpu time    3.4269: real time    3.4322
    MIXING:  cpu time    1.5276: real time    1.5299
    --------------------------------------------
      LOOP:  cpu time   39.9048: real time   39.9666

 eigenvalue-minimisations  :    32
 total energy-change (2. order) :-0.3664968E-06  (-0.8511467E-09)
 number of electron      23.9999999 magnetization 
 augmentation part        2.0344624 magnetization 

 Broyden mixing:
  rms(total) = 0.86838E-06    rms(broyden)= 0.86838E-06
  rms(prec ) = 0.10766E-05
  weight for this iteration     100.00

 eigenvalues of (default mixing * dielectric matrix)
  average eigenvalue GAMMA=   2.4032
  9.7636  7.7335  5.7753  4.4256  3.3613  2.7165  2.4069  2.1645  1.7351  1.6700
  1.6700  0.9826  0.9826  1.1727  1.1727  1.1846  0.7369  0.9879  0.9879  0.9198
  0.9198  0.9185  0.8847

 Free energy of the ion-electron system (eV)
  ---------------------------------------------------
  alpha Z        PSCENC =         0.05311416
  Ewald energy   TEWEN  =       942.02888186
  -Hartree energ DENC   =     -2179.58904004
  -exchange      EXHF   =         0.00000000
  -V(xc)+E(xc)   XCENC  =       103.85690636
  PAW double counting   =      2105.23586457    -2111.78930646
  entropy T*S    EENTRO =        -0.00000000
  eigenvalues    EBANDS =      -366.30607034
  atomic energy  EATOM  =      1469.26749561
  Solvation  Ediel_sol  =         0.00000000
  ---------------------------------------------------
  free energy    TOTEN  =       -37.24215427 eV

  energy without entropy =      -37.24215427  energy(sigma->0) =      -37.24215427


--------------------------------------------------------------------------------------------------------




--------------------------------------- Iteration      1(  29)  ---------------------------------------


    POTLOK:  cpu time   23.7636: real time   23.7985
    SETDIJ:  cpu time    0.0488: real time    0.0489
     EDDAV:  cpu time   11.1805: real time   11.2001
       DOS:  cpu time    0.0071: real time    0.0071
    CHARGE:  cpu time    3.4135: real time    3.4188
    MIXING:  cpu time    1.5926: real time    1.5950
    --------------------------------------------
      LOOP:  cpu time   40.0063: real time   40.0683

 eigenvalue-minimisations  :    32
 total energy-change (2. order) :-0.2209222E-06  (-0.7682530E-09)
 number of electron      23.9999999 magnetization 
 augmentation part        2.0344622 magnetization 

 Broyden mixing:
  rms(total) = 0.74416E-06    rms(broyden)= 0.74416E-06
  rms(prec ) = 0.82253E-06
  weight for this iteration     100.00

 eigenvalues of (default mixing * dielectric matrix)
  average eigenvalue GAMMA=   2.4416
  9.8045  7.9699  6.1600  4.7387  3.7218  2.9407  2.4265  2.4265  1.9091  1.9091
  1.4825  1.4825  0.9826  0.9826  0.7369  1.1245  1.1245  0.9875  0.9875  1.0390
  0.9247  0.9247  0.9348  0.8772

 Free energy of the ion-electron system (eV)
  ---------------------------------------------------
  alpha Z        PSCENC =         0.05311416
  Ewald energy   TEWEN  =       942.02888186
  -Hartree energ DENC   =     -2179.58904506
  -exchange      EXHF   =         0.00000000
  -V(xc)+E(xc)   XCENC  =       103.85690662
  PAW double counting   =      2105.23592168    -2111.78936439
  entropy T*S    EENTRO =        -0.00000000
  eigenvalues    EBANDS =      -366.30606497
  atomic energy  EATOM  =      1469.26749561
  Solvation  Ediel_sol  =         0.00000000
  ---------------------------------------------------
  free energy    TOTEN  =       -37.24215449 eV

  energy without entropy =      -37.24215449  energy(sigma->0) =      -37.24215449


--------------------------------------------------------------------------------------------------------




--------------------------------------- Iteration      1(  30)  ---------------------------------------


    POTLOK:  cpu time   23.7212: real time   23.7558
    SETDIJ:  cpu time    0.0494: real time    0.0495
     EDDAV:  cpu time   11.1623: real time   11.1817
       DOS:  cpu time    0.0072: real time    0.0072
    CHARGE:  cpu time    3.4887: real time    3.4942
    MIXING:  cpu time    1.4232: real time    1.4256
    --------------------------------------------
      LOOP:  cpu time   39.8520: real time   39.9141

 eigenvalue-minimisations  :    32
 total energy-change (2. order) :-0.1065710E-06  (-0.6835865E-09)
 number of electron      23.9999999 magnetization 
 augmentation part        2.0344623 magnetization 

 Broyden mixing:
  rms(total) = 0.21745E-06    rms(broyden)= 0.21745E-06
  rms(prec ) = 0.27081E-06
  weight for this iteration     100.00

 eigenvalues of (default mixing * dielectric matrix)
  average eigenvalue GAMMA=   2.4508
  9.8190  8.1089  6.3311  4.9117  3.8747  3.0271  2.5902  2.2538  2.2538  1.8211
  1.8211  1.4327  1.4327  0.9826  0.9826  1.1486  1.1486  0.7369  0.9796  0.9796
  0.9243  0.9243  0.9547  0.9547  0.8753

 Free energy of the ion-electron system (eV)
  ---------------------------------------------------
  alpha Z        PSCENC =         0.05311416
  Ewald energy   TEWEN  =       942.02888186
  -Hartree energ DENC   =     -2179.58903209
  -exchange      EXHF   =         0.00000000
  -V(xc)+E(xc)   XCENC  =       103.85690556
  PAW double counting   =      2105.23593495    -2111.78937853
  entropy T*S    EENTRO =        -0.00000000
  eigenvalues    EBANDS =      -366.30607613
  atomic energy  EATOM  =      1469.26749561
  Solvation  Ediel_sol  =         0.00000000
  ---------------------------------------------------
  free energy    TOTEN  =       -37.24215460 eV

  energy without entropy =      -37.24215460  energy(sigma->0) =      -37.24215460


--------------------------------------------------------------------------------------------------------




--------------------------------------- Iteration      1(  31)  ---------------------------------------


    POTLOK:  cpu time   23.7958: real time   23.8308
    SETDIJ:  cpu time    0.0515: real time    0.0515
     EDDAV:  cpu time    9.3024: real time    9.3184
       DOS:  cpu time    0.0046: real time    0.0046
    --------------------------------------------
      LOOP:  cpu time   33.1543: real time   33.2054

 eigenvalue-minimisations  :    24
 total energy-change (2. order) :-0.3511923E-07  (-0.6288570E-09)
 number of electron      23.9999999 magnetization 
 augmentation part        2.0344623 magnetization 

 Free energy of the ion-electron system (eV)
  ---------------------------------------------------
  alpha Z        PSCENC =         0.05311416
  Ewald energy   TEWEN  =       942.02888186
  -Hartree energ DENC   =     -2179.58903272
  -exchange      EXHF   =         0.00000000
  -V(xc)+E(xc)   XCENC  =       103.85690559
  PAW double counting   =      2105.23591111    -2111.78935455
  entropy T*S    EENTRO =        -0.00000000
  eigenvalues    EBANDS =      -366.30607570
  atomic energy  EATOM  =      1469.26749561
  Solvation  Ediel_sol  =         0.00000000
  ---------------------------------------------------
  free energy    TOTEN  =       -37.24215464 eV

  energy without entropy =      -37.24215464  energy(sigma->0) =      -37.24215464


--------------------------------------------------------------------------------------------------------




 average (electrostatic) potential at core
  the test charge radii are     0.5201  0.6991  0.7215
  (the norm of the test charge is              1.0000)
       1 -44.7492       2 -44.7379       3 -63.7845       4 -82.8079       5 -82.7930
       6 -80.5337
 
 
 
 E-fermi :  -7.1290     XC(G=0):  -0.0362     alpha+bet : -0.0089


 k-point     1 :       0.0000    0.0000    0.0000
  band No.  band energies     occupation 
      1     -29.3343      2.00000
      2     -28.3271      2.00000
      3     -25.3688      2.00000
      4     -13.8680      2.00000
      5     -13.1199      2.00000
      6     -12.7999      2.00000
      7     -12.7997      2.00000
      8     -12.7142      2.00000
      9      -9.2575      2.00000
     10      -9.1857      2.00000
     11      -9.1855      2.00000
     12      -7.1925      2.00000
     13      -1.1532      0.00000
     14      -0.8486      0.00000
     15      -0.6144      0.00000
     16      -0.6143      0.00000


--------------------------------------------------------------------------------------------------------


 soft charge-density along one line, spin component            1
         0         1         2         3         4         5         6         7         8         9
 total charge-density along one line
 
 pseudopotential strength for first ion, spin component:            1
 -2.380  -4.110   0.005  -0.016   0.001
 -4.110  -7.012   0.009  -0.031   0.001
  0.005   0.009  -0.321  -0.008   0.000
 -0.016  -0.031  -0.008  -0.295  -0.001
  0.001   0.001   0.000  -0.001  -0.324
 total augmentation occupancy for first ion, spin component:            1
  3.784  -0.789  -0.194   0.725  -0.028
 -0.789   0.219   0.034  -0.147   0.006
 -0.194   0.034   0.036  -0.029   0.001
  0.725  -0.147  -0.029   0.143  -0.004
 -0.028   0.006   0.001  -0.004   0.044


------------------------ aborting loop because EDIFF is reached ----------------------------------------



 DIPCOR: dipole corrections for dipol
 direction  1 min pos   573, direction  2 min pos   546, direction  3 min pos   506,
 dipolmoment          -0.011329      0.244406      0.298064 electrons x Angstroem
 Tr[quadrupol]        12.509766

 energy correction for charged system         0.000000 eV
 dipol+quadrupol energy correction            0.000105 eV
 added-field ion interaction          0.000000 eV  (added to PSCEN)

 
  *************** adding dipol energy to TOTEN NOW **************** 
    CHARGE:  cpu time    3.3571: real time    3.3624
    FORLOC:  cpu time    1.4438: real time    1.4454
    FORNL :  cpu time    0.4369: real time    0.4375
    STRESS:  cpu time    6.1286: real time    6.1387
    FORCOR:  cpu time   22.9106: real time   22.9433
    FORHAR:  cpu time    6.9056: real time    6.9160
    MIXING:  cpu time    1.5010: real time    1.5035
    OFIELD:  cpu time    0.0000: real time    0.0000

  FORCE on cell =-STRESS in cart. coord.  units (eV):
  Direction    XX          YY          ZZ          XY          YZ          ZX
  --------------------------------------------------------------------------------------
  Alpha Z     0.05311     0.05311     0.05311
  Ewald    -114.00761  1081.57217   -25.53553     1.13221   -29.79061    -3.36451
  Hartree   494.08061  1175.71203   509.79640     0.26984    -7.09972    -0.59695
  E(xc)    -111.68510  -109.15860  -111.31475     0.00354    -0.09318    -0.01410
  Local    -723.03036 -2496.49141  -800.43127    -1.12097    29.49444     2.94193
  n-local   -79.51934   -85.36616   -79.46505     0.01544    -0.40620    -0.00207
  augment    21.47037    16.67096    19.67391    -0.01790     0.47097     0.06837
  Kinetic   512.63593   418.99183   487.68032    -0.27535     7.24496     0.94981
  Fock        0.00000     0.00000     0.00000     0.00000     0.00000     0.00000
  -------------------------------------------------------------------------------------
  Total      -0.00238     1.98393     0.45714     0.00682    -0.17933    -0.01750
  in kB      -0.00009     0.07414     0.01708     0.00025    -0.00670    -0.00065
  external pressure =        0.03 kB  Pullay stress =        0.00 kB


 VOLUME and BASIS-vectors are now :
 -----------------------------------------------------------------------------
  energy-cutoff  :     1600.00
  volume of cell :    42875.00
      direct lattice vectors                 reciprocal lattice vectors
    35.000000000  0.000000000  0.000000000     0.028571429  0.000000000  0.000000000
     0.000000000 35.000000000  0.000000000     0.000000000  0.028571429  0.000000000
     0.000000000  0.000000000 35.000000000     0.000000000  0.000000000  0.028571429

  length of vectors
    35.000000000 35.000000000 35.000000000     0.028571429  0.028571429  0.028571429


 FORCES acting on ions
    electron-ion (+dipol)            ewald-force                    non-local-force                 convergence-correction
 -----------------------------------------------------------------------------------------------
   -.328E+01 -.295E+02 0.862E+02   0.361E+01 0.320E+02 -.950E+02   -.315E+00 -.238E+01 0.830E+01   0.478E-08 -.311E-07 -.132E-06
   0.133E+00 0.826E+02 -.350E+01   -.146E+00 -.918E+02 0.385E+01   0.108E-01 0.864E+01 -.283E+00   0.109E-08 -.158E-06 -.204E-07
   0.493E-02 0.919E+01 -.130E+00   -.503E-02 -.927E+01 0.132E+00   -.266E-04 0.209E-01 0.700E-03   -.266E-07 0.549E-06 0.361E-06
   0.114E-01 -.261E+03 -.300E+00   -.128E-01 0.326E+03 0.336E+00   0.153E-02 -.642E+02 -.401E-01   0.575E-07 -.510E-05 0.553E-06
   0.436E-02 0.292E+03 -.115E+00   -.479E-02 -.357E+03 0.126E+00   0.451E-03 0.644E+02 -.119E-01   -.352E-07 0.292E-05 0.483E-06
   0.194E+01 -.686E+02 -.510E+02   -.344E+01 0.994E+02 0.906E+02   0.149E+01 -.305E+02 -.391E+02   0.351E-07 -.651E-06 -.639E-06
 -----------------------------------------------------------------------------------------------
   -.118E+01 0.240E+02 0.312E+02   0.000E+00 -.426E-13 -.142E-13   0.118E+01 -.240E+02 -.312E+02   0.367E-07 -.247E-05 0.606E-06
 
 
 POSITION                                       TOTAL-FORCE (eV/Angst)
 -----------------------------------------------------------------------------------
      0.03541      7.35416     34.06830         0.018789      0.192558     -0.494345
      0.00000      6.15848      0.00000        -0.002612     -0.536442      0.068724
      0.00000      0.08826      0.00000        -0.000126     -0.056073      0.003324
      0.00000      1.25848      0.00000         0.000130      0.652889     -0.003430
      0.00000     33.91804      0.00000         0.000026     -0.592471     -0.000700
      0.00000      7.11985      0.00000        -0.016208      0.339538      0.426428
 -----------------------------------------------------------------------------------
    total drift:                                0.000001      0.000172     -0.000016


--------------------------------------------------------------------------------------------------------



  FREE ENERGIE OF THE ION-ELECTRON SYSTEM (eV)
  ---------------------------------------------------
  free  energy   TOTEN  =       -37.24205003 eV

  energy  without entropy=      -37.24205003  energy(sigma->0) =      -37.24205003
 


--------------------------------------------------------------------------------------------------------


    POTLOK:  cpu time   23.8971: real time   23.9320


--------------------------------------------------------------------------------------------------------


 writing wavefunctions
     LOOP+:  cpu time 1984.7403: real time 1993.4733
    4ORBIT:  cpu time    0.0000: real time    0.0000

 total amount of memory used by VASP MPI-rank0  3707962. kBytes
=======================================================================

   base      :      30000. kBytes
   nonl-proj :     112154. kBytes
   fftplans  :    1215227. kBytes
   grid      :    2325657. kBytes
   one-center:          1. kBytes
   wavefun   :      24923. kBytes
 
  
  
 General timing and accounting informations for this job:
 ========================================================
  
                  Total CPU time used (sec):     2823.238
                            User time (sec):     2723.762
                          System time (sec):       99.475
                         Elapsed time (sec):     2850.041
  
                   Maximum memory used (kb):     4536692.
                   Average memory used (kb):           0.
  
                          Minor page faults:     63471833
                          Major page faults:          341
                 Voluntary context switches:        38195
