
 Primary working directories    : /scratch/sirous/480648/molpro.gua4kpXIhn
 Secondary working directories  : /scratch/sirous/480648/molpro.gua4kpXIhn
 Wavefunction directory         : /scratch/sirous/480648/
 Main file repository           : /scratch/sirous/480648/molpro.gua4kpXIhn/

 id        : karlovklimes

 Nodes                      nprocs
 nc-04.cc.karlov.mff.cuni.cz    4

 Using customized tuning parameters: mindgm=1; mindgv=20; mindgc=4; mindgr=1; noblas=0; minvec=7
 default implementation of scratch files=sf  


 Variables initialized (934), CPU time= 0.01 sec
 ***,CH3C6H4CN+CF3CN+BF3
 memory,500,m
 gdirect
 gthresh,energy=1.d-8,twoint=1.d-19,oneint=1.d-19,zero=1.d-15,orbital=1.d-8,grid=1.d-8
 symmetry,nosym
 geomtyp=xyz
                                                                                 ! Geometry
 geometry={
 H1        -0.8915159870000000    -1.4558395110000000     0.5147169950000000
 H2        0.8915159870000000    -1.4558395110000000     0.5147169950000000
 H3        0.0000000000000000    0.0000000000000000     0.0000000000000000
 H4        0.0000000000000000    -1.4558395110000000     -1.0294339900000000
 H5        -0.3900959260000000    3.9617231990000006     -0.6756659630000000
 H6        0.4007516660000000    4.0191001640000001     0.6167214650000000
 C1        0.0000000000000000    -1.0918796330000000     0.0000000000000000
 O1        0.0000000000000000    3.4000000000000004     0.0000000000000000
 }
 
 
 
 basis=avqz
 
 
 
                                                                                 ! Dimer Calculation
 {rks,pbe,accu=1.d-8;orbital,2101.2}
 eab_PBE=energy
 
 
                                                                                 !monomer A
 dummy,5,6,8;                                                                    ! NOW MONOMER B IS DUMMY
 {rks,pbe,accu=1.d-8;orbital,2201.2}
 ea_PBE=energy
                                                                                 !monomer B
 dummy,1,2,3,4,7;                                                                !NOW MONOMER A IS DUMMY
 {rks,pbe,accu=1.d-8;orbital,2301.2}
 eb_PBE=energy
 
 E_AB_int=eab_PBE-ea_PBE-eb_PBE
 
 
 text,results in hartree
 show,E_AB_int
 
 Commands  initialized (763), CPU time= 0.01 sec, 617 directives.
 Default parameters read. Elapsed time= 0.25 sec

 Checking input...
 Passed
1


                                         ***  PROGRAM SYSTEM MOLPRO  ***
                                       Copyright, TTI GmbH Stuttgart, 2015
                                    Version 2019.2 linked Jun  8 2019 11:26:33


 **********************************************************************************************************************************
 LABEL *   CH3C6H4CN+CF3CN+BF3                                                           
  64 bit mpp version                                                                     DATE: 31-Mar-20          TIME: 16:25:13  
 **********************************************************************************************************************************

 SHA1:             8135a10abc80eafa5b3ae28ffc55be4890dc4c84
 **********************************************************************************************************************************

 THRESHOLDS:

 ZERO    =  1.00D-15  ONEINT  =  1.00D-19  TWOINT  =  1.00D-19  PREFAC  =  1.00D-14  XXXXXX  =  1.00D-09  EORDER  =  1.00D-04
 ENERGY  =  1.00D-08  ETEST   =  0.00D+00  EDENS   =  0.00D+00  THRDEDEF=  1.00D-06  GRADIENT=  1.00D-02  STEP    =  1.00D-03
 ORBITAL =  1.00D-08  CIVEC   =  1.00D-05  COEFF   =  1.00D-04  PRINTCI =  5.00D-02  PUNCHCI =  9.90D+01  OPTGRAD =  3.00D-04
 OPTENERG=  1.00D-06  OPTSTEP =  3.00D-04  THRGRAD =  1.00D-10  COMPRESS=  1.00D-11  VARMIN  =  1.00D-07  VARMAX  =  1.00D-03
 THRDOUB =  0.00D+00  THRDIV  =  1.00D-05  THRRED  =  1.00D-07  THRPSP  =  1.00D+00  THRDC   =  1.00D-10  THRCS   =  1.00D-10
 THRNRM  =  1.00D-08  THREQ   =  0.00D+00  THRDE   =  1.00D+00  THRREF  =  1.00D-05  SPARFAC =  1.00D+00  THRDLP  =  1.00D-07
 THRDIA  =  1.00D-10  THRDLS  =  1.00D-07  THRGPS  =  0.00D+00  THRKEX  =  0.00D+00  THRDIS  =  2.00D-01  THRVAR  =  1.00D-10
 THRLOC  =  1.00D-06  THRGAP  =  1.00D-06  THRLOCT = -1.00D+00  THRGAPT = -1.00D+00  THRORB  =  1.00D-06  THRMLTP =  0.00D+00
 THRCPQCI=  1.00D-10  KEXTA   =  0.00D+00  THRCOARS=  0.00D+00  SYMTOL  =  1.00D-06  GRADTOL =  1.00D-06  THROVL  =  1.00D-08
 THRORTH =  1.00D-08  GRID    =  1.00D-08  GRIDMAX =  1.00D-03  DTMAX   =  0.00D+00  THROCCDE=  1.00D-01  THROCCDE=  1.00D-01
 THRPRINT=  2.50D-01


 Variable memory set to  500000000 words,  buffer space 

 SETTING GEOMTYP        =    XYZ
 ZSYMEL=NOSYM

 SETTING BASIS          =    AVQZ


 Recomputing integrals since basis changed


 Using spherical harmonics

 Library entry H      S aug-cc-pVQZ          selected for orbital group  1
 Library entry H      P aug-cc-pVQZ          selected for orbital group  1
 Library entry H      D aug-cc-pVQZ          selected for orbital group  1
 Library entry H      F aug-cc-pVQZ          selected for orbital group  1
 Library entry C      S aug-cc-pVQZ          selected for orbital group  2
 Library entry C      P aug-cc-pVQZ          selected for orbital group  2
 Library entry C      D aug-cc-pVQZ          selected for orbital group  2
 Library entry C      F aug-cc-pVQZ          selected for orbital group  2
 Library entry C      G aug-cc-pVQZ          selected for orbital group  2
 Library entry O      S aug-cc-pVQZ          selected for orbital group  3
 Library entry O      P aug-cc-pVQZ          selected for orbital group  3
 Library entry O      D aug-cc-pVQZ          selected for orbital group  3
 Library entry O      F aug-cc-pVQZ          selected for orbital group  3
 Library entry O      G aug-cc-pVQZ          selected for orbital group  3


 PROGRAM * SEWARD (Integral evaluation for generally contracted gaussian basis sets)     Author: Roland Lindh, 1990

 Geometry written to block  1 of record 700


 Point group  C1  



 ATOMIC COORDINATES

 NR  ATOM    CHARGE       X              Y              Z

   1  H1      1.00   -1.684721051   -2.751137957    0.972674152
   2  H2      1.00    1.684721051   -2.751137957    0.972674152
   3  H3      1.00    0.000000000    0.000000000    0.000000000
   4  H4      1.00    0.000000000   -2.751137957   -1.945348304
   5  H5      1.00   -0.737174462    7.486571827   -1.276823622
   6  H6      1.00    0.757310893    7.594998577    1.165434664
   7  C1      6.00    0.000000000   -2.063353467    0.000000000
   8  O1      8.00    0.000000000    6.425068824    0.000000000

 Bond lengths in Bohr (Angstrom)

 1-7  2.063353467  2-7  2.063353467  3-7  2.063353467  4-7  2.063353467  5-8  1.816726005
     ( 1.091879633)     ( 1.091879633)     ( 1.091879633)     ( 1.091879633)     ( 0.961370000)

 6-8  1.816726004
     ( 0.961370000)

 Bond angles

  1-7-2  109.47122062   1-7-3  109.47122065   1-7-4  109.47122061   2-7-3  109.47122065

  2-7-4  109.47122061   3-7-4  109.47122066   5-8-6  104.10700003

 NUCLEAR CHARGE:                   20
 NUMBER OF PRIMITIVE AOS:         578
 NUMBER OF SYMMETRY AOS:          474
 NUMBER OF CONTRACTIONS:          436   (  436A   )
 NUMBER OF CORE ORBITALS:           2   (    2A   )
 NUMBER OF VALENCE ORBITALS:       14   (   14A   )


 NUCLEAR REPULSION ENERGY   34.09100667


 Eigenvalues of metric

         1 0.150E-04 0.235E-04 0.416E-04 0.425E-04 0.573E-04 0.862E-04 0.892E-04 0.104E-03


 OPERATOR DM      FOR CENTER  0  COORDINATES:    0.000000    0.000000    0.000000


 **********************************************************************************************************************************
 DATASETS  * FILE   NREC   LENGTH (MB)   RECORD NAMES
              1      18       37.06       500      610      700      900      950      970     1000      129      960     1100   
                                          VAR    BASINP    GEOM    SYMINP    ZMAT    AOBASIS   BASIS     P2S    ABASIS      S 
                                         1400     1410     1200     1210     1080     1600     1650     1700   
                                           T        V       H0       H01     AOSYM     SMH    MOLCAS    OPER   

 PROGRAMS   *        TOTAL       INT
 CPU TIMES  *         0.63      0.44
 REAL TIME  *         1.98 SEC
 DISK USED  *        37.58 MB (local),      150.30 MB (total)
 GA USED    *         0.00 MB       (max)       0.00 MB       (current)
 **********************************************************************************************************************************

 Density functional group PBE=PBEX+PBEC
 Functional: PBEX(Automatically generated (new) PBEX)                          Gradient terms: 1
 Functional: PBEC(Automatically generated (new) PBEC)                          Gradient terms: 1
 Use libxcgrid:  F
 Use grid at  1800.2

 Functional: PBEX                      Factor:  1.0000
 Functional: PBEC                      Factor:  1.0000

 Generated new metagrid on record  1800.2 with target accuracy 1.0D-08 and 67932 points in CPU time    0.2
 Computed new grid on record 1800.1 in CPU time    0.3
  352058 words reserved for DFT integration

 PROGRAM * RKS-SCF (Restricted closed shell Kohn-Sham)     Authors: W. Meyer, H.-J. Werner, P.J. Knowles, 1993

 NUMBER OF ELECTRONS:      10+   10-    SPACE SYMMETRY=1    SPIN SYMMETRY: Singlet 
 CONVERGENCE THRESHOLDS:    1.00E-04 (Density)    1.00E-08 (Energy)
 INTEGRAL THRESHOLDS:       1.00E-11 (Initial)    1.00E-11 (Final)
 MAX. NUMBER OF ITERATIONS:       60
 INTERPOLATION TYPE:            DIIS
 INTERPOLATION STEPS:              2 (START)      1 (STEP)
 LEVEL SHIFTS:                  0.00 (CLOSED)  0.00 (OPEN) 



 Use fine grid record 1800.2 for energy threshold  1.0D-08
 Orbital guess generated from atomic densities. Full valence occupancy:   16

 Molecular orbital dump at record        2101.2

 Initial occupancy:  10

 Direct Fock-matrix evaluation.        Authors: Roland Lindh & Martin Schuetz (1993/96)

 Integral Threshold:                  0.1D-10
 Threshold for writing integrals:     0.1D-06
 Prescreening on density matrix:        ON 
 Calculation will be performed fully direct        

 ITERATION   DDIFF            GRAD            ENERGY        2-EL.EN.            DIPOLE MOMENTS         DIIS   CPU(IT)  CPU(TOT)
    1      0.000D+00      0.000D+00      -116.65193002    191.480002    0.00991    1.10201   -0.05484    0     55.5     60.6     start
    2      0.000D+00      0.741D-02      -116.12905426    164.107969   -0.00379   -0.26358    0.02493    1     52.9    113.5     diag
    3      0.990D-02      0.139D-01      -116.83893906    182.729221    0.00769    0.86677   -0.04070    2     52.4    165.9     diag
    4      0.618D-02      0.208D-02      -116.85268573    182.296483    0.00646    0.75182   -0.03441    3     49.4    215.3     diag
    5      0.129D-02      0.509D-03      -116.85373330    181.959868    0.00646    0.75721   -0.03429    4     49.0    264.3     diag
    6      0.319D-03      0.450D-04      -116.85373955    182.000977    0.00648    0.75667   -0.03439    5     45.1    309.4     diag
    7      0.186D-04      0.606D-05      -116.85373966    182.003189    0.00649    0.75809   -0.03443    6     40.7    350.1     diag
    8      0.253D-05      0.114D-05      -116.85373966    182.002750    0.00648    0.75783   -0.03442    7     35.9    386.0     diag
    9      0.485D-06      0.111D-06      -116.85373966    182.002679    0.00648    0.75787   -0.03442    0     28.8    414.8     orth

 Final occupancy:  10

 !RKS STATE  1.1 Energy              -116.853739660654
 Nuclear energy                        34.09100667
 One-electron energy                 -225.87837210
 Two-electron energy                   91.00133967
 Density functional                   -16.06771390     PBEX=-15.44342904 PBEC= -0.62428487
 Virial quotient                       -1.00430556
 !RKS STATE  1.1 Dipole moment          0.00648433     0.75787341    -0.03442076
 Dipole moment /Debye                   0.01648043     1.92619591    -0.08748312

 Orbital energies:

         1.1          2.1          3.1          4.1          5.1          6.1          7.1          8.1          9.1         10.1
    -18.755315    -9.853674    -0.932394    -0.616369    -0.484705    -0.346062    -0.337821    -0.337745    -0.334932    -0.267681

        11.1         12.1
     -0.036412    -0.004617


 HOMO     10.1    -0.267681 =      -7.2840eV
 LUMO     11.1    -0.036412 =      -0.9908eV
 LUMO-HOMO         0.231269 =       6.2931eV


 **********************************************************************************************************************************
 DATASETS  * FILE   NREC   LENGTH (MB)   RECORD NAMES
              1      19       37.06       500      610      700      900      950      970     1000      129      960     1100   
                                          VAR    BASINP    GEOM    SYMINP    ZMAT    AOBASIS   BASIS     P2S    ABASIS      S 
                                         1400     1410     1200     1210     1080     1600     1650     1700     1800   
                                           T        V       H0       H01     AOSYM     SMH    MOLCAS    OPER     GRID   

              2       5        6.76       700     1000      520     1800     2101   
                                         GEOM     BASIS   MCVARS    GRID      RKS  

 PROGRAMS   *        TOTAL   RKS-SCF       INT
 CPU TIMES  *       415.96    415.32      0.44
 REAL TIME  *       419.77 SEC
 DISK USED  *        56.11 MB (local),      224.46 MB (total)
 SF USED    *         2.29 MB
 GA USED    *         2.24 MB       (max)       2.24 MB       (current)
 **********************************************************************************************************************************
 SETTING EAB_PBE        =      -116.85373966  AU                              

 Dummy atoms: H5  H6  O1


 Recomputing one-electron integrals since nuclear charges changed


 PROGRAM * SEWARD (Integral evaluation for generally contracted gaussian basis sets)     Author: Roland Lindh, 1990

 Geometry written to block  1 of record 700


 Point group  C1  



 ATOMIC COORDINATES

 NR  ATOM    CHARGE       X              Y              Z

   1  H1      1.00   -1.684721051   -2.751137957    0.972674152
   2  H2      1.00    1.684721051   -2.751137957    0.972674152
   3  H3      1.00    0.000000000    0.000000000    0.000000000
   4  H4      1.00    0.000000000   -2.751137957   -1.945348304
   5  H5      0.00   -0.737174462    7.486571827   -1.276823622
   6  H6      0.00    0.757310893    7.594998577    1.165434664
   7  C1      6.00    0.000000000   -2.063353467    0.000000000
   8  O1      0.00    0.000000000    6.425068824    0.000000000

 Bond lengths in Bohr (Angstrom)

 1-7  2.063353467  2-7  2.063353467  3-7  2.063353467  4-7  2.063353467  5-8  1.816726005
     ( 1.091879633)     ( 1.091879633)     ( 1.091879633)     ( 1.091879633)     ( 0.961370000)

 6-8  1.816726004
     ( 0.961370000)

 Bond angles

  1-7-2  109.47122062   1-7-3  109.47122065   1-7-4  109.47122061   2-7-3  109.47122065

  2-7-4  109.47122061   3-7-4  109.47122066   5-8-6  104.10700003

 NUCLEAR CHARGE:                   10
 NUMBER OF PRIMITIVE AOS:         578
 NUMBER OF SYMMETRY AOS:          474
 NUMBER OF CONTRACTIONS:          436   (  436A   )
 NUMBER OF CORE ORBITALS:           1   (    1A   )
 NUMBER OF VALENCE ORBITALS:        8   (    8A   )

 MOLECULE CHANGED: INITIALIZING OCCUPATION AND DUMP RECORDS


 NUCLEAR REPULSION ENERGY   13.41226070


 Eigenvalues of metric

         1 0.150E-04 0.235E-04 0.416E-04 0.425E-04 0.573E-04 0.862E-04 0.892E-04 0.104E-03


 OPERATOR DM      FOR CENTER  0  COORDINATES:    0.000000    0.000000    0.000000


 **********************************************************************************************************************************
 DATASETS  * FILE   NREC   LENGTH (MB)   RECORD NAMES
              1      19       37.06       500      610      700      900      950      970     1000      129      960     1100   
                                          VAR    BASINP    GEOM    SYMINP    ZMAT    AOBASIS   BASIS     P2S    ABASIS      S 
                                         1400     1410     1200     1210     1080     1600     1650     1700     1800   
                                           T        V       H0       H01     AOSYM     SMH    MOLCAS    OPER     GRID   

              2       5        6.76       700     1000      520     1800     2101   
                                         GEOM     BASIS   MCVARS    GRID      RKS  

 PROGRAMS   *        TOTAL       INT   RKS-SCF       INT
 CPU TIMES  *       416.20      0.24    415.32      0.44
 REAL TIME  *       420.09 SEC
 DISK USED  *        56.11 MB (local),      224.46 MB (total)
 SF USED    *         2.29 MB
 GA USED    *         2.24 MB       (max)       2.24 MB       (current)
 **********************************************************************************************************************************

 Density functional group PBE=PBEX+PBEC
 Functional: PBEX(Automatically generated (new) PBEX)                          Gradient terms: 1
 Functional: PBEC(Automatically generated (new) PBEC)                          Gradient terms: 1
 Use libxcgrid:  F
 Use grid at  1800.2

 Functional: PBEX                      Factor:  1.0000
 Functional: PBEC                      Factor:  1.0000

 Generated new metagrid on record  1800.2 with target accuracy 1.0D-08 and 67932 points in CPU time    0.2
 Computed new grid on record 1800.1 in CPU time    0.3
  352058 words reserved for DFT integration

 PROGRAM * RKS-SCF (Restricted closed shell Kohn-Sham)     Authors: W. Meyer, H.-J. Werner, P.J. Knowles, 1993

 NUMBER OF ELECTRONS:       5+    5-    SPACE SYMMETRY=1    SPIN SYMMETRY: Singlet 
 CONVERGENCE THRESHOLDS:    1.00E-04 (Density)    1.00E-08 (Energy)
 INTEGRAL THRESHOLDS:       1.00E-11 (Initial)    1.00E-11 (Final)
 MAX. NUMBER OF ITERATIONS:       60
 INTERPOLATION TYPE:            DIIS
 INTERPOLATION STEPS:              2 (START)      1 (STEP)
 LEVEL SHIFTS:                  0.00 (CLOSED)  0.00 (OPEN) 



 Use fine grid record 1800.2 for energy threshold  1.0D-08
 Orbital guess generated from atomic densities. Full valence occupancy:    9

 Molecular orbital dump at record        2201.2

 Initial occupancy:   5

 Direct Fock-matrix evaluation.        Authors: Roland Lindh & Martin Schuetz (1993/96)

 Integral Threshold:                  0.1D-10
 Threshold for writing integrals:     0.1D-06
 Prescreening on density matrix:        ON 
 Calculation will be performed fully direct        

 ITERATION   DDIFF            GRAD            ENERGY        2-EL.EN.            DIPOLE MOMENTS         DIIS   CPU(IT)  CPU(TOT)
    1      0.000D+00      0.000D+00       -40.35046953     69.968202   -0.00000    0.00000   -0.00000    0     51.8     57.4     start
    2      0.000D+00      0.730D-02       -40.20800735     59.305820   -0.00000   -0.00004   -0.00000    1     50.3    107.6     diag
    3      0.767D-02      0.102D-01       -40.46648755     65.777217   -0.00000    0.00000   -0.00000    2     50.0    157.6     diag
    4      0.453D-02      0.394D-03       -40.46688473     65.526747   -0.00000   -0.00000   -0.00000    3     44.8    202.5     diag
    5      0.229D-03      0.109D-04       -40.46688482     65.528632   -0.00000   -0.00000   -0.00000    4     40.2    242.7     diag
    6      0.128D-04      0.236D-05       -40.46688481     65.525134   -0.00000   -0.00000   -0.00000    0     33.0    275.7     orth

 Final occupancy:   5

 !RKS STATE  1.1 Energy               -40.466884807917
 Nuclear energy                        13.41226070
 One-electron energy                  -79.81322903
 Two-electron energy                   32.76256699
 Density functional                    -6.82848347     PBEX=-6.52869860 PBEC=-0.29978487
 Virial quotient                       -1.00590553
 !RKS STATE  1.1 Dipole moment         -0.00000066    -0.00000176    -0.00000171
 Dipole moment /Debye                  -0.00000167    -0.00000448    -0.00000435

 Orbital energies:

         1.1          2.1          3.1          4.1          5.1          6.1          7.1
     -9.863769    -0.626166    -0.346881    -0.346881    -0.346880    -0.014229     0.020095


 HOMO      5.1    -0.346880 =      -9.4391eV
 LUMO      6.1    -0.014229 =      -0.3872eV
 LUMO-HOMO         0.332652 =       9.0519eV


 **********************************************************************************************************************************
 DATASETS  * FILE   NREC   LENGTH (MB)   RECORD NAMES
              1      19       37.06       500      610      700      900      950      970     1000      129      960     1100   
                                          VAR    BASINP    GEOM    SYMINP    ZMAT    AOBASIS   BASIS     P2S    ABASIS      S 
                                         1400     1410     1200     1210     1080     1600     1650     1700     1800   
                                           T        V       H0       H01     AOSYM     SMH    MOLCAS    OPER     GRID   

              2       6       16.88       700     1000      520     1800     2101     2201   
                                         GEOM     BASIS   MCVARS    GRID      RKS      RKS  

 PROGRAMS   *        TOTAL   RKS-SCF       INT   RKS-SCF       INT
 CPU TIMES  *       692.36    276.16      0.24    415.32      0.44
 REAL TIME  *       697.12 SEC
 DISK USED  *        63.95 MB (local),      255.79 MB (total)
 SF USED    *         2.29 MB
 GA USED    *         2.24 MB       (max)       2.24 MB       (current)
 **********************************************************************************************************************************
 SETTING EA_PBE         =       -40.46688481  AU                              

 Dummy atoms: H1  H2  H3  H4  C1


 Recomputing one-electron integrals since nuclear charges changed


 PROGRAM * SEWARD (Integral evaluation for generally contracted gaussian basis sets)     Author: Roland Lindh, 1990

 Geometry written to block  1 of record 700


 Point group  C1  



 ATOMIC COORDINATES

 NR  ATOM    CHARGE       X              Y              Z

   1  H1      0.00   -1.684721051   -2.751137957    0.972674152
   2  H2      0.00    1.684721051   -2.751137957    0.972674152
   3  H3      0.00    0.000000000    0.000000000    0.000000000
   4  H4      0.00    0.000000000   -2.751137957   -1.945348304
   5  H5      1.00   -0.737174462    7.486571827   -1.276823622
   6  H6      1.00    0.757310893    7.594998577    1.165434664
   7  C1      0.00    0.000000000   -2.063353467    0.000000000
   8  O1      8.00    0.000000000    6.425068824    0.000000000

 Bond lengths in Bohr (Angstrom)

 1-7  2.063353467  2-7  2.063353467  3-7  2.063353467  4-7  2.063353467  5-8  1.816726005
     ( 1.091879633)     ( 1.091879633)     ( 1.091879633)     ( 1.091879633)     ( 0.961370000)

 6-8  1.816726004
     ( 0.961370000)

 Bond angles

  1-7-2  109.47122062   1-7-3  109.47122065   1-7-4  109.47122061   2-7-3  109.47122065

  2-7-4  109.47122061   3-7-4  109.47122066   5-8-6  104.10700003

 NUCLEAR CHARGE:                   10
 NUMBER OF PRIMITIVE AOS:         578
 NUMBER OF SYMMETRY AOS:          474
 NUMBER OF CONTRACTIONS:          436   (  436A   )
 NUMBER OF CORE ORBITALS:           1   (    1A   )
 NUMBER OF VALENCE ORBITALS:        6   (    6A   )

 MOLECULE CHANGED: INITIALIZING OCCUPATION AND DUMP RECORDS


 NUCLEAR REPULSION ENERGY    9.15605699


 Eigenvalues of metric

         1 0.150E-04 0.235E-04 0.416E-04 0.425E-04 0.573E-04 0.862E-04 0.892E-04 0.104E-03


 OPERATOR DM      FOR CENTER  0  COORDINATES:    0.000000    0.000000    0.000000


 **********************************************************************************************************************************
 DATASETS  * FILE   NREC   LENGTH (MB)   RECORD NAMES
              1      19       37.06       500      610      700      900      950      970     1000      129      960     1100   
                                          VAR    BASINP    GEOM    SYMINP    ZMAT    AOBASIS   BASIS     P2S    ABASIS      S 
                                         1400     1410     1200     1210     1080     1600     1650     1700     1800   
                                           T        V       H0       H01     AOSYM     SMH    MOLCAS    OPER     GRID   

              2       6       16.88       700     1000      520     1800     2101     2201   
                                         GEOM     BASIS   MCVARS    GRID      RKS      RKS  

 PROGRAMS   *        TOTAL       INT   RKS-SCF       INT   RKS-SCF       INT
 CPU TIMES  *       692.61      0.24    276.16      0.24    415.32      0.44
 REAL TIME  *       697.42 SEC
 DISK USED  *        63.95 MB (local),      255.79 MB (total)
 SF USED    *         2.29 MB
 GA USED    *         2.24 MB       (max)       2.24 MB       (current)
 **********************************************************************************************************************************

 Density functional group PBE=PBEX+PBEC
 Functional: PBEX(Automatically generated (new) PBEX)                          Gradient terms: 1
 Functional: PBEC(Automatically generated (new) PBEC)                          Gradient terms: 1
 Use libxcgrid:  F
 Use grid at  1800.2

 Functional: PBEX                      Factor:  1.0000
 Functional: PBEC                      Factor:  1.0000

 Generated new metagrid on record  1800.2 with target accuracy 1.0D-08 and 67932 points in CPU time    0.2
 Computed new grid on record 1800.1 in CPU time    0.3
  352058 words reserved for DFT integration

 PROGRAM * RKS-SCF (Restricted closed shell Kohn-Sham)     Authors: W. Meyer, H.-J. Werner, P.J. Knowles, 1993

 NUMBER OF ELECTRONS:       5+    5-    SPACE SYMMETRY=1    SPIN SYMMETRY: Singlet 
 CONVERGENCE THRESHOLDS:    1.00E-04 (Density)    1.00E-08 (Energy)
 INTEGRAL THRESHOLDS:       1.00E-11 (Initial)    1.00E-11 (Final)
 MAX. NUMBER OF ITERATIONS:       60
 INTERPOLATION TYPE:            DIIS
 INTERPOLATION STEPS:              2 (START)      1 (STEP)
 LEVEL SHIFTS:                  0.00 (CLOSED)  0.00 (OPEN) 



 Use fine grid record 1800.2 for energy threshold  1.0D-08
 Orbital guess generated from atomic densities. Full valence occupancy:    7

 Molecular orbital dump at record        2301.2

 Initial occupancy:   5

 Direct Fock-matrix evaluation.        Authors: Roland Lindh & Martin Schuetz (1993/96)

 Integral Threshold:                  0.1D-10
 Threshold for writing integrals:     0.1D-06
 Prescreening on density matrix:        ON 
 Calculation will be performed fully direct        

 ITERATION   DDIFF            GRAD            ENERGY        2-EL.EN.            DIPOLE MOMENTS         DIIS   CPU(IT)  CPU(TOT)
    1      0.000D+00      0.000D+00       -76.30036037     98.210663    0.00991    1.09860   -0.05484    0     52.4     57.9     start
    2      0.000D+00      0.746D-02       -75.91389871     81.819865   -0.00409   -0.43954    0.02202    1     49.1    107.0     diag
    3      0.641D-02      0.169D-01       -76.38594253     93.603135    0.00665    0.73707   -0.03679    2     47.2    154.2     diag
    4      0.453D-02      0.443D-03       -76.38635947     93.201548    0.00638    0.70728   -0.03531    3     42.7    196.9     diag
    5      0.180D-03      0.966D-04       -76.38637265     93.250968    0.00636    0.70577   -0.03523    4     38.4    235.3     diag
    6      0.229D-04      0.219D-04       -76.38637343     93.261836    0.00638    0.70805   -0.03534    5     35.3    270.6     diag
    7      0.568D-05      0.863D-06       -76.38637343     93.261850    0.00638    0.70794   -0.03534    6     26.9    297.5     diag
    8      0.203D-06      0.702D-07       -76.38637343     93.261954    0.00638    0.70796   -0.03534    0     18.4    315.8     orth

 Final occupancy:   5

 !RKS STATE  1.1 Energy               -76.386373434358
 Nuclear energy                         9.15605699
 One-electron energy                 -122.93449714
 Two-electron energy                   46.63097675
 Density functional                    -9.23891004     PBEX=-8.91449669 PBEC=-0.32441334
 Virial quotient                       -1.00345190
 !RKS STATE  1.1 Dipole moment          0.00638180     0.70796253    -0.03533958
 Dipole moment /Debye                   0.01621985     1.79934342    -0.08981837

 Orbital energies:

         1.1          2.1          3.1          4.1          5.1          6.1          7.1
    -18.753910    -0.931045    -0.483398    -0.343741    -0.266314    -0.034634     0.015787


 HOMO      5.1    -0.266314 =      -7.2468eV
 LUMO      6.1    -0.034634 =      -0.9424eV
 LUMO-HOMO         0.231680 =       6.3043eV


 **********************************************************************************************************************************
 DATASETS  * FILE   NREC   LENGTH (MB)   RECORD NAMES
              1      19       37.06       500      610      700      900      950      970     1000      129      960     1100   
                                          VAR    BASINP    GEOM    SYMINP    ZMAT    AOBASIS   BASIS     P2S    ABASIS      S 
                                         1400     1410     1200     1210     1080     1600     1650     1700     1800   
                                           T        V       H0       H01     AOSYM     SMH    MOLCAS    OPER     GRID   

              2       7       27.00       700     1000      520     1800     2101     2201     2301   
                                         GEOM     BASIS   MCVARS    GRID      RKS      RKS      RKS  

 PROGRAMS   *        TOTAL   RKS-SCF       INT   RKS-SCF       INT   RKS-SCF       INT
 CPU TIMES  *      1008.94    316.32      0.24    276.16      0.24    415.32      0.44
 REAL TIME  *      1014.75 SEC
 DISK USED  *        75.59 MB (local),      302.37 MB (total)
 SF USED    *         2.29 MB
 GA USED    *         2.24 MB       (max)       2.24 MB       (current)
 **********************************************************************************************************************************
 SETTING EB_PBE         =       -76.38637343  AU                              
 SETTING E_AB_INT       =        -0.00048142  AU                              

 *** results in hartree
 E_AB_INT         =        -0.00048142 AU
 Molecular orbitals read from record     2301.2  Type=RKS/CANONICAL (state 1.1)
 Occupation numbers read from record     2301.2  Type=RKS/RHF (state 1.1)
 Orbital energies read from record       2301.2  Type=RKS/CANONICAL (state 1.1)
 Redundancy group numbers read from rec  2301.2  Type=RKS/RHF (state 1.1)

 RPBE/aug-cc-pVQZ energy=    -76.386373434358

         RKS-SCF         RKS-SCF         RKS-SCF
    -76.38637343    -40.46688481   -116.85373966
 **********************************************************************************************************************************
 Molpro calculation terminated
