 vasp.5.4.1 24Jun15 (build Jan 02 2020 16:21:29) gamma-only                     
  
 executed on           IFC15_impi date 2020.04.16  18:16:56
 running on   32 total cores
 distrk:  each k-point on   32 cores,    1 groups
 distr:  one band on NCORES_PER_BAND=   8 cores,    4 groups


--------------------------------------------------------------------------------------------------------


 INCAR:
 POTCAR:    PAW_PBE C_GW 28Sep2005                
 POTCAR:    PAW_PBE O_GW 28Sep2005                
 POTCAR:    PAW_PBE H_GW 21Apr2008                
 POTCAR:    PAW_PBE C_GW 28Sep2005                
   VRHFIN =C: s2p2                                                              
   LEXCH  = PE                                                                  
   EATOM  =   147.1560 eV,   10.8157 Ry                                         
                                                                                
   TITEL  = PAW_PBE C_GW 28Sep2005                                              
   LULTRA =        F    use ultrasoft PP ?                                      
   IUNSCR =        0    unscreen: 0-lin 1-nonlin 2-no                           
   RPACOR =    0.000    partial core radius                                     
   POMASS =   12.011; ZVAL   =    4.000    mass and valenz                      
   RCORE  =    1.500    outmost cutoff radius                                   
   RWIGS  =    1.630; RWIGS  =    0.863    wigner-seitz radius (au A)           
   ENMAX  =  413.992; ENMIN  =  310.494 eV                                      
   ICORE  =        2    local potential                                         
   LCOR   =        T    correct aug charges                                     
   LPAW   =        T    paw PP                                                  
   EAUG   =  644.873                                                            
   DEXC   =    0.000                                                            
   RMAX   =    1.529    core radius for proj-oper                               
   RAUG   =    1.300    factor for augmentation sphere                          
   RDEP   =    1.501    radius for radial grids                                 
   RDEPT  =    1.300    core radius for aug-charge                              
                                                                                
   Atomic configuration                                                         
    4 entries                                                                   
     n  l   j            E        occ.                                          
     1  0  0.50      -273.3789   2.0000                                         
     2  0  0.50       -13.7508   2.0000                                         
     2  1  0.50        -5.2854   2.0000                                         
     3  2  1.50        -5.4423   0.0000                                         
   Description                                                                  
     l       E           TYP  RCUT    TYP  RCUT                                 
     0    -13.7508457     23  1.200                                             
     0     95.2407820     23  1.200                                             
     1     -5.2854382     23  1.500                                             
     1    108.8466080     23  1.500                                             
     2     -5.4423304      7  1.500                                             
  local pseudopotential read in
  kinetic energy density of atom read in
  atomic valenz-charges read in
  non local Contribution for L=           0  read in
    real space projection operators read in
  non local Contribution for L=           0  read in
    real space projection operators read in
  non local Contribution for L=           1  read in
    real space projection operators read in
  non local Contribution for L=           1  read in
    real space projection operators read in
    PAW grid and wavefunctions read in
 
   number of l-projection  operators is LMAX  =           4
   number of lm-projection operators is LMMAX =           8
 
 POTCAR:    PAW_PBE O_GW 28Sep2005                
   VRHFIN =O: s2p4                                                              
   LEXCH  = PE                                                                  
   EATOM  =   432.3788 eV,   31.7789 Ry                                         
                                                                                
   TITEL  = PAW_PBE O_GW 28Sep2005                                              
   LULTRA =        F    use ultrasoft PP ?                                      
   IUNSCR =        0    unscreen: 0-lin 1-nonlin 2-no                           
   RPACOR =    0.000    partial core radius                                     
   POMASS =   16.000; ZVAL   =    6.000    mass and valenz                      
   RCORE  =    1.520    outmost cutoff radius                                   
   RWIGS  =    1.550; RWIGS  =    0.820    wigner-seitz radius (au A)           
   ENMAX  =  414.635; ENMIN  =  310.976 eV                                      
   ICORE  =        2    local potential                                         
   LCOR   =        T    correct aug charges                                     
   LPAW   =        T    paw PP                                                  
   EAUG   =  605.392                                                            
   DEXC   =    0.000                                                            
   RMAX   =    1.553    core radius for proj-oper                               
   RAUG   =    1.300    factor for augmentation sphere                          
   RDEP   =    1.550    radius for radial grids                                 
   RDEPT  =    1.329    core radius for aug-charge                              
                                                                                
   Atomic configuration                                                         
    4 entries                                                                   
     n  l   j            E        occ.                                          
     1  0  0.50      -514.6923   2.0000                                         
     2  0  0.50       -23.9615   2.0000                                         
     2  1  0.50        -9.0305   4.0000                                         
     3  2  1.50        -9.5241   0.0000                                         
   Description                                                                  
     l       E           TYP  RCUT    TYP  RCUT                                 
     0    -23.9615316     23  1.200                                             
     0     81.6349560     23  1.200                                             
     1     -9.0304908     23  1.520                                             
     1     81.6349560     23  1.520                                             
     2     -9.5240782      7  1.500                                             
  local pseudopotential read in
  kinetic energy density of atom read in
  atomic valenz-charges read in
  non local Contribution for L=           0  read in
    real space projection operators read in
  non local Contribution for L=           0  read in
    real space projection operators read in
  non local Contribution for L=           1  read in
    real space projection operators read in
  non local Contribution for L=           1  read in
    real space projection operators read in
    PAW grid and wavefunctions read in
 
   number of l-projection  operators is LMAX  =           4
   number of lm-projection operators is LMMAX =           8
 
 POTCAR:    PAW_PBE H_GW 21Apr2008                
   VRHFIN =H: ultrasoft test                                                    
   LEXCH  = PE                                                                  
   EATOM  =    12.4884 eV,    0.9179 Ry                                         
                                                                                
   TITEL  = PAW_PBE H_GW 21Apr2008                                              
   LULTRA =        F    use ultrasoft PP ?                                      
   IUNSCR =        0    unscreen: 0-lin 1-nonlin 2-no                           
   RPACOR =    0.000    partial core radius                                     
   POMASS =    1.000; ZVAL   =    1.000    mass and valenz                      
   RCORE  =    1.100    outmost cutoff radius                                   
   RWIGS  =    1.100; RWIGS  =    0.582    wigner-seitz radius (au A)           
   ENMAX  =  300.000; ENMIN  =  250.000 eV                                      
   RCLOC  =    0.701    cutoff for local pot                                    
   LCOR   =        T    correct aug charges                                     
   LPAW   =        T    paw PP                                                  
   EAUG   =  500.000                                                            
   RMAX   =    1.123    core radius for proj-oper                               
   RAUG   =    1.200    factor for augmentation sphere                          
   RDEP   =    1.112    radius for radial grids                                 
   RDEPT  =    1.100    core radius for aug-charge                              
                                                                                
   Atomic configuration                                                         
    3 entries                                                                   
     n  l   j            E        occ.                                          
     1  0  0.50        -6.4927   1.0000                                         
     2  1  0.50        -3.4015   0.0000                                         
     3  2  1.50        13.6058   0.0000                                         
   Description                                                                  
     l       E           TYP  RCUT    TYP  RCUT                                 
     0     -6.4927495     23  0.950                                             
     0      6.8029130     23  0.950                                             
     1     -4.0817478     23  1.100                                             
     1    108.8466080     23  1.100                                             
     2     81.6349560     23  1.100                                             
  local pseudopotential read in
  kinetic energy density of atom read in
  atomic valenz-charges read in
  non local Contribution for L=           0  read in
    real space projection operators read in
  non local Contribution for L=           0  read in
    real space projection operators read in
  non local Contribution for L=           1  read in
    real space projection operators read in
  non local Contribution for L=           1  read in
    real space projection operators read in
  non local Contribution for L=           2  read in
    real space projection operators read in
    PAW grid and wavefunctions read in
 
   number of l-projection  operators is LMAX  =           5
   number of lm-projection operators is LMMAX =          13
 
  PAW_PBE C_GW 28Sep2005                :
 energy of atom  1       EATOM= -147.1560
 kinetic energy error for atom=    0.0002 (will be added to EATOM!!)
  PAW_PBE O_GW 28Sep2005                :
 energy of atom  2       EATOM= -432.3788
 kinetic energy error for atom=    0.0005 (will be added to EATOM!!)
  PAW_PBE H_GW 21Apr2008                :
 energy of atom  3       EATOM=  -12.4884
 kinetic energy error for atom=    0.0000 (will be added to EATOM!!)
 
 
 POSCAR: C O H                                   
  positions in cartesian coordinates
  No initial velocities read in
 exchange correlation table for  LEXCH =        8
   RHO(1)=    0.500       N(1)  =     2000
   RHO(2)=  100.500       N(2)  =     4000
 


--------------------------------------------------------------------------------------------------------


 ion  position               nearest neighbor table
   1  0.967  0.963  0.000-   4 1.09   5 1.09   6 1.09   2 1.41
   2  0.982  0.999  0.008-   3 0.97   1 1.41
   3  0.009  0.999  0.002-   2 0.97
   4  0.937  0.963  0.008-   1 1.09
   5  0.970  0.954  0.970-   1 1.09
   6  0.981  0.940  0.018-   1 1.09
 
  LATTYP: Found a simple cubic cell.
 ALAT       =    35.0000000000
  
  Lattice vectors:
  
 A1 = (  35.0000000000,   0.0000000000,   0.0000000000)
 A2 = (   0.0000000000,  35.0000000000,   0.0000000000)
 A3 = (   0.0000000000,   0.0000000000,  35.0000000000)


Analysis of symmetry for initial positions (statically):
=====================================================================
 Subroutine PRICEL returns:
 Original cell was already a primitive cell.
 

 Routine SETGRP: Setting up the symmetry group for a 
 simple cubic supercell.


 Subroutine GETGRP returns: Found  1 space group operations
 (whereof  1 operations were pure point group operations)
 out of a pool of 48 trial point group operations.


The static configuration has the point symmetry C_1 .


Analysis of symmetry for dynamics (positions and initial velocities):
=====================================================================
 Subroutine PRICEL returns:
 Original cell was already a primitive cell.
 

 Routine SETGRP: Setting up the symmetry group for a 
 simple cubic supercell.


 Subroutine GETGRP returns: Found  1 space group operations
 (whereof  1 operations were pure point group operations)
 out of a pool of 48 trial point group operations.


The dynamic configuration has the point symmetry C_1 .
 
 
 KPOINTS: automatic mesh                          

Automatic generation of k-mesh.
Space group operators:
 irot       det(A)        alpha          n_x          n_y          n_z        tau_x        tau_y        tau_z
    1     1.000000     0.000000     1.000000     0.000000     0.000000     0.000000     0.000000     0.000000
 
 Subroutine IBZKPT returns following result:
 ===========================================
 
 Found      1 irreducible k-points:
 
 Following reciprocal coordinates:
            Coordinates               Weight
  0.000000  0.000000  0.000000      1.000000
 
 Following cartesian coordinates:
            Coordinates               Weight
  0.000000  0.000000  0.000000      1.000000
 
 
 Subroutine IBZKPT_HF returns following result:
 ==============================================
 
 Found      1 k-points in 1st BZ
 the following      1 k-points will be used (e.g. in the exchange kernel)
 Following reciprocal coordinates:   # in IRBZ
  0.000000  0.000000  0.000000    1.00000000   1 t-inv F


--------------------------------------------------------------------------------------------------------




 Dimension of arrays:
   k-points           NKPTS =      1   k-points in BZ     NKDIM =      1   number of bands    NBANDS=     12
   number of dos      NEDOS =    301   number of ions     NIONS =      6
   non local maximal  LDIM  =      5   non local SUM 2l+1 LMDIM =     13
   total plane-waves  NPLWV = ******
   max r-space proj   IRMAX =      1   max aug-charges    IRDMAX=  33660
   dimension x,y,z NGX =   480 NGY =  480 NGZ =  480
   dimension x,y,z NGXF=   960 NGYF=  960 NGZF=  960
   support grid    NGXF=   960 NGYF=  960 NGZF=  960
   ions per type =               1   1   4
 NGX,Y,Z   is equivalent  to a cutoff of  22.80, 22.80, 22.80 a.u.
 NGXF,Y,Z  is equivalent  to a cutoff of  45.60, 45.60, 45.60 a.u.


 I would recommend the setting:
   dimension x,y,z NGX =   457 NGY =  457 NGZ =  457
 SYSTEM =  C                                       
 POSCAR =  C O H                                   

 Startparameter for this run:
   NWRITE =      2    write-flag & timer
   PREC   = accura    normal or accurate (medium, high low for compatibility)
   ISTART =      0    job   : 0-new  1-cont  2-samecut
   ICHARG =      2    charge: 1-file 2-atom 10-const
   ISPIN  =      1    spin polarized calculation?
   LNONCOLLINEAR =      F non collinear calculations
   LSORBIT =      F    spin-orbit coupling
   INIWAV =      1    electr: 0-lowe 1-rand  2-diag
   LASPH  =      T    aspherical Exc in radial PAW
   METAGGA=      F    non-selfconsistent MetaGGA calc.

 Electronic Relaxation 1
   ENCUT  = 1600.0 eV 117.60 Ry   10.84 a.u. 114.15114.15114.15*2*pi/ulx,y,z
   ENINI  = 1600.0     initial cutoff
   ENAUG  =  644.9 eV  augmentation charge cutoff
   NELM   =     60;   NELMIN=  2; NELMDL= -5     # of ELM steps 
   EDIFF  = 0.1E-06   stopping-criterion for ELM
   LREAL  =      F    real-space projection
   NLSPLINE    = F    spline interpolate recip. space projectors
   LCOMPAT=      F    compatible to vasp.4.4
   GGA_COMPAT  = T    GGA compatible to vasp.4.4-vasp.4.6
   LMAXPAW     = -100 max onsite density
   LMAXMIX     =    2 max onsite mixed and CHGCAR
   VOSKOWN=      0    Vosko Wilk Nusair interpolation
   ROPT   =    0.00000   0.00000   0.00000
 Ionic relaxation
   EDIFFG = 0.1E-05   stopping-criterion for IOM
   NSW    =      0    number of steps for IOM
   NBLOCK =      1;   KBLOCK =      1    inner block; outer block 
   IBRION =     -1    ionic relax: 0-MD 1-quasi-New 2-CG
   NFREE  =      0    steps in history (QN), initial steepest desc. (CG)
   ISIF   =      0    stress and relaxation
   IWAVPR =     10    prediction:  0-non 1-charg 2-wave 3-comb
   ISYM   =      3    0-nonsym 1-usesym 2-fastsym
   LCORR  =      T    Harris-Foulkes like correction to forces

   POTIM  = 0.5000    time-step for ionic-motion
   TEIN   =    0.0    initial temperature
   TEBEG  =    0.0;   TEEND  =   0.0 temperature during run
   SMASS  =  -3.00    Nose mass-parameter (am)
   estimated Nose-frequenzy (Omega)   =  0.10E-29 period in steps =****** mass=  -0.280E-25a.u.
   SCALEE = 1.0000    scale energy and forces
   NPACO  =    256;   APACO  = 16.0  distance and # of slots for P.C.
   PSTRESS=    0.0 pullay stress

  Mass of Ions in am
   POMASS =  12.01 16.00  1.00
  Ionic Valenz
   ZVAL   =   4.00  6.00  1.00
  Atomic Wigner-Seitz radii
   RWIGS  =  -1.00 -1.00 -1.00
  virtual crystal weights 
   VCA    =   1.00  1.00  1.00
   NELECT =      14.0000    total number of electrons
   NUPDOWN=      -1.0000    fix difference up-down

 DOS related values:
   EMIN   =  10.00;   EMAX   =-10.00  energy-range for DOS
   EFERMI =   0.00
   ISMEAR =     0;   SIGMA  =   0.01  broadening in eV -4-tet -1-fermi 0-gaus

 Electronic relaxation 2 (details)
   IALGO  =     58    algorithm
   LDIAG  =      T    sub-space diagonalisation (order eigenvalues)
   LSUBROT=      F    optimize rotation matrix (better conditioning)
   TURBO    =      0    0=normal 1=particle mesh
   IRESTART =      0    0=no restart 2=restart with 2 vectors
   NREBOOT  =      0    no. of reboots
   NMIN     =      0    reboot dimension
   EREF     =   0.00    reference energy to select bands
   IMIX   =      4    mixing-type and parameters
     AMIX     =   0.40;   BMIX     =  1.00
     AMIX_MAG =   1.60;   BMIX_MAG =  1.00
     AMIN     =   0.10
     WC   =   100.;   INIMIX=   1;  MIXPRE=   1;  MAXMIX= -45

 Intra band minimization:
   WEIMIN = 0.0000     energy-eigenvalue tresh-hold
   EBREAK =  0.21E-08  absolut break condition
   DEPER  =   0.30     relativ break condition  

   TIME   =   0.40     timestep for ELM

  volume/ion in A,a.u.               =    7145.83     48222.46
  Fermi-wavevector in a.u.,A,eV,Ry     =   0.112733  0.213034  0.172911  0.012709
  Thomas-Fermi vector in A             =   0.715943
 
 Write flags
   LWAVE  =      F    write WAVECAR
   LCHARG =      T    write CHGCAR
   LVTOT  =      F    write LOCPOT, total local potential
   LVHAR  =      F    write LOCPOT, Hartree potential only
   LELF   =      F    write electronic localiz. function (ELF)
   LORBIT =      0    0 simple, 1 ext, 2 COOP (PROOUT)


 Dipole corrections
   LMONO  =      F    monopole corrections only (constant potential shift)
   LDIPOL =      F    correct potential (dipole corrections)
   IDIPOL =      0    1-x, 2-y, 3-z, 4-all directions 
   EPSILON=  1.0000000 bulk dielectric constant

 Exchange correlation treatment:
   GGA     =    --    GGA type
   LEXCH   =     8    internal setting for exchange type
   VOSKOWN=      0    Vosko Wilk Nusair interpolation
   EXXOEP  =     0    0=HF, 1=EXX-LHF (local Hartree Fock) 2=EXX OEP
   LHFCALC =     T    Hartree Fock is set to
   LSYMGRAD=     F    symmetrize gradient (conserves proper symmetry)
   PRECFOCK=normal    Normal, Fast or Accurate (Low or Medium for compatibility)
   LRHFCALC=     F    long range Hartree Fock
   LRSCOR  =     F    long range correlation only (use DFT for short range part)
   LTHOMAS =     F    Thomas Fermi screening in HF
   LMODELHF=     F    short range full HF, long range fraction AEXX
   ENCUT4O =  -1.0   cutoff for four orbital integrals eV
   LMAXFOCK=     4    L truncation for augmentation on plane wave grid
   LMAXFOCKAE=  -1    L truncation for all-electron charge restoration on plane wave grid
   NMAXFOCKAE=   1    number of basis functions for all-electron charge restoration
   LFOCKAEDFT=     F  apply the AE augmentation even for DFT
   NKREDX  =     1    reduce k-point grid by
   NKREDY  =     1    reduce k-point grid by
   NKREDZ  =     1    reduce k-point grid by
   SHIFTRED=     F    shift reduced grid of Gamma
   HFKIDENT=     F    idential grid for each k-point
   ODDONLY =     F    use only odd q-grid points
   EVENONLY=     F    use only even q-grid points
   HFALPHA =   -1.0000 decay constant for conv. correction
   MCALPHA =    0.0000 extent of test-charge in conv. correction in multipole expansion
   AEXX    =    1.0000 exact exchange contribution
   HFSCREEN=    0.0000 screening length (either q_TF or 0.3 A-1)
   HFSCREENC=   0.0000 screening length for correlation (either q_TF or 0.3 A-1)
   HFRCUT  =    0.0000 spherical cutoff for potential kernel
   ALDAX   =    0.0000 LDA exchange part
   AGGAX   =    0.0000 GGA exchange part
   ALDAC   =    0.0000 LDA correlation
   AGGAC   =    0.0000 GGA correlation
   NBANDSGWLOW=     1    first orbital included in HF term
   ENCUTFOCK=  -1.0 apply spherical cutoff to Coloumb kernel
 Linear response parameters
   LEPSILON=     F    determine dielectric tensor
   LRPA    =     F    only Hartree local field effects (RPA)
   LNABLA  =     F    use nabla operator in PAW spheres
   LVEL    =     F    velocity operator in full k-point grid
   LINTERFAST=   F  fast interpolation
   KINTER  =     0    interpolate to denser k-point grid
   CSHIFT  =0.1000    complex shift for real part using Kramers Kronig
   OMEGAMAX=  -1.0    maximum frequency
   DEG_THRESHOLD= 0.2000000E-02 threshold for treating states as degnerate
   RTIME   =    0.100 relaxation time in fs

 Orbital magnetization related:
   ORBITALMAG=     F  switch on orbital magnetization
   LCHIMAG   =     F  perturbation theory with respect to B field
   DQ        =  0.001000  dq finite difference perturbation B field



--------------------------------------------------------------------------------------------------------


 Static calculation
 charge density and potential will be updated during run
 non-spin polarized calculation
 Conjugate gradient for all bands (Freysoldt, et al. PRB 79, 241103 (2009))
 preconditioned conjugated gradient                                        
 perform sub-space diagonalisation
    before iterative eigenvector-optimisation
 modified Broyden-mixing scheme, WC =      100.0
 initial mixing is a Kerker type mixing with AMIX =  0.4000 and BMIX =      1.0000
 Hartree-type preconditioning will be used
 using additional bands            5
 reciprocal scheme for non local part
 no Harris-corrections to forces 
 use gradient corrections 
 use of overlap-Matrix (Vanderbilt PP)
 Gauss-broadening in eV      SIGMA  =   0.01


--------------------------------------------------------------------------------------------------------


  energy-cutoff  :     1600.00
  volume of cell :    42875.00
      direct lattice vectors                 reciprocal lattice vectors
    35.000000000  0.000000000  0.000000000     0.028571429  0.000000000  0.000000000
     0.000000000 35.000000000  0.000000000     0.000000000  0.028571429  0.000000000
     0.000000000  0.000000000 35.000000000     0.000000000  0.000000000  0.028571429

  length of vectors
    35.000000000 35.000000000 35.000000000     0.028571429  0.028571429  0.028571429


 
 k-points in units of 2pi/SCALE and weight: automatic mesh                          
   0.00000000  0.00000000  0.00000000       1.000
 
 k-points in reciprocal lattice and weights: automatic mesh                          
   0.00000000  0.00000000  0.00000000       1.000
 
 position of ions in fractional coordinates (direct lattice) 
   0.96708385  0.96253463  0.00043599
   0.98182472  0.99933479  0.00801712
   0.00880278  0.99865489  0.00218468
   0.93685871  0.96296385  0.00754160
   0.96981114  0.95449512  0.97039455
   0.98071898  0.94039221  0.01772890
 
 position of ions in cartesian coordinates  (Angst):
  33.84793459 33.68871222  0.01525955
  34.36386507 34.97671759  0.28059932
   0.30809737 34.95292125  0.07646369
  32.79005498 33.70373461  0.26395586
  33.94338976 33.40732914 33.96380939
  34.32516425 32.91372724  0.62051145
 


--------------------------------------------------------------------------------------------------------


 use parallel FFT for wavefunctions z direction half grid
 k-point  1 :   0.0000 0.0000 0.0000  plane waves: 3115599

 maximum and minimum number of plane-waves per node :    389462   389421

 maximum number of plane-waves:   3115599
 maximum index in each direction: 
   IXMAX=  114   IYMAX=  114   IZMAX=  114
   IXMIN= -114   IYMIN= -114   IZMIN=    0

 NGX is ok and might be reduce to 458
 NGY is ok and might be reduce to 458
 NGZ is ok and might be reduce to 458

 parallel 3D FFT for wavefunctions:
    minimum data exchange during FFTs selected (reduces bandwidth)
 parallel 3D FFT for charge:
    minimum data exchange during FFTs selected (reduces bandwidth)


 FFT grid for exact exchange (Hartree Fock) 
  NGX =350; NGY =350; NGZ =350

 use parallel FFT for wavefunctions z direction half grid
 
 Radii for the augmentation spheres in the non-local exchange
 for species   1 augmentation radius   0.874 (default was   0.699)
       energy cutoff for augmentation   6400.0
 for species   2 augmentation radius   0.902 (default was   0.722)
       energy cutoff for augmentation   6400.0
 for species   3 augmentation radius   0.735 (default was   0.588)
       energy cutoff for augmentation   6400.0

 real space projection operators:
  total allocation   :       1715.15 KBytes
  max/ min on nodes  :        235.15        183.77

 Maximum index for augmentation-charges in exchange          455
  SETUP_FOCK is finished

 total amount of memory used by VASP on root node  3966392. kBytes
========================================================================

   base      :      30000. kBytes
   nonl-proj :     158884. kBytes
   fftplans  :    1395487. kBytes
   grid      :    2325657. kBytes
   one-center:          4. kBytes
   HF        :         12. kBytes
   nonlr-proj:        272. kBytes
   wavefun   :      56076. kBytes
 
     INWAV:  cpu time    0.0000: real time    0.0002
 Broyden mixing: mesh for mixing (old mesh)
   NGX =229   NGY =229   NGZ =229
  (NGX  =960   NGY  =960   NGZ  =960)
  gives a total of ****** points

 initial charge density was supplied:
 charge density of overlapping atoms calculated
 number of electron      14.0000000 magnetization 
 keeping initial charge density in first step


--------------------------------------------------------------------------------------------------------


 Maximum index for augmentation-charges         1157 (set IRDMAX)


--------------------------------------------------------------------------------------------------------


 FEWALD executed in parallel
    FEWALD:  cpu time    0.0002: real time    0.0002


----------------------------------------- Iteration    1(   1)  ---------------------------------------


    POTLOK:  cpu time   14.3974: real time   14.4365
    SETDIJ:  cpu time    0.1329: real time    0.1332
    TRIAL :  cpu time    4.8664: real time    4.8823
    CORREC:  cpu time    0.0002: real time    0.0002
    --------------------------------------------
      LOOP:  cpu time   19.4887: real time   19.5461

 eigenvalue-minimisations  :    24
 total energy-change (2. order) : 0.1132013E+03  (-0.1945843E+03)
 number of electron      14.0000000 magnetization 
 augmentation part       14.0000000 magnetization 

 Free energy of the ion-electron system (eV)
  ---------------------------------------------------
  alpha Z        PSCENC =         0.01739895
  Ewald energy   TEWEN  =       575.22878681
  -Hartree energ DENC   =     -1040.43154659
  -exchange      EXHF   =         0.00000000
  -V(xc)+E(xc)   XCENC  =         0.00000000
  PAW double counting   =       506.65430081     -505.81406839
  entropy T*S    EENTRO =        -0.00130484
  eigenvalues    EBANDS =        -9.22530877
  atomic energy  EATOM  =       586.77302357
  ---------------------------------------------------
  free energy    TOTEN  =       113.20128154 eV

  energy without entropy =      113.20258638  energy(sigma->0) =      113.20193396
  exchange ACFDT corr.  =         0.00000000  see jH, gK, PRB 81, 115126


--------------------------------------------------------------------------------------------------------




----------------------------------------- Iteration    1(   2)  ---------------------------------------


    TRIAL :  cpu time    5.8524: real time    5.8726
    CORREC:  cpu time    0.0002: real time    0.0002
    --------------------------------------------
      LOOP:  cpu time    5.8545: real time    5.8774

 eigenvalue-minimisations  :    32
 total energy-change (2. order) :-0.1942457E+02  (-0.1937456E+02)
 number of electron      14.0000000 magnetization 
 augmentation part       14.0000000 magnetization 

 Free energy of the ion-electron system (eV)
  ---------------------------------------------------
  alpha Z        PSCENC =         0.01739895
  Ewald energy   TEWEN  =       575.22878681
  -Hartree energ DENC   =     -1040.43154659
  -exchange      EXHF   =         0.00000000
  -V(xc)+E(xc)   XCENC  =         0.00000000
  PAW double counting   =       506.65430081     -505.81406839
  entropy T*S    EENTRO =        -0.00202729
  eigenvalues    EBANDS =       -28.64915198
  atomic energy  EATOM  =       586.77302357
  ---------------------------------------------------
  free energy    TOTEN  =        93.77671588 eV

  energy without entropy =       93.77874317  energy(sigma->0) =       93.77772953
  exchange ACFDT corr.  =         0.00000000  see jH, gK, PRB 81, 115126


--------------------------------------------------------------------------------------------------------




----------------------------------------- Iteration    1(   3)  ---------------------------------------


    TRIAL :  cpu time    5.8500: real time    5.8700
    CORREC:  cpu time    0.0002: real time    0.0002
    --------------------------------------------
      LOOP:  cpu time    5.8519: real time    5.8744

 eigenvalue-minimisations  :    32
 total energy-change (2. order) :-0.6274870E+01  (-0.6153448E+01)
 number of electron      14.0000000 magnetization 
 augmentation part       14.0000000 magnetization 

 Free energy of the ion-electron system (eV)
  ---------------------------------------------------
  alpha Z        PSCENC =         0.01739895
  Ewald energy   TEWEN  =       575.22878681
  -Hartree energ DENC   =     -1040.43154659
  -exchange      EXHF   =         0.00000000
  -V(xc)+E(xc)   XCENC  =         0.00000000
  PAW double counting   =       506.65430081     -505.81406839
  entropy T*S    EENTRO =        -0.00327518
  eigenvalues    EBANDS =       -34.92277450
  atomic energy  EATOM  =       586.77302357
  ---------------------------------------------------
  free energy    TOTEN  =        87.50184546 eV

  energy without entropy =       87.50512065  energy(sigma->0) =       87.50348306
  exchange ACFDT corr.  =         0.00000000  see jH, gK, PRB 81, 115126


--------------------------------------------------------------------------------------------------------




----------------------------------------- Iteration    1(   4)  ---------------------------------------


    TRIAL :  cpu time    7.9653: real time    7.9923
    CORREC:  cpu time    0.0002: real time    0.0002
    --------------------------------------------
      LOOP:  cpu time    7.9672: real time    7.9966

 eigenvalue-minimisations  :    48
 total energy-change (2. order) :-0.3099669E+01  (-0.2847321E+01)
 number of electron      14.0000000 magnetization 
 augmentation part       14.0000000 magnetization 

 Free energy of the ion-electron system (eV)
  ---------------------------------------------------
  alpha Z        PSCENC =         0.01739895
  Ewald energy   TEWEN  =       575.22878681
  -Hartree energ DENC   =     -1040.43154659
  -exchange      EXHF   =         0.00000000
  -V(xc)+E(xc)   XCENC  =         0.00000000
  PAW double counting   =       506.65430081     -505.81406839
  entropy T*S    EENTRO =        -0.01497353
  eigenvalues    EBANDS =       -38.01074564
  atomic energy  EATOM  =       586.77302357
  ---------------------------------------------------
  free energy    TOTEN  =        84.40217598 eV

  energy without entropy =       84.41714951  energy(sigma->0) =       84.40966275
  exchange ACFDT corr.  =         0.00000000  see jH, gK, PRB 81, 115126


--------------------------------------------------------------------------------------------------------




----------------------------------------- Iteration    1(   5)  ---------------------------------------


    TRIAL :  cpu time    7.9651: real time    7.9920
    CORREC:  cpu time    0.0002: real time    0.0002
    CHARGE:  cpu time    2.1400: real time    2.1491
    --------------------------------------------
      LOOP:  cpu time   10.1072: real time   10.1456

 eigenvalue-minimisations  :    48
 total energy-change (2. order) :-0.4471207E+01  (-0.4422753E+01)
 number of electron      14.0000000 magnetization 
 augmentation part       -0.1226527 magnetization 

 Free energy of the ion-electron system (eV)
  ---------------------------------------------------
  alpha Z        PSCENC =         0.01739895
  Ewald energy   TEWEN  =       575.22878681
  -Hartree energ DENC   =     -1040.43154659
  -exchange      EXHF   =         0.00000000
  -V(xc)+E(xc)   XCENC  =         0.00000000
  PAW double counting   =       506.65430081     -505.81406839
  entropy T*S    EENTRO =        -0.01493554
  eigenvalues    EBANDS =       -42.48199033
  atomic energy  EATOM  =       586.77302357
  ---------------------------------------------------
  free energy    TOTEN  =        79.93096928 eV

  energy without entropy =       79.94590482  energy(sigma->0) =       79.93843705
  exchange ACFDT corr.  =         0.00000000  see jH, gK, PRB 81, 115126


--------------------------------------------------------------------------------------------------------




----------------------------------------- Iteration    1(   6)  ---------------------------------------


    POTLOK:  cpu time   16.2229: real time   16.2624
    SETDIJ:  cpu time    0.2633: real time    0.2640
    TRIAL :  cpu time   18.6335: real time   18.7153
    CORREC:  cpu time   35.0369: real time   35.1600
    CHARGE:  cpu time    2.0867: real time    2.0952
    --------------------------------------------
      LOOP:  cpu time   72.2491: real time   72.5053

 eigenvalue-minimisations  :     0
 total energy-change (2. order) : 0.2006816E+03  (-0.1187304E+03)
 number of electron      14.0000000 magnetization 
 augmentation part       -0.0571142 magnetization 

 Free energy of the ion-electron system (eV)
  ---------------------------------------------------
  alpha Z        PSCENC =         0.01739895
  Ewald energy   TEWEN  =       575.22878681
  -Hartree energ DENC   =      -289.66231456
  -exchange      EXHF   =        65.58828492
  -V(xc)+E(xc)   XCENC  =         0.00000000
  PAW double counting   =       149.12201087     -148.99979996
  entropy T*S    EENTRO =        -0.00412243
  eigenvalues    EBANDS =      -657.43993576
  atomic energy  EATOM  =       586.77302357
  ---------------------------------------------------
  free energy    TOTEN  =       280.61251929 eV

  energy without entropy =      280.61664172  energy(sigma->0) =      280.61458051
  exchange ACFDT corr.  =        -0.81197277  see jH, gK, PRB 81, 115126


--------------------------------------------------------------------------------------------------------




----------------------------------------- Iteration    1(   7)  ---------------------------------------


    POTLOK:  cpu time   16.4812: real time   16.5213
    SETDIJ:  cpu time    0.2626: real time    0.2632
    TRIAL :  cpu time   18.4025: real time   18.4843
    CORREC:  cpu time   31.0237: real time   31.1377
    CHARGE:  cpu time    1.8613: real time    1.8694
    --------------------------------------------
      LOOP:  cpu time   68.0707: real time   68.3180

 eigenvalue-minimisations  :     0
 total energy-change (2. order) :-0.9105471E+02  (-0.8369416E+02)
 number of electron      14.0000000 magnetization 
 augmentation part        0.1138270 magnetization 

 Free energy of the ion-electron system (eV)
  ---------------------------------------------------
  alpha Z        PSCENC =         0.01739895
  Ewald energy   TEWEN  =       575.22878681
  -Hartree energ DENC   =      -388.88163561
  -exchange      EXHF   =        80.16076385
  -V(xc)+E(xc)   XCENC  =         0.00000000
  PAW double counting   =       232.65806940     -232.32913545
  entropy T*S    EENTRO =        -0.00000000
  eigenvalues    EBANDS =      -664.06534303
  atomic energy  EATOM  =       586.77302357
  ---------------------------------------------------
  free energy    TOTEN  =       189.55780605 eV

  energy without entropy =      189.55780605  energy(sigma->0) =      189.55780605
  exchange ACFDT corr.  =        -0.17154238  see jH, gK, PRB 81, 115126


--------------------------------------------------------------------------------------------------------




----------------------------------------- Iteration    1(   8)  ---------------------------------------


    POTLOK:  cpu time   16.4416: real time   16.4815
    SETDIJ:  cpu time    0.2621: real time    0.2628
    TRIAL :  cpu time   14.5862: real time   14.6580
    CORREC:  cpu time   30.9223: real time   31.0350
    CHARGE:  cpu time    1.8608: real time    1.8687
    --------------------------------------------
      LOOP:  cpu time   64.1130: real time   64.3487

 eigenvalue-minimisations  :     0
 total energy-change (2. order) :-0.5721488E+02  (-0.6000992E+02)
 number of electron      14.0000000 magnetization 
 augmentation part        0.2877002 magnetization 

 Free energy of the ion-electron system (eV)
  ---------------------------------------------------
  alpha Z        PSCENC =         0.01739895
  Ewald energy   TEWEN  =       575.22878681
  -Hartree energ DENC   =      -477.62687376
  -exchange      EXHF   =        91.11507624
  -V(xc)+E(xc)   XCENC  =         0.00000000
  PAW double counting   =       300.88265225     -300.36082579
  entropy T*S    EENTRO =        -0.00000000
  eigenvalues    EBANDS =      -643.68631497
  atomic energy  EATOM  =       586.77302357
  ---------------------------------------------------
  free energy    TOTEN  =       132.34292330 eV

  energy without entropy =      132.34292330  energy(sigma->0) =      132.34292330
  exchange ACFDT corr.  =         0.00000000  see jH, gK, PRB 81, 115126


--------------------------------------------------------------------------------------------------------




----------------------------------------- Iteration    1(   9)  ---------------------------------------


    POTLOK:  cpu time   16.4629: real time   16.5030
    SETDIJ:  cpu time    0.2588: real time    0.2595
    TRIAL :  cpu time   14.5877: real time   14.6610
    CORREC:  cpu time   30.9268: real time   31.0393
    CHARGE:  cpu time    1.8635: real time    1.8714
    --------------------------------------------
      LOOP:  cpu time   64.1374: real time   64.3744

 eigenvalue-minimisations  :     0
 total energy-change (2. order) :-0.3198102E+02  (-0.3627484E+02)
 number of electron      14.0000000 magnetization 
 augmentation part        0.2893206 magnetization 

 Free energy of the ion-electron system (eV)
  ---------------------------------------------------
  alpha Z        PSCENC =         0.01739895
  Ewald energy   TEWEN  =       575.22878681
  -Hartree energ DENC   =      -544.42806638
  -exchange      EXHF   =        99.27799356
  -V(xc)+E(xc)   XCENC  =         0.00000000
  PAW double counting   =       352.51231806     -351.91945369
  entropy T*S    EENTRO =        -0.00000000
  eigenvalues    EBANDS =      -617.10009724
  atomic energy  EATOM  =       586.77302357
  ---------------------------------------------------
  free energy    TOTEN  =       100.36190365 eV

  energy without entropy =      100.36190365  energy(sigma->0) =      100.36190365
  exchange ACFDT corr.  =         0.00000000  see jH, gK, PRB 81, 115126


--------------------------------------------------------------------------------------------------------




----------------------------------------- Iteration    1(  10)  ---------------------------------------


    POTLOK:  cpu time   16.4783: real time   16.5185
    SETDIJ:  cpu time    0.2617: real time    0.2623
    TRIAL :  cpu time   14.4962: real time   14.5678
    CORREC:  cpu time   30.9155: real time   31.0291
    CHARGE:  cpu time    1.8642: real time    1.8721
    --------------------------------------------
      LOOP:  cpu time   64.0562: real time   64.2928

 eigenvalue-minimisations  :     0
 total energy-change (2. order) :-0.3570885E+02  (-0.2415698E+02)
 number of electron      14.0000000 magnetization 
 augmentation part        0.3660009 magnetization 

 Free energy of the ion-electron system (eV)
  ---------------------------------------------------
  alpha Z        PSCENC =         0.01739895
  Ewald energy   TEWEN  =       575.22878681
  -Hartree energ DENC   =      -598.76108695
  -exchange      EXHF   =       106.37287008
  -V(xc)+E(xc)   XCENC  =         0.00000000
  PAW double counting   =       396.05162680     -395.36021587
  entropy T*S    EENTRO =        -0.00000000
  eigenvalues    EBANDS =      -605.66935442
  atomic energy  EATOM  =       586.77302357
  ---------------------------------------------------
  free energy    TOTEN  =        64.65304896 eV

  energy without entropy =       64.65304896  energy(sigma->0) =       64.65304896
  exchange ACFDT corr.  =         0.00000000  see jH, gK, PRB 81, 115126


--------------------------------------------------------------------------------------------------------




----------------------------------------- Iteration    1(  11)  ---------------------------------------


    POTLOK:  cpu time   16.4764: real time   16.5164
    SETDIJ:  cpu time    0.2593: real time    0.2599
    TRIAL :  cpu time   14.4434: real time   14.5163
    CORREC:  cpu time   31.5318: real time   31.6464
    CHARGE:  cpu time    1.8733: real time    1.8812
    --------------------------------------------
      LOOP:  cpu time   64.6243: real time   64.8630

 eigenvalue-minimisations  :     0
 total energy-change (2. order) :-0.2379619E+02  (-0.2419630E+02)
 number of electron      14.0000000 magnetization 
 augmentation part        0.4440923 magnetization 

 Free energy of the ion-electron system (eV)
  ---------------------------------------------------
  alpha Z        PSCENC =         0.01739895
  Ewald energy   TEWEN  =       575.22878681
  -Hartree energ DENC   =      -662.62462377
  -exchange      EXHF   =       112.50192102
  -V(xc)+E(xc)   XCENC  =         0.00000000
  PAW double counting   =       449.91810424     -449.23459562
  entropy T*S    EENTRO =        -0.00000000
  eigenvalues    EBANDS =      -571.72315943
  atomic energy  EATOM  =       586.77302357
  ---------------------------------------------------
  free energy    TOTEN  =        40.85685577 eV

  energy without entropy =       40.85685577  energy(sigma->0) =       40.85685577
  exchange ACFDT corr.  =         0.00000000  see jH, gK, PRB 81, 115126


--------------------------------------------------------------------------------------------------------




----------------------------------------- Iteration    1(  12)  ---------------------------------------


    POTLOK:  cpu time   16.6012: real time   16.6415
    SETDIJ:  cpu time    0.2566: real time    0.2572
    TRIAL :  cpu time   14.7114: real time   14.7849
    CORREC:  cpu time   31.0717: real time   31.1860
    CHARGE:  cpu time    1.8796: real time    1.8875
    --------------------------------------------
      LOOP:  cpu time   64.5592: real time   64.7977

 eigenvalue-minimisations  :     0
 total energy-change (2. order) :-0.2455730E+02  (-0.1465844E+02)
 number of electron      14.0000000 magnetization 
 augmentation part        0.4257165 magnetization 

 Free energy of the ion-electron system (eV)
  ---------------------------------------------------
  alpha Z        PSCENC =         0.01739895
  Ewald energy   TEWEN  =       575.22878681
  -Hartree energ DENC   =      -786.32038557
  -exchange      EXHF   =       123.61577814
  -V(xc)+E(xc)   XCENC  =         0.00000000
  PAW double counting   =       538.60850795     -537.82483996
  entropy T*S    EENTRO =        -0.00000000
  eigenvalues    EBANDS =      -483.79871590
  atomic energy  EATOM  =       586.77302357
  ---------------------------------------------------
  free energy    TOTEN  =        16.29955399 eV

  energy without entropy =       16.29955399  energy(sigma->0) =       16.29955399
  exchange ACFDT corr.  =         0.00000000  see jH, gK, PRB 81, 115126


--------------------------------------------------------------------------------------------------------




----------------------------------------- Iteration    1(  13)  ---------------------------------------


    POTLOK:  cpu time   16.5813: real time   16.6216
    SETDIJ:  cpu time    0.2569: real time    0.2576
    TRIAL :  cpu time   14.6408: real time   14.7120
    CORREC:  cpu time   31.1850: real time   31.2990
    CHARGE:  cpu time    1.8770: real time    1.8848
    --------------------------------------------
      LOOP:  cpu time   64.5800: real time   64.8165

 eigenvalue-minimisations  :     0
 total energy-change (2. order) :-0.1485982E+02  (-0.9836924E+01)
 number of electron      14.0000000 magnetization 
 augmentation part        0.3844827 magnetization 

 Free energy of the ion-electron system (eV)
  ---------------------------------------------------
  alpha Z        PSCENC =         0.01739895
  Ewald energy   TEWEN  =       575.22878681
  -Hartree energ DENC   =      -865.75504319
  -exchange      EXHF   =       132.14455755
  -V(xc)+E(xc)   XCENC  =         0.00000000
  PAW double counting   =       598.08797201     -597.14763264
  entropy T*S    EENTRO =        -0.00000000
  eigenvalues    EBANDS =      -427.90933303
  atomic energy  EATOM  =       586.77302357
  ---------------------------------------------------
  free energy    TOTEN  =         1.43973002 eV

  energy without entropy =        1.43973002  energy(sigma->0) =        1.43973002
  exchange ACFDT corr.  =         0.00000000  see jH, gK, PRB 81, 115126


--------------------------------------------------------------------------------------------------------




----------------------------------------- Iteration    1(  14)  ---------------------------------------


    POTLOK:  cpu time   16.5617: real time   16.6020
    SETDIJ:  cpu time    0.2570: real time    0.2576
    TRIAL :  cpu time   14.7540: real time   14.8274
    CORREC:  cpu time   31.0874: real time   31.2014
    CHARGE:  cpu time    1.8779: real time    1.8858
    --------------------------------------------
      LOOP:  cpu time   64.5758: real time   64.8143

 eigenvalue-minimisations  :     0
 total energy-change (2. order) :-0.1041214E+02  (-0.8642974E+01)
 number of electron      14.0000000 magnetization 
 augmentation part        0.4492927 magnetization 

 Free energy of the ion-electron system (eV)
  ---------------------------------------------------
  alpha Z        PSCENC =         0.01739895
  Ewald energy   TEWEN  =       575.22878681
  -Hartree energ DENC   =      -894.25256828
  -exchange      EXHF   =       135.30714426
  -V(xc)+E(xc)   XCENC  =         0.00000000
  PAW double counting   =       608.41771904     -607.49639990
  entropy T*S    EENTRO =        -0.00000000
  eigenvalues    EBANDS =      -412.96751236
  atomic energy  EATOM  =       586.77302357
  ---------------------------------------------------
  free energy    TOTEN  =        -8.97240791 eV

  energy without entropy =       -8.97240791  energy(sigma->0) =       -8.97240791
  exchange ACFDT corr.  =         0.00000000  see jH, gK, PRB 81, 115126


--------------------------------------------------------------------------------------------------------




----------------------------------------- Iteration    1(  15)  ---------------------------------------


    POTLOK:  cpu time   16.5871: real time   16.6275
    SETDIJ:  cpu time    0.2579: real time    0.2585
    TRIAL :  cpu time   14.6845: real time   14.7567
    CORREC:  cpu time   31.1128: real time   31.2270
    CHARGE:  cpu time    1.8736: real time    1.8814
    --------------------------------------------
      LOOP:  cpu time   64.5544: real time   64.7925

 eigenvalue-minimisations  :     0
 total energy-change (2. order) :-0.9360409E+01  (-0.7275494E+01)
 number of electron      14.0000000 magnetization 
 augmentation part        0.5360762 magnetization 

 Free energy of the ion-electron system (eV)
  ---------------------------------------------------
  alpha Z        PSCENC =         0.01739895
  Ewald energy   TEWEN  =       575.22878681
  -Hartree energ DENC   =      -926.31941115
  -exchange      EXHF   =       139.76499706
  -V(xc)+E(xc)   XCENC  =         0.00000000
  PAW double counting   =       624.82498323     -624.02046448
  entropy T*S    EENTRO =        -0.00000000
  eigenvalues    EBANDS =      -394.60213114
  atomic energy  EATOM  =       586.77302357
  ---------------------------------------------------
  free energy    TOTEN  =       -18.33281715 eV

  energy without entropy =      -18.33281715  energy(sigma->0) =      -18.33281715
  exchange ACFDT corr.  =         0.00000000  see jH, gK, PRB 81, 115126


--------------------------------------------------------------------------------------------------------




----------------------------------------- Iteration    1(  16)  ---------------------------------------


    POTLOK:  cpu time   16.5614: real time   16.6016
    SETDIJ:  cpu time    0.2566: real time    0.2572
    TRIAL :  cpu time   14.7230: real time   14.7960
    CORREC:  cpu time   31.1611: real time   31.2745
    CHARGE:  cpu time    1.8783: real time    1.8861
    --------------------------------------------
      LOOP:  cpu time   64.6194: real time   64.8574

 eigenvalue-minimisations  :     0
 total energy-change (2. order) :-0.7863289E+01  (-0.5784012E+01)
 number of electron      14.0000000 magnetization 
 augmentation part        0.5506965 magnetization 

 Free energy of the ion-electron system (eV)
  ---------------------------------------------------
  alpha Z        PSCENC =         0.01739895
  Ewald energy   TEWEN  =       575.22878681
  -Hartree energ DENC   =      -963.66786148
  -exchange      EXHF   =       145.54737596
  -V(xc)+E(xc)   XCENC  =         0.00000000
  PAW double counting   =       656.52656402     -655.83617988
  entropy T*S    EENTRO =        -0.00000000
  eigenvalues    EBANDS =      -370.78521427
  atomic energy  EATOM  =       586.77302357
  ---------------------------------------------------
  free energy    TOTEN  =       -26.19610632 eV

  energy without entropy =      -26.19610632  energy(sigma->0) =      -26.19610632
  exchange ACFDT corr.  =         0.00000000  see jH, gK, PRB 81, 115126


--------------------------------------------------------------------------------------------------------




----------------------------------------- Iteration    1(  17)  ---------------------------------------


    POTLOK:  cpu time   16.6038: real time   16.6441
    SETDIJ:  cpu time    0.2570: real time    0.2577
    TRIAL :  cpu time   14.7324: real time   14.8051
    CORREC:  cpu time   31.0762: real time   31.1904
    CHARGE:  cpu time    1.8797: real time    1.8876
    --------------------------------------------
      LOOP:  cpu time   64.5901: real time   64.8285

 eigenvalue-minimisations  :     0
 total energy-change (2. order) :-0.6317170E+01  (-0.6443334E+01)
 number of electron      14.0000000 magnetization 
 augmentation part        0.5300486 magnetization 

 Free energy of the ion-electron system (eV)
  ---------------------------------------------------
  alpha Z        PSCENC =         0.01739895
  Ewald energy   TEWEN  =       575.22878681
  -Hartree energ DENC   =      -993.35843175
  -exchange      EXHF   =       150.23596173
  -V(xc)+E(xc)   XCENC  =         0.00000000
  PAW double counting   =       684.26735331     -683.65609347
  entropy T*S    EENTRO =        -0.00000000
  eigenvalues    EBANDS =      -352.02127530
  atomic energy  EATOM  =       586.77302357
  ---------------------------------------------------
  free energy    TOTEN  =       -32.51327616 eV

  energy without entropy =      -32.51327616  energy(sigma->0) =      -32.51327616
  exchange ACFDT corr.  =         0.00000000  see jH, gK, PRB 81, 115126


--------------------------------------------------------------------------------------------------------




----------------------------------------- Iteration    1(  18)  ---------------------------------------


    POTLOK:  cpu time   16.5823: real time   16.6226
    SETDIJ:  cpu time    0.2595: real time    0.2601
    TRIAL :  cpu time   14.7882: real time   14.8609
    CORREC:  cpu time   31.1013: real time   31.2152
    CHARGE:  cpu time    1.8821: real time    1.8901
    --------------------------------------------
      LOOP:  cpu time   64.6525: real time   64.8907

 eigenvalue-minimisations  :     0
 total energy-change (2. order) :-0.7403980E+01  (-0.8115764E+01)
 number of electron      14.0000000 magnetization 
 augmentation part        0.5983413 magnetization 

 Free energy of the ion-electron system (eV)
  ---------------------------------------------------
  alpha Z        PSCENC =         0.01739895
  Ewald energy   TEWEN  =       575.22878681
  -Hartree energ DENC   =     -1029.87903924
  -exchange      EXHF   =       155.74879120
  -V(xc)+E(xc)   XCENC  =         0.00000000
  PAW double counting   =       713.08181731     -712.53067992
  entropy T*S    EENTRO =        -0.00000000
  eigenvalues    EBANDS =      -328.35735500
  atomic energy  EATOM  =       586.77302357
  ---------------------------------------------------
  free energy    TOTEN  =       -39.91725633 eV

  energy without entropy =      -39.91725633  energy(sigma->0) =      -39.91725633
  exchange ACFDT corr.  =         0.00000000  see jH, gK, PRB 81, 115126


--------------------------------------------------------------------------------------------------------




----------------------------------------- Iteration    1(  19)  ---------------------------------------


    POTLOK:  cpu time   16.5929: real time   16.6333
    SETDIJ:  cpu time    0.2595: real time    0.2602
    TRIAL :  cpu time   14.7620: real time   14.8345
    CORREC:  cpu time   31.1564: real time   31.2711
    CHARGE:  cpu time    1.8778: real time    1.8857
    --------------------------------------------
      LOOP:  cpu time   64.6872: real time   64.9258

 eigenvalue-minimisations  :     0
 total energy-change (2. order) :-0.7993114E+01  (-0.2793687E+01)
 number of electron      14.0000000 magnetization 
 augmentation part        0.6241620 magnetization 

 Free energy of the ion-electron system (eV)
  ---------------------------------------------------
  alpha Z        PSCENC =         0.01739895
  Ewald energy   TEWEN  =       575.22878681
  -Hartree energ DENC   =     -1074.36206009
  -exchange      EXHF   =       162.58286840
  -V(xc)+E(xc)   XCENC  =         0.00000000
  PAW double counting   =       731.73080845     -731.25043081
  entropy T*S    EENTRO =        -0.00000000
  eigenvalues    EBANDS =      -298.63076559
  atomic energy  EATOM  =       586.77302357
  ---------------------------------------------------
  free energy    TOTEN  =       -47.91037031 eV

  energy without entropy =      -47.91037031  energy(sigma->0) =      -47.91037031
  exchange ACFDT corr.  =        -0.00000000  see jH, gK, PRB 81, 115126


--------------------------------------------------------------------------------------------------------




----------------------------------------- Iteration    1(  20)  ---------------------------------------


    POTLOK:  cpu time   16.5999: real time   16.6402
    SETDIJ:  cpu time    0.2593: real time    0.2599
    TRIAL :  cpu time   14.6625: real time   14.7342
    CORREC:  cpu time   31.0715: real time   31.1855
    CHARGE:  cpu time    1.8812: real time    1.8890
    --------------------------------------------
      LOOP:  cpu time   64.5129: real time   64.7499

 eigenvalue-minimisations  :     0
 total energy-change (2. order) :-0.2845141E+01  (-0.2275448E+01)
 number of electron      14.0000000 magnetization 
 augmentation part        0.6532653 magnetization 

 Free energy of the ion-electron system (eV)
  ---------------------------------------------------
  alpha Z        PSCENC =         0.01739895
  Ewald energy   TEWEN  =       575.22878681
  -Hartree energ DENC   =     -1075.64106886
  -exchange      EXHF   =       163.00439483
  -V(xc)+E(xc)   XCENC  =         0.00000000
  PAW double counting   =       720.10319495     -719.67326456
  entropy T*S    EENTRO =        -0.00000000
  eigenvalues    EBANDS =      -300.56797724
  atomic energy  EATOM  =       586.77302357
  ---------------------------------------------------
  free energy    TOTEN  =       -50.75551157 eV

  energy without entropy =      -50.75551157  energy(sigma->0) =      -50.75551157
  exchange ACFDT corr.  =         0.00000000  see jH, gK, PRB 81, 115126


--------------------------------------------------------------------------------------------------------




----------------------------------------- Iteration    1(  21)  ---------------------------------------


    POTLOK:  cpu time   16.6000: real time   16.6404
    SETDIJ:  cpu time    0.2611: real time    0.2617
    TRIAL :  cpu time   14.7879: real time   14.8605
    CORREC:  cpu time   31.0717: real time   31.1864
    CHARGE:  cpu time    1.8772: real time    1.8852
    --------------------------------------------
      LOOP:  cpu time   64.6344: real time   64.8736

 eigenvalue-minimisations  :     0
 total energy-change (2. order) :-0.2354137E+01  (-0.1665876E+01)
 number of electron      14.0000000 magnetization 
 augmentation part        0.6652432 magnetization 

 Free energy of the ion-electron system (eV)
  ---------------------------------------------------
  alpha Z        PSCENC =         0.01739895
  Ewald energy   TEWEN  =       575.22878681
  -Hartree energ DENC   =     -1081.71247833
  -exchange      EXHF   =       163.94577990
  -V(xc)+E(xc)   XCENC  =         0.00000000
  PAW double counting   =       726.38745321     -725.99944231
  entropy T*S    EENTRO =        -0.00000000
  eigenvalues    EBANDS =      -297.75017033
  atomic energy  EATOM  =       586.77302357
  ---------------------------------------------------
  free energy    TOTEN  =       -53.10964854 eV

  energy without entropy =      -53.10964854  energy(sigma->0) =      -53.10964854
  exchange ACFDT corr.  =         0.00000000  see jH, gK, PRB 81, 115126


--------------------------------------------------------------------------------------------------------




----------------------------------------- Iteration    1(  22)  ---------------------------------------


    POTLOK:  cpu time   16.5888: real time   16.6291
    SETDIJ:  cpu time    0.2615: real time    0.2621
    TRIAL :  cpu time   14.7444: real time   14.8170
    CORREC:  cpu time   31.1016: real time   31.2157
    CHARGE:  cpu time    1.8800: real time    1.8878
    --------------------------------------------
      LOOP:  cpu time   64.6176: real time   64.8560

 eigenvalue-minimisations  :     0
 total energy-change (2. order) :-0.1768028E+01  (-0.9545259E+00)
 number of electron      14.0000000 magnetization 
 augmentation part        0.6526578 magnetization 

 Free energy of the ion-electron system (eV)
  ---------------------------------------------------
  alpha Z        PSCENC =         0.01739895
  Ewald energy   TEWEN  =       575.22878681
  -Hartree energ DENC   =     -1095.40557919
  -exchange      EXHF   =       166.00588428
  -V(xc)+E(xc)   XCENC  =         0.00000000
  PAW double counting   =       750.34667576     -749.96697104
  entropy T*S    EENTRO =        -0.00000000
  eigenvalues    EBANDS =      -287.87689569
  atomic energy  EATOM  =       586.77302357
  ---------------------------------------------------
  free energy    TOTEN  =       -54.87767657 eV

  energy without entropy =      -54.87767657  energy(sigma->0) =      -54.87767657
  exchange ACFDT corr.  =         0.00000000  see jH, gK, PRB 81, 115126


--------------------------------------------------------------------------------------------------------




----------------------------------------- Iteration    1(  23)  ---------------------------------------


    POTLOK:  cpu time   16.5901: real time   16.6304
    SETDIJ:  cpu time    0.2600: real time    0.2607
    TRIAL :  cpu time   14.6956: real time   14.7682
    CORREC:  cpu time   31.1130: real time   31.2267
    CHARGE:  cpu time    1.8735: real time    1.8811
    --------------------------------------------
      LOOP:  cpu time   64.5765: real time   64.8140

 eigenvalue-minimisations  :     0
 total energy-change (2. order) :-0.1013551E+01  (-0.4742302E+00)
 number of electron      14.0000000 magnetization 
 augmentation part        0.6507165 magnetization 

 Free energy of the ion-electron system (eV)
  ---------------------------------------------------
  alpha Z        PSCENC =         0.01739895
  Ewald energy   TEWEN  =       575.22878681
  -Hartree energ DENC   =     -1104.02515893
  -exchange      EXHF   =       167.35856932
  -V(xc)+E(xc)   XCENC  =         0.00000000
  PAW double counting   =       770.16176676     -769.75820566
  entropy T*S    EENTRO =        -0.00000000
  eigenvalues    EBANDS =      -281.64740794
  atomic energy  EATOM  =       586.77302357
  ---------------------------------------------------
  free energy    TOTEN  =       -55.89122714 eV

  energy without entropy =      -55.89122714  energy(sigma->0) =      -55.89122714
  exchange ACFDT corr.  =         0.00000000  see jH, gK, PRB 81, 115126


--------------------------------------------------------------------------------------------------------




----------------------------------------- Iteration    1(  24)  ---------------------------------------


    POTLOK:  cpu time   16.5865: real time   16.6268
    SETDIJ:  cpu time    0.2596: real time    0.2602
    TRIAL :  cpu time   14.7124: real time   14.7849
    CORREC:  cpu time   31.0653: real time   31.1793
    CHARGE:  cpu time    1.8861: real time    1.8939
    --------------------------------------------
      LOOP:  cpu time   64.5499: real time   64.7876

 eigenvalue-minimisations  :     0
 total energy-change (2. order) :-0.4921593E+00  (-0.1944031E+00)
 number of electron      14.0000000 magnetization 
 augmentation part        0.6580400 magnetization 

 Free energy of the ion-electron system (eV)
  ---------------------------------------------------
  alpha Z        PSCENC =         0.01739895
  Ewald energy   TEWEN  =       575.22878681
  -Hartree energ DENC   =     -1104.99831799
  -exchange      EXHF   =       167.46208735
  -V(xc)+E(xc)   XCENC  =         0.00000000
  PAW double counting   =       776.45307448     -776.03405423
  entropy T*S    EENTRO =        -0.00000000
  eigenvalues    EBANDS =      -281.28538535
  atomic energy  EATOM  =       586.77302357
  ---------------------------------------------------
  free energy    TOTEN  =       -56.38338642 eV

  energy without entropy =      -56.38338642  energy(sigma->0) =      -56.38338642
  exchange ACFDT corr.  =        -0.00000000  see jH, gK, PRB 81, 115126


--------------------------------------------------------------------------------------------------------




----------------------------------------- Iteration    1(  25)  ---------------------------------------


    POTLOK:  cpu time   16.5884: real time   16.6288
    SETDIJ:  cpu time    0.2606: real time    0.2612
    TRIAL :  cpu time   14.7187: real time   14.7903
    CORREC:  cpu time   31.1127: real time   31.2259
    CHARGE:  cpu time    1.8844: real time    1.8922
    --------------------------------------------
      LOOP:  cpu time   64.6039: real time   64.8405

 eigenvalue-minimisations  :     0
 total energy-change (2. order) :-0.1959769E+00  (-0.8778087E-01)
 number of electron      14.0000000 magnetization 
 augmentation part        0.6563102 magnetization 

 Free energy of the ion-electron system (eV)
  ---------------------------------------------------
  alpha Z        PSCENC =         0.01739895
  Ewald energy   TEWEN  =       575.22878681
  -Hartree energ DENC   =     -1105.08145607
  -exchange      EXHF   =       167.38769978
  -V(xc)+E(xc)   XCENC  =         0.00000000
  PAW double counting   =       776.72086575     -776.30378888
  entropy T*S    EENTRO =        -0.00000000
  eigenvalues    EBANDS =      -281.32189324
  atomic energy  EATOM  =       586.77302357
  ---------------------------------------------------
  free energy    TOTEN  =       -56.57936334 eV

  energy without entropy =      -56.57936334  energy(sigma->0) =      -56.57936334
  exchange ACFDT corr.  =         0.00000000  see jH, gK, PRB 81, 115126


--------------------------------------------------------------------------------------------------------




----------------------------------------- Iteration    1(  26)  ---------------------------------------


    POTLOK:  cpu time   16.5705: real time   16.6107
    SETDIJ:  cpu time    0.2589: real time    0.2595
    TRIAL :  cpu time   14.7651: real time   14.8384
    CORREC:  cpu time   31.1102: real time   31.2232
    CHARGE:  cpu time    1.8779: real time    1.8858
    --------------------------------------------
      LOOP:  cpu time   64.6194: real time   64.8574

 eigenvalue-minimisations  :     0
 total energy-change (2. order) :-0.8792684E-01  (-0.3394190E-01)
 number of electron      14.0000000 magnetization 
 augmentation part        0.6582045 magnetization 

 Free energy of the ion-electron system (eV)
  ---------------------------------------------------
  alpha Z        PSCENC =         0.01739895
  Ewald energy   TEWEN  =       575.22878681
  -Hartree energ DENC   =     -1105.94308286
  -exchange      EXHF   =       167.47237610
  -V(xc)+E(xc)   XCENC  =         0.00000000
  PAW double counting   =       777.04223847     -776.62234511
  entropy T*S    EENTRO =        -0.00000000
  eigenvalues    EBANDS =      -280.63568609
  atomic energy  EATOM  =       586.77302357
  ---------------------------------------------------
  free energy    TOTEN  =       -56.66729017 eV

  energy without entropy =      -56.66729017  energy(sigma->0) =      -56.66729017
  exchange ACFDT corr.  =         0.00000000  see jH, gK, PRB 81, 115126


--------------------------------------------------------------------------------------------------------




----------------------------------------- Iteration    1(  27)  ---------------------------------------


    POTLOK:  cpu time   16.6090: real time   16.6494
    SETDIJ:  cpu time    0.2596: real time    0.2602
    TRIAL :  cpu time   14.6490: real time   14.7210
    CORREC:  cpu time   31.1239: real time   31.2385
    CHARGE:  cpu time    1.8768: real time    1.8845
    --------------------------------------------
      LOOP:  cpu time   64.5594: real time   64.7976

 eigenvalue-minimisations  :     0
 total energy-change (2. order) :-0.3367415E-01  (-0.1290053E-01)
 number of electron      14.0000000 magnetization 
 augmentation part        0.6554158 magnetization 

 Free energy of the ion-electron system (eV)
  ---------------------------------------------------
  alpha Z        PSCENC =         0.01739895
  Ewald energy   TEWEN  =       575.22878681
  -Hartree energ DENC   =     -1106.91650487
  -exchange      EXHF   =       167.61313320
  -V(xc)+E(xc)   XCENC  =         0.00000000
  PAW double counting   =       777.34972757     -776.92602007
  entropy T*S    EENTRO =        -0.00000000
  eigenvalues    EBANDS =      -279.84050947
  atomic energy  EATOM  =       586.77302357
  ---------------------------------------------------
  free energy    TOTEN  =       -56.70096432 eV

  energy without entropy =      -56.70096432  energy(sigma->0) =      -56.70096432
  exchange ACFDT corr.  =         0.00000000  see jH, gK, PRB 81, 115126


--------------------------------------------------------------------------------------------------------




----------------------------------------- Iteration    1(  28)  ---------------------------------------


    POTLOK:  cpu time   16.5780: real time   16.6182
    SETDIJ:  cpu time    0.2604: real time    0.2611
    TRIAL :  cpu time   14.7518: real time   14.8253
    CORREC:  cpu time   31.0824: real time   31.1960
    CHARGE:  cpu time    1.8801: real time    1.8877
    --------------------------------------------
      LOOP:  cpu time   64.5926: real time   64.8308

 eigenvalue-minimisations  :     0
 total energy-change (2. order) :-0.1281155E-01  (-0.5831880E-02)
 number of electron      14.0000000 magnetization 
 augmentation part        0.6564305 magnetization 

 Free energy of the ion-electron system (eV)
  ---------------------------------------------------
  alpha Z        PSCENC =         0.01739895
  Ewald energy   TEWEN  =       575.22878681
  -Hartree energ DENC   =     -1106.39387058
  -exchange      EXHF   =       167.55370697
  -V(xc)+E(xc)   XCENC  =         0.00000000
  PAW double counting   =       776.20023485     -775.77570419
  entropy T*S    EENTRO =        -0.00000000
  eigenvalues    EBANDS =      -280.31735225
  atomic energy  EATOM  =       586.77302357
  ---------------------------------------------------
  free energy    TOTEN  =       -56.71377587 eV

  energy without entropy =      -56.71377587  energy(sigma->0) =      -56.71377587
  exchange ACFDT corr.  =         0.00000000  see jH, gK, PRB 81, 115126


--------------------------------------------------------------------------------------------------------




----------------------------------------- Iteration    1(  29)  ---------------------------------------


    POTLOK:  cpu time   16.5944: real time   16.6348
    SETDIJ:  cpu time    0.2592: real time    0.2598
    TRIAL :  cpu time   14.7095: real time   14.7810
    CORREC:  cpu time   31.1301: real time   31.2438
    CHARGE:  cpu time    1.8725: real time    1.8803
    --------------------------------------------
      LOOP:  cpu time   64.6059: real time   64.8427

 eigenvalue-minimisations  :     0
 total energy-change (2. order) :-0.5837936E-02  (-0.2449846E-02)
 number of electron      14.0000000 magnetization 
 augmentation part        0.6554000 magnetization 

 Free energy of the ion-electron system (eV)
  ---------------------------------------------------
  alpha Z        PSCENC =         0.01739895
  Ewald energy   TEWEN  =       575.22878681
  -Hartree energ DENC   =     -1106.46082865
  -exchange      EXHF   =       167.57715183
  -V(xc)+E(xc)   XCENC  =         0.00000000
  PAW double counting   =       775.98998180     -775.56594272
  entropy T*S    EENTRO =        -0.00000000
  eigenvalues    EBANDS =      -280.27918539
  atomic energy  EATOM  =       586.77302357
  ---------------------------------------------------
  free energy    TOTEN  =       -56.71961380 eV

  energy without entropy =      -56.71961380  energy(sigma->0) =      -56.71961380
  exchange ACFDT corr.  =        -0.00000000  see jH, gK, PRB 81, 115126


--------------------------------------------------------------------------------------------------------




----------------------------------------- Iteration    1(  30)  ---------------------------------------


    POTLOK:  cpu time   16.5814: real time   16.6217
    SETDIJ:  cpu time    0.2608: real time    0.2614
    TRIAL :  cpu time   14.7266: real time   14.7986
    CORREC:  cpu time   31.0947: real time   31.2085
    CHARGE:  cpu time    1.8774: real time    1.8853
    --------------------------------------------
      LOOP:  cpu time   64.5815: real time   64.8189

 eigenvalue-minimisations  :     0
 total energy-change (2. order) :-0.2421976E-02  (-0.1177772E-02)
 number of electron      14.0000000 magnetization 
 augmentation part        0.6565157 magnetization 

 Free energy of the ion-electron system (eV)
  ---------------------------------------------------
  alpha Z        PSCENC =         0.01739895
  Ewald energy   TEWEN  =       575.22878681
  -Hartree energ DENC   =     -1106.39636566
  -exchange      EXHF   =       167.57603145
  -V(xc)+E(xc)   XCENC  =         0.00000000
  PAW double counting   =       775.88405560     -775.45949551
  entropy T*S    EENTRO =        -0.00000000
  eigenvalues    EBANDS =      -280.34547099
  atomic energy  EATOM  =       586.77302357
  ---------------------------------------------------
  free energy    TOTEN  =       -56.72203578 eV

  energy without entropy =      -56.72203578  energy(sigma->0) =      -56.72203578
  exchange ACFDT corr.  =         0.00000000  see jH, gK, PRB 81, 115126


--------------------------------------------------------------------------------------------------------




----------------------------------------- Iteration    1(  31)  ---------------------------------------


    POTLOK:  cpu time   16.5735: real time   16.6139
    SETDIJ:  cpu time    0.2617: real time    0.2624
    TRIAL :  cpu time   14.7761: real time   14.8483
    CORREC:  cpu time   31.1226: real time   31.2361
    CHARGE:  cpu time    1.8830: real time    1.8909
    --------------------------------------------
      LOOP:  cpu time   64.6561: real time   64.8936

 eigenvalue-minimisations  :     0
 total energy-change (2. order) :-0.1127875E-02  (-0.5144613E-03)
 number of electron      14.0000000 magnetization 
 augmentation part        0.6555152 magnetization 

 Free energy of the ion-electron system (eV)
  ---------------------------------------------------
  alpha Z        PSCENC =         0.01739895
  Ewald energy   TEWEN  =       575.22878681
  -Hartree energ DENC   =     -1106.48055264
  -exchange      EXHF   =       167.58811717
  -V(xc)+E(xc)   XCENC  =         0.00000000
  PAW double counting   =       775.90652644     -775.48270735
  entropy T*S    EENTRO =        -0.00000000
  eigenvalues    EBANDS =      -280.27375661
  atomic energy  EATOM  =       586.77302357
  ---------------------------------------------------
  free energy    TOTEN  =       -56.72316366 eV

  energy without entropy =      -56.72316366  energy(sigma->0) =      -56.72316366
  exchange ACFDT corr.  =         0.00000000  see jH, gK, PRB 81, 115126


--------------------------------------------------------------------------------------------------------




----------------------------------------- Iteration    1(  32)  ---------------------------------------


    POTLOK:  cpu time   16.6140: real time   16.6543
    SETDIJ:  cpu time    0.2598: real time    0.2605
    TRIAL :  cpu time   14.7590: real time   14.8317
    CORREC:  cpu time   31.0784: real time   31.1922
    CHARGE:  cpu time    1.8789: real time    1.8865
    --------------------------------------------
      LOOP:  cpu time   64.6303: real time   64.8686

 eigenvalue-minimisations  :     0
 total energy-change (2. order) :-0.4985552E-03  (-0.2727906E-03)
 number of electron      14.0000000 magnetization 
 augmentation part        0.6561022 magnetization 

 Free energy of the ion-electron system (eV)
  ---------------------------------------------------
  alpha Z        PSCENC =         0.01739895
  Ewald energy   TEWEN  =       575.22878681
  -Hartree energ DENC   =     -1106.29757147
  -exchange      EXHF   =       167.56509656
  -V(xc)+E(xc)   XCENC  =         0.00000000
  PAW double counting   =       775.75649682     -775.33328604
  entropy T*S    EENTRO =        -0.00000000
  eigenvalues    EBANDS =      -280.43360741
  atomic energy  EATOM  =       586.77302357
  ---------------------------------------------------
  free energy    TOTEN  =       -56.72366221 eV

  energy without entropy =      -56.72366221  energy(sigma->0) =      -56.72366221
  exchange ACFDT corr.  =         0.00000000  see jH, gK, PRB 81, 115126


--------------------------------------------------------------------------------------------------------




----------------------------------------- Iteration    1(  33)  ---------------------------------------


    POTLOK:  cpu time   16.5850: real time   16.6253
    SETDIJ:  cpu time    0.2617: real time    0.2624
    TRIAL :  cpu time   14.7305: real time   14.8026
    CORREC:  cpu time   31.1632: real time   31.2769
    CHARGE:  cpu time    1.8782: real time    1.8860
    --------------------------------------------
      LOOP:  cpu time   64.6558: real time   64.8930

 eigenvalue-minimisations  :     0
 total energy-change (2. order) :-0.2724095E-03  (-0.1407913E-03)
 number of electron      14.0000000 magnetization 
 augmentation part        0.6562527 magnetization 

 Free energy of the ion-electron system (eV)
  ---------------------------------------------------
  alpha Z        PSCENC =         0.01739895
  Ewald energy   TEWEN  =       575.22878681
  -Hartree energ DENC   =     -1106.38972587
  -exchange      EXHF   =       167.57849923
  -V(xc)+E(xc)   XCENC  =         0.00000000
  PAW double counting   =       775.90441143     -775.48168964
  entropy T*S    EENTRO =        -0.00000000
  eigenvalues    EBANDS =      -280.35463910
  atomic energy  EATOM  =       586.77302357
  ---------------------------------------------------
  free energy    TOTEN  =       -56.72393462 eV

  energy without entropy =      -56.72393462  energy(sigma->0) =      -56.72393462
  exchange ACFDT corr.  =         0.00000000  see jH, gK, PRB 81, 115126


--------------------------------------------------------------------------------------------------------




----------------------------------------- Iteration    1(  34)  ---------------------------------------


    POTLOK:  cpu time   16.5895: real time   16.6299
    SETDIJ:  cpu time    0.2620: real time    0.2627
    TRIAL :  cpu time   14.8060: real time   14.8785
    CORREC:  cpu time   31.1047: real time   31.2186
    CHARGE:  cpu time    1.8789: real time    1.8869
    --------------------------------------------
      LOOP:  cpu time   64.6773: real time   64.9155

 eigenvalue-minimisations  :     0
 total energy-change (2. order) :-0.1382536E-03  (-0.6604172E-04)
 number of electron      14.0000000 magnetization 
 augmentation part        0.6558933 magnetization 

[...]
    CHARGE:  cpu time    1.8801: real time    1.8882
    --------------------------------------------
      LOOP:  cpu time   64.6184: real time   64.8571

 eigenvalue-minimisations  :     0
 total energy-change (2. order) :-0.1016964E-05  (-0.3497629E-06)
 number of electron      14.0000000 magnetization 
 augmentation part        0.6560663 magnetization 

 Free energy of the ion-electron system (eV)
  ---------------------------------------------------
  alpha Z        PSCENC =         0.01739895
  Ewald energy   TEWEN  =       575.22878681
  -Hartree energ DENC   =     -1106.38977312
  -exchange      EXHF   =       167.57707002
  -V(xc)+E(xc)   XCENC  =         0.00000000
  PAW double counting   =       775.91034990     -775.48780093
  entropy T*S    EENTRO =        -0.00000000
  eigenvalues    EBANDS =      -280.35325999
  atomic energy  EATOM  =       586.77302357
  ---------------------------------------------------
  free energy    TOTEN  =       -56.72420480 eV

  energy without entropy =      -56.72420480  energy(sigma->0) =      -56.72420480
  exchange ACFDT corr.  =         0.00000000  see jH, gK, PRB 81, 115126


--------------------------------------------------------------------------------------------------------




----------------------------------------- Iteration    1(  43)  ---------------------------------------


    POTLOK:  cpu time   16.5818: real time   16.6221
    SETDIJ:  cpu time    0.2629: real time    0.2635
    TRIAL :  cpu time   14.6992: real time   14.7712
    CORREC:  cpu time   31.0914: real time   31.2050
    CHARGE:  cpu time    1.8755: real time    1.8833
    --------------------------------------------
      LOOP:  cpu time   64.5523: real time   64.7897

 eigenvalue-minimisations  :     0
 total energy-change (2. order) :-0.3502511E-06  (-0.1888441E-06)
 number of electron      14.0000000 magnetization 
 augmentation part        0.6560927 magnetization 

 Free energy of the ion-electron system (eV)
  ---------------------------------------------------
  alpha Z        PSCENC =         0.01739895
  Ewald energy   TEWEN  =       575.22878681
  -Hartree energ DENC   =     -1106.38503047
  -exchange      EXHF   =       167.57648448
  -V(xc)+E(xc)   XCENC  =         0.00000000
  PAW double counting   =       775.90562954     -775.48307014
  entropy T*S    EENTRO =        -0.00000000
  eigenvalues    EBANDS =      -280.35742788
  atomic energy  EATOM  =       586.77302357
  ---------------------------------------------------
  free energy    TOTEN  =       -56.72420515 eV

  energy without entropy =      -56.72420515  energy(sigma->0) =      -56.72420515
  exchange ACFDT corr.  =         0.00000000  see jH, gK, PRB 81, 115126


--------------------------------------------------------------------------------------------------------




----------------------------------------- Iteration    1(  44)  ---------------------------------------


    POTLOK:  cpu time   16.5883: real time   16.6286
    SETDIJ:  cpu time    0.2598: real time    0.2604
    TRIAL :  cpu time   14.7245: real time   14.7972
    CORREC:  cpu time   31.0741: real time   31.1867
    CHARGE:  cpu time    1.8730: real time    1.8810
    --------------------------------------------
      LOOP:  cpu time   64.5585: real time   64.7956

 eigenvalue-minimisations  :     0
 total energy-change (2. order) :-0.1890137E-06  (-0.1070868E-06)
 number of electron      14.0000000 magnetization 
 augmentation part        0.6560820 magnetization 

 Free energy of the ion-electron system (eV)
  ---------------------------------------------------
  alpha Z        PSCENC =         0.01739895
  Ewald energy   TEWEN  =       575.22878681
  -Hartree energ DENC   =     -1106.38849164
  -exchange      EXHF   =       167.57694681
  -V(xc)+E(xc)   XCENC  =         0.00000000
  PAW double counting   =       775.90777859     -775.48521724
  entropy T*S    EENTRO =        -0.00000000
  eigenvalues    EBANDS =      -280.35443117
  atomic energy  EATOM  =       586.77302357
  ---------------------------------------------------
  free energy    TOTEN  =       -56.72420534 eV

  energy without entropy =      -56.72420534  energy(sigma->0) =      -56.72420534
  exchange ACFDT corr.  =         0.00000000  see jH, gK, PRB 81, 115126


--------------------------------------------------------------------------------------------------------




----------------------------------------- Iteration    1(  45)  ---------------------------------------


    POTLOK:  cpu time   16.5878: real time   16.6281
    SETDIJ:  cpu time    0.2592: real time    0.2598
    TRIAL :  cpu time   14.6777: real time   14.7494
    CORREC:  cpu time   31.1623: real time   31.2763
    CHARGE:  cpu time    1.8720: real time    1.8798
    --------------------------------------------
      LOOP:  cpu time   64.5970: real time   64.8344

 eigenvalue-minimisations  :     0
 total energy-change (2. order) :-0.1068208E-06  (-0.6715641E-07)
 number of electron      14.0000000 magnetization 
 augmentation part        0.6560847 magnetization 

 Free energy of the ion-electron system (eV)
  ---------------------------------------------------
  alpha Z        PSCENC =         0.01739895
  Ewald energy   TEWEN  =       575.22878681
  -Hartree energ DENC   =     -1106.38602585
  -exchange      EXHF   =       167.57660062
  -V(xc)+E(xc)   XCENC  =         0.00000000
  PAW double counting   =       775.90394247     -775.48137958
  entropy T*S    EENTRO =        -0.00000000
  eigenvalues    EBANDS =      -280.35655243
  atomic energy  EATOM  =       586.77302357
  ---------------------------------------------------
  free energy    TOTEN  =       -56.72420545 eV

  energy without entropy =      -56.72420545  energy(sigma->0) =      -56.72420545
  exchange ACFDT corr.  =        -0.00000000  see jH, gK, PRB 81, 115126


--------------------------------------------------------------------------------------------------------




----------------------------------------- Iteration    1(  46)  ---------------------------------------


    POTLOK:  cpu time   16.5739: real time   16.6142
    SETDIJ:  cpu time    0.2625: real time    0.2631
    TRIAL :  cpu time   14.7341: real time   14.8074
    CORREC:  cpu time   31.1284: real time   31.2420
    CHARGE:  cpu time    1.8728: real time    1.8806
    --------------------------------------------
      LOOP:  cpu time   64.6079: real time   64.8464

 eigenvalue-minimisations  :     0
 total energy-change (2. order) :-0.6692107E-07  (-0.2373897E-07)
 number of electron      14.0000000 magnetization 
 augmentation part        0.6560831 magnetization 

 Free energy of the ion-electron system (eV)
  ---------------------------------------------------
  alpha Z        PSCENC =         0.01739895
  Ewald energy   TEWEN  =       575.22878681
  -Hartree energ DENC   =     -1106.38712032
  -exchange      EXHF   =       167.57677401
  -V(xc)+E(xc)   XCENC  =         0.00000000
  PAW double counting   =       775.90538468     -775.48281999
  entropy T*S    EENTRO =        -0.00000000
  eigenvalues    EBANDS =      -280.35563323
  atomic energy  EATOM  =       586.77302357
  ---------------------------------------------------
  free energy    TOTEN  =       -56.72420551 eV

  energy without entropy =      -56.72420551  energy(sigma->0) =      -56.72420551
  exchange ACFDT corr.  =         0.00000000  see jH, gK, PRB 81, 115126


--------------------------------------------------------------------------------------------------------


  average scaling for gradient   0.4311


 average (electrostatic) potential at core
  the test charge radii are     0.6991  0.7215  0.5883
  (the norm of the test charge is              1.0000)
       1 -42.4502       2 -53.1543       3 -24.1979       4 -21.3550       5 -21.3383
       6 -21.3469
 
 
 
 E-fermi : -12.2368     XC(G=0):   0.0000     alpha+bet : -0.0067


 k-point     1 :       0.0000    0.0000    0.0000
  band No.  band energies     occupation 
      1     -37.0660      2.00000
      2     -25.1822      2.00000
      3     -18.8249      2.00000
      4     -16.9073      2.00000
      5     -16.1961      2.00000
      6     -13.7064      2.00000
      7     -12.2948      2.00000
      8       0.0120      0.00000
      9       0.1299      0.00000
     10       0.1369      0.00000
     11       0.1605      0.00000
     12       0.1685      0.00000


--------------------------------------------------------------------------------------------------------


 soft charge-density along one line, spin component           1
         0         1         2         3         4         5         6         7         8         9
 total charge-density along one line
 
 pseudopotential strength for first ion, spin component:           1
  9.221 -14.090   0.010   0.002   0.005   0.044   0.008   0.023
-14.090  24.334  -0.011  -0.002  -0.006  -0.086  -0.016  -0.045
  0.010  -0.011  -3.580  -0.003  -0.008  -0.648   0.013   0.030
  0.002  -0.002  -0.003  -3.563  -0.002   0.013  -0.713   0.007
  0.005  -0.006  -0.008  -0.002  -3.565   0.030   0.007  -0.705
  0.044  -0.086  -0.648   0.013   0.030  51.474  -0.025  -0.060
  0.008  -0.016   0.013  -0.713   0.007  -0.025  51.602  -0.014
  0.023  -0.045   0.030   0.007  -0.705  -0.060  -0.014  51.590
 total augmentation occupancy for first ion, spin component:           1
  1.554   0.058  -0.104  -0.019  -0.052  -0.001  -0.000  -0.001
  0.058   0.002   0.003   0.001   0.001   0.001   0.000   0.000
 -0.104   0.003   1.061  -0.043  -0.107   0.065   0.001   0.001
 -0.019   0.001  -0.043   1.283  -0.027   0.001   0.063   0.000
 -0.052   0.001  -0.107  -0.027   1.271   0.001   0.000   0.063
 -0.001   0.001   0.065   0.001   0.001   0.004   0.000   0.000
 -0.000   0.000   0.001   0.063   0.000   0.000   0.003   0.000
 -0.001   0.000   0.001   0.000   0.063   0.000   0.000   0.003


------------------------ aborting loop because EDIFF is reached ----------------------------------------


    FORLOC:  cpu time    1.3674: real time    1.3708
    FORHF :  cpu time    9.2781: real time    9.3020
    FORNL :  cpu time    0.5203: real time    0.5215
    OFIELD:  cpu time    0.1748: real time    0.1752

 VOLUME and BASIS-vectors are now :
 -----------------------------------------------------------------------------
  energy-cutoff  :     1600.00
  volume of cell :    42875.00
      direct lattice vectors                 reciprocal lattice vectors
    35.000000000  0.000000000  0.000000000     0.028571429  0.000000000  0.000000000
     0.000000000 35.000000000  0.000000000     0.000000000  0.028571429  0.000000000
     0.000000000  0.000000000 35.000000000     0.000000000  0.000000000  0.028571429

  length of vectors
    35.000000000 35.000000000 35.000000000     0.028571429  0.028571429  0.028571429


 FORCES acting on ions:
    Electron-Ion                     Ewald-Force                    Non-Local-Force
 -----------------------------------------------------------------------------------------------
   0.499E+02 0.117E+03 0.235E+02   -.527E+02 -.122E+03 -.244E+02   0.214E+01 0.456E+01 0.893E+00
   -.201E+02 -.169E+03 -.447E+02   -.645E+01 0.208E+03 0.615E+02   0.126E+02 -.170E+02 -.757E+01
   -.988E+02 -.123E+02 0.171E+02   0.106E+03 0.127E+02 -.186E+02   -.813E+01 -.536E-01 0.168E+01
   0.666E+02 0.106E+02 -.122E+02   -.725E+02 -.105E+02 0.136E+02   0.559E+01 -.661E-01 -.131E+01
   -.270E+00 0.270E+02 0.621E+02   0.759E+00 -.285E+02 -.678E+02   -.415E+00 0.149E+01 0.538E+01
   -.220E+02 0.552E+02 -.324E+02   0.246E+02 -.593E+02 0.358E+02   -.237E+01 0.401E+01 -.310E+01
 -----------------------------------------------------------------------------------------------
   -.247E+02 0.282E+02 0.134E+02   0.000E+00 -.142E-13 0.000E+00   0.942E+01 -.708E+01 -.403E+01
 
 
 POSITION                                       TOTAL-FORCE (eV/Angst)
 -----------------------------------------------------------------------------------
     33.84793     33.68871      0.01526        -0.299542      0.004245      0.083838
     34.36387     34.97672      0.28060         1.465230     -0.859191     -0.554124
      0.30810     34.95292      0.07646        -1.406353      0.315913      0.379952
     32.79005     33.70373      0.26396         0.266116      0.032974     -0.054647
     33.94339     33.40733     33.96381         0.032246      0.197868      0.251648
     34.32516     32.91373      0.62051        -0.057697      0.308190     -0.106668
 -----------------------------------------------------------------------------------
    total drift:                               -0.000084     -0.000300     -0.000633


--------------------------------------------------------------------------------------------------------



  FREE ENERGIE OF THE ION-ELECTRON SYSTEM (eV)
  ---------------------------------------------------
  free  energy   TOTEN  =       -56.72420551 eV

  energy  without entropy=      -56.72420551  energy(sigma->0) =      -56.72420551
 


--------------------------------------------------------------------------------------------------------


    POTLOK:  cpu time   16.8468: real time   16.8878


--------------------------------------------------------------------------------------------------------


     LOOP+:  cpu time 3306.3133: real time 3317.7954
    4ORBIT:  cpu time    0.0000: real time    0.0000

 total amount of memory used by VASP on root node  3966392. kBytes
========================================================================

   base      :      30000. kBytes
   nonl-proj :     158884. kBytes
   fftplans  :    1395487. kBytes
   grid      :    2325657. kBytes
   one-center:          4. kBytes
   HF        :         12. kBytes
   nonlr-proj:        272. kBytes
   wavefun   :      56076. kBytes
 
  
  
 General timing and accounting informations for this job:
 ========================================================
  
                  Total CPU time used (sec):     4065.008
                            User time (sec):     3704.167
                          System time (sec):      360.841
                         Elapsed time (sec):     4078.861
  
                   Maximum memory used (kb):     5644652.
                   Average memory used (kb):           0.
  
                          Minor page faults:      1251090
                          Major page faults:            6
                 Voluntary context switches:       372184
 
 PROFILE, used timers:      39
 =============================
 
 index                 routine                    time                            calls level
----------------------------------------------------------------------------------------------
    1    total_time                         4078.862332                                1   1
    2      w1_copy                               0.814371                            611   2
    3      fftwav_mpi                          103.052079                            486   2
    4      fftext_mpi                            0.399085                              3   2
    5      overl                                 0.000332                            395   2
    6      orth1                                 0.710594                            288   2
    7      lincom                                0.798107                            252   2
    8      eccp                                 15.524056                            384   2
    9      hamiltmu                             14.945059                             41   2
   10        vhamil                                3.113127                           61   3
   11        overl1                                0.000052                           61   3
   12        kinhamil                              8.371962                           61   3
   13          fftext_mpi                            8.290867                         61   4
   14      pdssyex_zheevx                        0.650809                             87   2
   15      fock_acc                            485.285585                             82   2
   16        w1_copy                               0.627664                          291   3
   17        fftwav_mpi                           31.348452                          291   3
   18        fock_charge_mu                       22.244994                          168   3
   19          racc0mu_hf                            0.183471                        168   4
   20        rpromu_hf                             0.985997                          168   3
   21        overl1                                0.000090                          123   3
   22        fftext_mpi                           10.071661                          123   3
   23      hamilt_local                         22.046458                            123   2
   24        vhamil                                5.830123                          123   3
   25        kinhamil                             16.216017                          123   3
   26          fftext_mpi                           16.051975                        123   4
   27      w1_dscal                              2.896744                            123   2
   28      eddiag                              511.564221                             41   2
   29        fock_acc                            481.206525                           82   3
   30          w1_copy                               0.520375                        289   4
   31          fftwav_mpi                           29.949336                        289   4
   32          fock_charge_mu                       22.017442                        166   4
   33            racc0mu_hf                            0.185013                      166   5
   34          rpromu_hf                             0.958016                        166   4
   35          overl1                                0.000077                        123   4
   36          fftext_mpi                            9.907942                        123   4
   37        fftwav_mpi                           24.898669                          123   3
   38        eccp                                  4.660750                          123   3
   39      rpro1_hf                              0.129844                             96   2
 
 Flat profile
 ============
 
             routine name                   CPU           calls
 ---------------------------------------------------------------
 total_time                           2920.044988           1
 fock_acc                              837.860062         164
 fftwav_mpi                            189.248536        1189
 fftext_mpi                             44.721530         433
 fock_charge_mu                         43.893951         334
 eccp                                   20.184807         507
 vhamil                                  8.943250         184
 hamiltmu                                3.459918          41
 w1_dscal                                2.896744         123
 w1_copy                                 1.962411        1191
 rpromu_hf                               1.944014         334
 eddiag                                  0.798277          41
 lincom                                  0.798107         252
 orth1                                   0.710594         288
 pdssyex_zheevx                          0.650809          87
 racc0mu_hf                              0.368484         334
 kinhamil                                0.245138         184
 rpro1_hf                                0.129844          96
 overl                                   0.000332         395
 hamilt_local                            0.000318         123
 overl1                                  0.000220         307
 ---------------------------------------------------------------
  summed up times    4078.86233186722     
 
Profiling took   0.007641  0.004409  0.003387  0.003363 seconds
Profiling took   0.003906 seconds
