 vasp.5.4.1 24Jun15 (build Jan 02 2020 16:21:29) gamma-only                     
  
 executed on           IFC15_impi date 2020.05.12  16:21:22
 running on   32 total cores
 distrk:  each k-point on   32 cores,    1 groups
 distr:  one band on NCORES_PER_BAND=   8 cores,    4 groups


--------------------------------------------------------------------------------------------------------


 INCAR:
 POTCAR:    PAW_PBE N_GW 10Apr2007                
 POTCAR:    PAW_PBE C_GW 28Sep2005                
 POTCAR:    PAW_PBE H_GW 21Apr2008                
 POTCAR:    PAW_PBE N_GW 10Apr2007                
   VRHFIN =N: s2p3                                                              
   LEXCH  = PE                                                                  
   EATOM  =   264.5486 eV,   19.4438 Ry                                         
                                                                                
   TITEL  = PAW_PBE N_GW 10Apr2007                                              
   LULTRA =        F    use ultrasoft PP ?                                      
   IUNSCR =        0    unscreen: 0-lin 1-nonlin 2-no                           
   RPACOR =    0.000    partial core radius                                     
   POMASS =   14.001; ZVAL   =    5.000    mass and valenz                      
   RCORE  =    1.500    outmost cutoff radius                                   
   RWIGS  =    1.400; RWIGS  =    0.741    wigner-seitz radius (au A)           
   ENMAX  =  420.902; ENMIN  =  315.677 eV                                      
   ICORE  =        2    local potential                                         
   LCOR   =        T    correct aug charges                                     
   LPAW   =        T    paw PP                                                  
   EAUG   =  904.640                                                            
   DEXC   =    0.000                                                            
   RMAX   =    1.529    core radius for proj-oper                               
   RAUG   =    1.300    factor for augmentation sphere                          
   RDEP   =    1.514    radius for radial grids                                 
   RDEPT  =    1.100    core radius for aug-charge                              
                                                                                
   Atomic configuration                                                         
    4 entries                                                                   
     n  l   j            E        occ.                                          
     1  0  0.50      -384.7179   2.0000                                         
     2  0  0.50       -18.5828   2.0000                                         
     2  1  0.50        -7.0898   3.0000                                         
     3  2  1.50        -8.1635   0.0000                                         
   Description                                                                  
     l       E           TYP  RCUT    TYP  RCUT                                 
     0    -18.5828120     23  1.300                                             
     0     81.6349560     23  1.300                                             
     1     -7.0897854     23  1.500                                             
     1     81.6349560     23  1.500                                             
     2     -8.1634956      7  1.500                                             
  local pseudopotential read in
  kinetic energy density of atom read in
  atomic valenz-charges read in
  non local Contribution for L=           0  read in
    real space projection operators read in
  non local Contribution for L=           0  read in
    real space projection operators read in
  non local Contribution for L=           1  read in
    real space projection operators read in
  non local Contribution for L=           1  read in
    real space projection operators read in
    PAW grid and wavefunctions read in
 
   number of l-projection  operators is LMAX  =           4
   number of lm-projection operators is LMMAX =           8
 
 POTCAR:    PAW_PBE C_GW 28Sep2005                
   VRHFIN =C: s2p2                                                              
   LEXCH  = PE                                                                  
   EATOM  =   147.1560 eV,   10.8157 Ry                                         
                                                                                
   TITEL  = PAW_PBE C_GW 28Sep2005                                              
   LULTRA =        F    use ultrasoft PP ?                                      
   IUNSCR =        0    unscreen: 0-lin 1-nonlin 2-no                           
   RPACOR =    0.000    partial core radius                                     
   POMASS =   12.011; ZVAL   =    4.000    mass and valenz                      
   RCORE  =    1.500    outmost cutoff radius                                   
   RWIGS  =    1.630; RWIGS  =    0.863    wigner-seitz radius (au A)           
   ENMAX  =  413.992; ENMIN  =  310.494 eV                                      
   ICORE  =        2    local potential                                         
   LCOR   =        T    correct aug charges                                     
   LPAW   =        T    paw PP                                                  
   EAUG   =  644.873                                                            
   DEXC   =    0.000                                                            
   RMAX   =    1.529    core radius for proj-oper                               
   RAUG   =    1.300    factor for augmentation sphere                          
   RDEP   =    1.501    radius for radial grids                                 
   RDEPT  =    1.300    core radius for aug-charge                              
                                                                                
   Atomic configuration                                                         
    4 entries                                                                   
     n  l   j            E        occ.                                          
     1  0  0.50      -273.3789   2.0000                                         
     2  0  0.50       -13.7508   2.0000                                         
     2  1  0.50        -5.2854   2.0000                                         
     3  2  1.50        -5.4423   0.0000                                         
   Description                                                                  
     l       E           TYP  RCUT    TYP  RCUT                                 
     0    -13.7508457     23  1.200                                             
     0     95.2407820     23  1.200                                             
     1     -5.2854382     23  1.500                                             
     1    108.8466080     23  1.500                                             
     2     -5.4423304      7  1.500                                             
  local pseudopotential read in
  kinetic energy density of atom read in
  atomic valenz-charges read in
  non local Contribution for L=           0  read in
    real space projection operators read in
  non local Contribution for L=           0  read in
    real space projection operators read in
  non local Contribution for L=           1  read in
    real space projection operators read in
  non local Contribution for L=           1  read in
    real space projection operators read in
    PAW grid and wavefunctions read in
 
   number of l-projection  operators is LMAX  =           4
   number of lm-projection operators is LMMAX =           8
 
 POTCAR:    PAW_PBE H_GW 21Apr2008                
   VRHFIN =H: ultrasoft test                                                    
   LEXCH  = PE                                                                  
   EATOM  =    12.4884 eV,    0.9179 Ry                                         
                                                                                
   TITEL  = PAW_PBE H_GW 21Apr2008                                              
   LULTRA =        F    use ultrasoft PP ?                                      
   IUNSCR =        0    unscreen: 0-lin 1-nonlin 2-no                           
   RPACOR =    0.000    partial core radius                                     
   POMASS =    1.000; ZVAL   =    1.000    mass and valenz                      
   RCORE  =    1.100    outmost cutoff radius                                   
   RWIGS  =    1.100; RWIGS  =    0.582    wigner-seitz radius (au A)           
   ENMAX  =  300.000; ENMIN  =  250.000 eV                                      
   RCLOC  =    0.701    cutoff for local pot                                    
   LCOR   =        T    correct aug charges                                     
   LPAW   =        T    paw PP                                                  
   EAUG   =  500.000                                                            
   RMAX   =    1.123    core radius for proj-oper                               
   RAUG   =    1.200    factor for augmentation sphere                          
   RDEP   =    1.112    radius for radial grids                                 
   RDEPT  =    1.100    core radius for aug-charge                              
                                                                                
   Atomic configuration                                                         
    3 entries                                                                   
     n  l   j            E        occ.                                          
     1  0  0.50        -6.4927   1.0000                                         
     2  1  0.50        -3.4015   0.0000                                         
     3  2  1.50        13.6058   0.0000                                         
   Description                                                                  
     l       E           TYP  RCUT    TYP  RCUT                                 
     0     -6.4927495     23  0.950                                             
     0      6.8029130     23  0.950                                             
     1     -4.0817478     23  1.100                                             
     1    108.8466080     23  1.100                                             
     2     81.6349560     23  1.100                                             
  local pseudopotential read in
  kinetic energy density of atom read in
  atomic valenz-charges read in
  non local Contribution for L=           0  read in
    real space projection operators read in
  non local Contribution for L=           0  read in
    real space projection operators read in
  non local Contribution for L=           1  read in
    real space projection operators read in
  non local Contribution for L=           1  read in
    real space projection operators read in
  non local Contribution for L=           2  read in
    real space projection operators read in
    PAW grid and wavefunctions read in
 
   number of l-projection  operators is LMAX  =           5
   number of lm-projection operators is LMMAX =          13
 
  PAW_PBE N_GW 10Apr2007                :
 energy of atom  1       EATOM= -264.5486
 kinetic energy error for atom=    0.0003 (will be added to EATOM!!)
  PAW_PBE C_GW 28Sep2005                :
 energy of atom  2       EATOM= -147.1560
 kinetic energy error for atom=    0.0002 (will be added to EATOM!!)
  PAW_PBE H_GW 21Apr2008                :
 energy of atom  3       EATOM=  -12.4884
 kinetic energy error for atom=    0.0000 (will be added to EATOM!!)
 
 
 POSCAR: N C H                                   
  positions in cartesian coordinates
  No initial velocities read in
 exchange correlation table for  LEXCH =        8
   RHO(1)=    0.500       N(1)  =     2000
   RHO(2)=  100.500       N(2)  =     4000
 


--------------------------------------------------------------------------------------------------------


 ion  position               nearest neighbor table
   1  0.035  0.001  0.009-   2 1.34   6 1.34
   2  0.017  0.967  0.004-   7 1.08   1 1.34   3 1.39
   3  0.979  0.963  0.997-   8 1.08   4 1.39   2 1.39
   4  0.956  0.995  0.996-   9 1.08   5 1.39   3 1.39
   5  0.973  0.031  0.001-  10 1.08   4 1.39   6 1.39
   6  0.012  0.032  0.007-  11 1.08   1 1.34   5 1.39
   7  0.036  0.942  0.006-   2 1.08
   8  0.967  0.934  0.994-   3 1.08
   9  0.925  0.993  0.990-   4 1.08
  10  0.957  0.057  1.000-   5 1.08
  11  0.026  0.059  0.011-   6 1.08
 
  LATTYP: Found a simple cubic cell.
 ALAT       =    35.0000000000
  
  Lattice vectors:
  
 A1 = (  35.0000000000,   0.0000000000,   0.0000000000)
 A2 = (   0.0000000000,  35.0000000000,   0.0000000000)
 A3 = (   0.0000000000,   0.0000000000,  35.0000000000)


Analysis of symmetry for initial positions (statically):
=====================================================================
 Subroutine PRICEL returns:
 Original cell was already a primitive cell.
 

 Routine SETGRP: Setting up the symmetry group for a 
 simple cubic supercell.


 Subroutine GETGRP returns: Found  1 space group operations
 (whereof  1 operations were pure point group operations)
 out of a pool of 48 trial point group operations.


The static configuration has the point symmetry C_1 .


Analysis of symmetry for dynamics (positions and initial velocities):
=====================================================================
 Subroutine PRICEL returns:
 Original cell was already a primitive cell.
 

 Routine SETGRP: Setting up the symmetry group for a 
 simple cubic supercell.


 Subroutine GETGRP returns: Found  1 space group operations
 (whereof  1 operations were pure point group operations)
 out of a pool of 48 trial point group operations.


The dynamic configuration has the point symmetry C_1 .
 
 
 KPOINTS: automatic mesh                          

Automatic generation of k-mesh.
Space group operators:
 irot       det(A)        alpha          n_x          n_y          n_z        tau_x        tau_y        tau_z
    1     1.000000     0.000000     1.000000     0.000000     0.000000     0.000000     0.000000     0.000000
 
 Subroutine IBZKPT returns following result:
 ===========================================
 
 Found      1 irreducible k-points:
 
 Following reciprocal coordinates:
            Coordinates               Weight
  0.000000  0.000000  0.000000      1.000000
 
 Following cartesian coordinates:
            Coordinates               Weight
  0.000000  0.000000  0.000000      1.000000
 
 
 Subroutine IBZKPT_HF returns following result:
 ==============================================
 
 Found      1 k-points in 1st BZ
 the following      1 k-points will be used (e.g. in the exchange kernel)
 Following reciprocal coordinates:   # in IRBZ
  0.000000  0.000000  0.000000    1.00000000   1 t-inv F


--------------------------------------------------------------------------------------------------------




 Dimension of arrays:
   k-points           NKPTS =      1   k-points in BZ     NKDIM =      1   number of bands    NBANDS=     24
   number of dos      NEDOS =    301   number of ions     NIONS =     11
   non local maximal  LDIM  =      5   non local SUM 2l+1 LMDIM =     13
   total plane-waves  NPLWV = ******
   max r-space proj   IRMAX =      1   max aug-charges    IRDMAX=  30635
   dimension x,y,z NGX =   480 NGY =  480 NGZ =  480
   dimension x,y,z NGXF=   960 NGYF=  960 NGZF=  960
   support grid    NGXF=   960 NGYF=  960 NGZF=  960
   ions per type =               1   5   5
 NGX,Y,Z   is equivalent  to a cutoff of  22.80, 22.80, 22.80 a.u.
 NGXF,Y,Z  is equivalent  to a cutoff of  45.60, 45.60, 45.60 a.u.


 I would recommend the setting:
   dimension x,y,z NGX =   457 NGY =  457 NGZ =  457
 SYSTEM =  C                                       
 POSCAR =  N C H                                   

 Startparameter for this run:
   NWRITE =      2    write-flag & timer
   PREC   = accura    normal or accurate (medium, high low for compatibility)
   ISTART =      1    job   : 0-new  1-cont  2-samecut
   ICHARG =      0    charge: 1-file 2-atom 10-const
   ISPIN  =      1    spin polarized calculation?
   LNONCOLLINEAR =      F non collinear calculations
   LSORBIT =      F    spin-orbit coupling
   INIWAV =      1    electr: 0-lowe 1-rand  2-diag
   LASPH  =      T    aspherical Exc in radial PAW
   METAGGA=      F    non-selfconsistent MetaGGA calc.

 Electronic Relaxation 1
   ENCUT  = 1600.0 eV 117.60 Ry   10.84 a.u. 114.15114.15114.15*2*pi/ulx,y,z
   ENINI  = 1600.0     initial cutoff
   ENAUG  =  904.6 eV  augmentation charge cutoff
   NELM   =     60;   NELMIN=  2; NELMDL=  0     # of ELM steps 
   EDIFF  = 0.1E-06   stopping-criterion for ELM
   LREAL  =      F    real-space projection
   NLSPLINE    = F    spline interpolate recip. space projectors
   LCOMPAT=      F    compatible to vasp.4.4
   GGA_COMPAT  = T    GGA compatible to vasp.4.4-vasp.4.6
   LMAXPAW     = -100 max onsite density
   LMAXMIX     =    2 max onsite mixed and CHGCAR
   VOSKOWN=      0    Vosko Wilk Nusair interpolation
   ROPT   =    0.00000   0.00000   0.00000
 Ionic relaxation
   EDIFFG = 0.1E-05   stopping-criterion for IOM
   NSW    =      0    number of steps for IOM
   NBLOCK =      1;   KBLOCK =      1    inner block; outer block 
   IBRION =     -1    ionic relax: 0-MD 1-quasi-New 2-CG
   NFREE  =      0    steps in history (QN), initial steepest desc. (CG)
   ISIF   =      0    stress and relaxation
   IWAVPR =     10    prediction:  0-non 1-charg 2-wave 3-comb
   ISYM   =      3    0-nonsym 1-usesym 2-fastsym
   LCORR  =      T    Harris-Foulkes like correction to forces

   POTIM  = 0.5000    time-step for ionic-motion
   TEIN   =    0.0    initial temperature
   TEBEG  =    0.0;   TEEND  =   0.0 temperature during run
   SMASS  =  -3.00    Nose mass-parameter (am)
   estimated Nose-frequenzy (Omega)   =  0.10E-29 period in steps =****** mass=  -0.280E-25a.u.
   SCALEE = 1.0000    scale energy and forces
   NPACO  =    256;   APACO  = 16.0  distance and # of slots for P.C.
   PSTRESS=    0.0 pullay stress

  Mass of Ions in am
   POMASS =  14.00 12.01  1.00
  Ionic Valenz
   ZVAL   =   5.00  4.00  1.00
  Atomic Wigner-Seitz radii
   RWIGS  =  -1.00 -1.00 -1.00
  virtual crystal weights 
   VCA    =   1.00  1.00  1.00
   NELECT =      30.0000    total number of electrons
   NUPDOWN=      -1.0000    fix difference up-down

 DOS related values:
   EMIN   =  10.00;   EMAX   =-10.00  energy-range for DOS
   EFERMI =   0.00
   ISMEAR =     0;   SIGMA  =   0.01  broadening in eV -4-tet -1-fermi 0-gaus

 Electronic relaxation 2 (details)
   IALGO  =     58    algorithm
   LDIAG  =      T    sub-space diagonalisation (order eigenvalues)
   LSUBROT=      F    optimize rotation matrix (better conditioning)
   TURBO    =      0    0=normal 1=particle mesh
   IRESTART =      0    0=no restart 2=restart with 2 vectors
   NREBOOT  =      0    no. of reboots
   NMIN     =      0    reboot dimension
   EREF     =   0.00    reference energy to select bands
   IMIX   =      4    mixing-type and parameters
     AMIX     =   0.40;   BMIX     =  1.00
     AMIX_MAG =   1.60;   BMIX_MAG =  1.00
     AMIN     =   0.10
     WC   =   100.;   INIMIX=   1;  MIXPRE=   1;  MAXMIX= -45

 Intra band minimization:
   WEIMIN = 0.0000     energy-eigenvalue tresh-hold
   EBREAK =  0.10E-08  absolut break condition
   DEPER  =   0.30     relativ break condition  

   TIME   =   0.40     timestep for ELM

  volume/ion in A,a.u.               =    3897.73     26303.16
  Fermi-wavevector in a.u.,A,eV,Ry     =   0.145338  0.274650  0.287399  0.021123
  Thomas-Fermi vector in A             =   0.812913
 
 Write flags
   LWAVE  =      F    write WAVECAR
   LCHARG =      T    write CHGCAR
   LVTOT  =      F    write LOCPOT, total local potential
   LVHAR  =      F    write LOCPOT, Hartree potential only
   LELF   =      F    write electronic localiz. function (ELF)
   LORBIT =      0    0 simple, 1 ext, 2 COOP (PROOUT)


 Dipole corrections
   LMONO  =      F    monopole corrections only (constant potential shift)
   LDIPOL =      F    correct potential (dipole corrections)
   IDIPOL =      0    1-x, 2-y, 3-z, 4-all directions 
   EPSILON=  1.0000000 bulk dielectric constant

 Exchange correlation treatment:
   GGA     =    --    GGA type
   LEXCH   =     8    internal setting for exchange type
   VOSKOWN=      0    Vosko Wilk Nusair interpolation
   EXXOEP  =     0    0=HF, 1=EXX-LHF (local Hartree Fock) 2=EXX OEP
   LHFCALC =     T    Hartree Fock is set to
   LSYMGRAD=     F    symmetrize gradient (conserves proper symmetry)
   PRECFOCK=normal    Normal, Fast or Accurate (Low or Medium for compatibility)
   LRHFCALC=     F    long range Hartree Fock
   LRSCOR  =     F    long range correlation only (use DFT for short range part)
   LTHOMAS =     F    Thomas Fermi screening in HF
   LMODELHF=     F    short range full HF, long range fraction AEXX
   ENCUT4O =  -1.0   cutoff for four orbital integrals eV
   LMAXFOCK=     4    L truncation for augmentation on plane wave grid
   LMAXFOCKAE=  -1    L truncation for all-electron charge restoration on plane wave grid
   NMAXFOCKAE=   1    number of basis functions for all-electron charge restoration
   LFOCKAEDFT=     F  apply the AE augmentation even for DFT
   NKREDX  =     1    reduce k-point grid by
   NKREDY  =     1    reduce k-point grid by
   NKREDZ  =     1    reduce k-point grid by
   SHIFTRED=     F    shift reduced grid of Gamma
   HFKIDENT=     F    idential grid for each k-point
   ODDONLY =     F    use only odd q-grid points
   EVENONLY=     F    use only even q-grid points
   HFALPHA =   -1.0000 decay constant for conv. correction
   MCALPHA =    0.0000 extent of test-charge in conv. correction in multipole expansion
   AEXX    =    1.0000 exact exchange contribution
   HFSCREEN=    0.0000 screening length (either q_TF or 0.3 A-1)
   HFSCREENC=   0.0000 screening length for correlation (either q_TF or 0.3 A-1)
   HFRCUT  =    0.0000 spherical cutoff for potential kernel
   ALDAX   =    0.0000 LDA exchange part
   AGGAX   =    0.0000 GGA exchange part
   ALDAC   =    0.0000 LDA correlation
   AGGAC   =    0.0000 GGA correlation
   NBANDSGWLOW=     1    first orbital included in HF term
   ENCUTFOCK=  -1.0 apply spherical cutoff to Coloumb kernel
 Linear response parameters
   LEPSILON=     F    determine dielectric tensor
   LRPA    =     F    only Hartree local field effects (RPA)
   LNABLA  =     F    use nabla operator in PAW spheres
   LVEL    =     F    velocity operator in full k-point grid
   LINTERFAST=   F  fast interpolation
   KINTER  =     0    interpolate to denser k-point grid
   CSHIFT  =0.1000    complex shift for real part using Kramers Kronig
   OMEGAMAX=  -1.0    maximum frequency
   DEG_THRESHOLD= 0.2000000E-02 threshold for treating states as degnerate
   RTIME   =    0.100 relaxation time in fs

 Orbital magnetization related:
   ORBITALMAG=     F  switch on orbital magnetization
   LCHIMAG   =     F  perturbation theory with respect to B field
   DQ        =  0.001000  dq finite difference perturbation B field



--------------------------------------------------------------------------------------------------------


 Static calculation
 charge density and potential will be updated during run
 non-spin polarized calculation
 Conjugate gradient for all bands (Freysoldt, et al. PRB 79, 241103 (2009))
 preconditioned conjugated gradient                                        
 perform sub-space diagonalisation
    before iterative eigenvector-optimisation
 modified Broyden-mixing scheme, WC =      100.0
 initial mixing is a Kerker type mixing with AMIX =  0.4000 and BMIX =      1.0000
 Hartree-type preconditioning will be used
 using additional bands            9
 reciprocal scheme for non local part
 no Harris-corrections to forces 
 use gradient corrections 
 use of overlap-Matrix (Vanderbilt PP)
 Gauss-broadening in eV      SIGMA  =   0.01


--------------------------------------------------------------------------------------------------------


  energy-cutoff  :     1600.00
  volume of cell :    42875.00
      direct lattice vectors                 reciprocal lattice vectors
    35.000000000  0.000000000  0.000000000     0.028571429  0.000000000  0.000000000
     0.000000000 35.000000000  0.000000000     0.000000000  0.028571429  0.000000000
     0.000000000  0.000000000 35.000000000     0.000000000  0.000000000  0.028571429

  length of vectors
    35.000000000 35.000000000 35.000000000     0.028571429  0.028571429  0.028571429


 
 old parameters found on file WAVECAR:
  energy-cutoff  :     1600.00
  volume of cell :    42875.00
      direct lattice vectors                 reciprocal lattice vectors
    35.000000000  0.000000000  0.000000000     0.028571429  0.000000000  0.000000000
     0.000000000 35.000000000  0.000000000     0.000000000  0.028571429  0.000000000
     0.000000000  0.000000000 35.000000000     0.000000000  0.000000000  0.028571429

  length of vectors

 
 k-points in units of 2pi/SCALE and weight: automatic mesh                          
   0.00000000  0.00000000  0.00000000       1.000
 
 k-points in reciprocal lattice and weights: automatic mesh                          
   0.00000000  0.00000000  0.00000000       1.000
 
 position of ions in fractional coordinates (direct lattice) 
   0.03459301  0.00081931  0.00942032
   0.01748386  0.96690146  0.00438434
   0.97853389  0.96261001  0.99746188
   0.95577521  0.99514456  0.99552952
   0.97303936  0.03058960  0.00056637
   0.01222053  0.03188882  0.00735282
   0.03575651  0.94201362  0.00626551
   0.96655955  0.93437516  0.99390334
   0.92539964  0.99297272  0.99032126
   0.95660531  0.05670001  0.99966731
   0.02641984  0.05908719  0.01135851
 
 position of ions in cartesian coordinates  (Angst):
   1.21075534  0.02867578  0.32971111
   0.61193497 33.84155099  0.15345176
  34.24868601 33.69135044 34.91116593
  33.45213233 34.83005973 34.84353309
  34.05637763  1.07063612  0.01982310
   0.42771857  1.11610863  0.25734879
   1.25147790 32.97047660  0.21929295
  33.82958423 32.70313068 34.78661680
  32.38898725 34.75404531 34.66124426
  33.48118570  1.98450028 34.98835597
   0.92469451  2.06805173  0.39754798
 


--------------------------------------------------------------------------------------------------------


 use parallel FFT for wavefunctions z direction half grid
 k-point  1 :   0.0000 0.0000 0.0000  plane waves: 3115599

 maximum and minimum number of plane-waves per node :    389462   389421

 maximum number of plane-waves:   3115599
 maximum index in each direction: 
   IXMAX=  114   IYMAX=  114   IZMAX=  114
   IXMIN= -114   IYMIN= -114   IZMIN=    0

 NGX is ok and might be reduce to 458
 NGY is ok and might be reduce to 458
 NGZ is ok and might be reduce to 458

 parallel 3D FFT for wavefunctions:
    minimum data exchange during FFTs selected (reduces bandwidth)
 parallel 3D FFT for charge:
    minimum data exchange during FFTs selected (reduces bandwidth)


 FFT grid for exact exchange (Hartree Fock) 
  NGX =350; NGY =350; NGZ =350

 use parallel FFT for wavefunctions z direction half grid
 
 Radii for the augmentation spheres in the non-local exchange
 for species   1 augmentation radius   0.738 (default was   0.590)
       energy cutoff for augmentation   6400.0
 for species   2 augmentation radius   0.874 (default was   0.699)
       energy cutoff for augmentation   6400.0
 for species   3 augmentation radius   0.735 (default was   0.588)
       energy cutoff for augmentation   6400.0

 real space projection operators:
  total allocation   :       2728.74 KBytes
  max/ min on nodes  :        356.49        324.58

 Maximum index for augmentation-charges in exchange          404
  SETUP_FOCK is finished

 total amount of memory used by VASP on root node  4053850. kBytes
========================================================================

   base      :      30000. kBytes
   nonl-proj :     190038. kBytes
   fftplans  :    1395487. kBytes
   grid      :    2325657. kBytes
   one-center:          8. kBytes
   HF        :         67. kBytes
   nonlr-proj:        438. kBytes
   wavefun   :     112155. kBytes
 
     INWAV:  cpu time    3.7035: real time    3.7590
 Broyden mixing: mesh for mixing (old mesh)
   NGX =229   NGY =229   NGZ =229
  (NGX  =960   NGY  =960   NGZ  =960)
  gives a total of ****** points

 charge density for first step will be calculated from the start-wavefunctions


--------------------------------------------------------------------------------------------------------


 Maximum index for augmentation-charges         1035 (set IRDMAX)


--------------------------------------------------------------------------------------------------------


 initial charge from wavefunction
 FEWALD executed in parallel
    FEWALD:  cpu time    0.0004: real time    0.0004


----------------------------------------- Iteration    1(   1)  ---------------------------------------


    POTLOK:  cpu time   15.6915: real time   15.7355
    SETDIJ:  cpu time    0.1381: real time    0.1385
    TRIAL :  cpu time   43.9503: real time   44.1364
    CORREC:  cpu time   57.5676: real time   57.7912
    CHARGE:  cpu time    2.3333: real time    2.3428
    --------------------------------------------
      LOOP:  cpu time  119.7769: real time  120.2422

 eigenvalue-minimisations  :     0
 total energy-change (2. order) :-0.1236084E+03  (-0.8601073E+00)
 number of electron      30.0000000 magnetization 
 augmentation part        0.3243200 magnetization 

 Free energy of the ion-electron system (eV)
  ---------------------------------------------------
  alpha Z        PSCENC =         0.09503522
  Ewald energy   TEWEN  =      2320.35387723
  -Hartree energ DENC   =     -3173.70491841
  -exchange      EXHF   =       318.84907429
  -V(xc)+E(xc)   XCENC  =         0.00000000
  PAW double counting   =      1490.37262861    -1490.74157376
  entropy T*S    EENTRO =        -0.00000000
  eigenvalues    EBANDS =      -560.41082957
  atomic energy  EATOM  =       971.57827146
  ---------------------------------------------------
  free energy    TOTEN  =      -123.60843493 eV

  energy without entropy =     -123.60843493  energy(sigma->0) =     -123.60843493
  exchange ACFDT corr.  =        -0.00000000  see jH, gK, PRB 81, 115126


--------------------------------------------------------------------------------------------------------




----------------------------------------- Iteration    1(   2)  ---------------------------------------


    POTLOK:  cpu time   15.6194: real time   15.6618
    SETDIJ:  cpu time    0.1366: real time    0.1372
    TRIAL :  cpu time   48.1613: real time   48.3577
    CORREC:  cpu time   58.8821: real time   59.1080
    CHARGE:  cpu time    2.3700: real time    2.3793
    --------------------------------------------
      LOOP:  cpu time  125.1817: real time  125.6593

 eigenvalue-minimisations  :     0
 total energy-change (2. order) :-0.8601988E+00  (-0.2492909E+00)
 number of electron      30.0000000 magnetization 
 augmentation part        0.3497022 magnetization 

 Free energy of the ion-electron system (eV)
  ---------------------------------------------------
  alpha Z        PSCENC =         0.09503522
  Ewald energy   TEWEN  =      2320.35387723
  -Hartree energ DENC   =     -3154.05401756
  -exchange      EXHF   =       317.79899050
  -V(xc)+E(xc)   XCENC  =         0.00000000
  PAW double counting   =      1473.75357057    -1474.27371076
  entropy T*S    EENTRO =        -0.00000000
  eigenvalues    EBANDS =      -579.72065038
  atomic energy  EATOM  =       971.57827146
  ---------------------------------------------------
  free energy    TOTEN  =      -124.46863373 eV

  energy without entropy =     -124.46863373  energy(sigma->0) =     -124.46863373
  exchange ACFDT corr.  =         0.00000000  see jH, gK, PRB 81, 115126


--------------------------------------------------------------------------------------------------------




----------------------------------------- Iteration    1(   3)  ---------------------------------------


    POTLOK:  cpu time   16.3970: real time   16.4420
    SETDIJ:  cpu time    0.2592: real time    0.2598
    TRIAL :  cpu time   45.0533: real time   45.2417
    CORREC:  cpu time   58.9176: real time   59.1431
    CHARGE:  cpu time    2.3681: real time    2.3776
    --------------------------------------------
      LOOP:  cpu time  122.9994: real time  123.4714

 eigenvalue-minimisations  :     0
 total energy-change (2. order) :-0.2509439E+00  (-0.6412752E-01)
 number of electron      30.0000000 magnetization 
 augmentation part        0.3670649 magnetization 

 Free energy of the ion-electron system (eV)
  ---------------------------------------------------
  alpha Z        PSCENC =         0.09503522
  Ewald energy   TEWEN  =      2320.35387723
  -Hartree energ DENC   =     -3167.03323287
  -exchange      EXHF   =       319.94291193
  -V(xc)+E(xc)   XCENC  =         0.00000000
  PAW double counting   =      1489.33043342    -1489.80572580
  entropy T*S    EENTRO =        -0.00000000
  eigenvalues    EBANDS =      -569.18114821
  atomic energy  EATOM  =       971.57827146
  ---------------------------------------------------
  free energy    TOTEN  =      -124.71957763 eV

  energy without entropy =     -124.71957763  energy(sigma->0) =     -124.71957763
  exchange ACFDT corr.  =        -0.00000000  see jH, gK, PRB 81, 115126


--------------------------------------------------------------------------------------------------------




----------------------------------------- Iteration    1(   4)  ---------------------------------------


    POTLOK:  cpu time   16.3988: real time   16.4435
    SETDIJ:  cpu time    0.2560: real time    0.2570
    TRIAL :  cpu time   45.0554: real time   45.2422
    CORREC:  cpu time   59.0539: real time   59.2795
    CHARGE:  cpu time    2.3747: real time    2.3844
    --------------------------------------------
      LOOP:  cpu time  123.1434: real time  123.6822

 eigenvalue-minimisations  :     0
 total energy-change (2. order) :-0.6413385E-01  (-0.1580049E-01)
 number of electron      30.0000000 magnetization 
 augmentation part        0.3697187 magnetization 

 Free energy of the ion-electron system (eV)
  ---------------------------------------------------
  alpha Z        PSCENC =         0.09503522
  Ewald energy   TEWEN  =      2320.35387723
  -Hartree energ DENC   =     -3163.47162085
  -exchange      EXHF   =       319.70767125
  -V(xc)+E(xc)   XCENC  =         0.00000000
  PAW double counting   =      1483.00709091    -1483.48214502
  entropy T*S    EENTRO =        -0.00000000
  eigenvalues    EBANDS =      -572.57189167
  atomic energy  EATOM  =       971.57827146
  ---------------------------------------------------
  free energy    TOTEN  =      -124.78371147 eV

  energy without entropy =     -124.78371147  energy(sigma->0) =     -124.78371147
  exchange ACFDT corr.  =        -0.00000000  see jH, gK, PRB 81, 115126


--------------------------------------------------------------------------------------------------------




----------------------------------------- Iteration    1(   5)  ---------------------------------------


    POTLOK:  cpu time   16.4048: real time   16.4495
    SETDIJ:  cpu time    0.2547: real time    0.2553
    TRIAL :  cpu time   45.3307: real time   45.5197
    CORREC:  cpu time   58.9281: real time   59.1546
    CHARGE:  cpu time    2.3739: real time    2.3832
    --------------------------------------------
      LOOP:  cpu time  123.2943: real time  123.7672

 eigenvalue-minimisations  :     0
 total energy-change (2. order) :-0.1579706E-01  (-0.8070303E-02)
 number of electron      30.0000000 magnetization 
 augmentation part        0.3683764 magnetization 

 Free energy of the ion-electron system (eV)
  ---------------------------------------------------
  alpha Z        PSCENC =         0.09503522
  Ewald energy   TEWEN  =      2320.35387723
  -Hartree energ DENC   =     -3162.11991002
  -exchange      EXHF   =       319.60453441
  -V(xc)+E(xc)   XCENC  =         0.00000000
  PAW double counting   =      1480.97259119    -1481.44827017
  entropy T*S    EENTRO =        -0.00000000
  eigenvalues    EBANDS =      -573.83563787
  atomic energy  EATOM  =       971.57827146
  ---------------------------------------------------
  free energy    TOTEN  =      -124.79950854 eV

  energy without entropy =     -124.79950854  energy(sigma->0) =     -124.79950854
  exchange ACFDT corr.  =         0.00000000  see jH, gK, PRB 81, 115126


--------------------------------------------------------------------------------------------------------




----------------------------------------- Iteration    1(   6)  ---------------------------------------


    POTLOK:  cpu time   16.4036: real time   16.4485
    SETDIJ:  cpu time    0.2546: real time    0.2552
    TRIAL :  cpu time   45.2675: real time   45.4548
    CORREC:  cpu time   58.9117: real time   59.1371
    CHARGE:  cpu time    2.3629: real time    2.3723
    --------------------------------------------
      LOOP:  cpu time  123.2011: real time  123.6712

 eigenvalue-minimisations  :     0
 total energy-change (2. order) :-0.8081905E-02  (-0.2394643E-02)
 number of electron      30.0000000 magnetization 
 augmentation part        0.3675451 magnetization 

 Free energy of the ion-electron system (eV)
  ---------------------------------------------------
  alpha Z        PSCENC =         0.09503522
  Ewald energy   TEWEN  =      2320.35387723
  -Hartree energ DENC   =     -3163.37017556
  -exchange      EXHF   =       319.81506538
  -V(xc)+E(xc)   XCENC  =         0.00000000
  PAW double counting   =      1483.00196491    -1483.47471279
  entropy T*S    EENTRO =        -0.00000000
  eigenvalues    EBANDS =      -572.80691629
  atomic energy  EATOM  =       971.57827146
  ---------------------------------------------------
  free energy    TOTEN  =      -124.80759044 eV

  energy without entropy =     -124.80759044  energy(sigma->0) =     -124.80759044
  exchange ACFDT corr.  =         0.00000000  see jH, gK, PRB 81, 115126


--------------------------------------------------------------------------------------------------------




----------------------------------------- Iteration    1(   7)  ---------------------------------------


    POTLOK:  cpu time   16.3916: real time   16.4362
    SETDIJ:  cpu time    0.2568: real time    0.2577
    TRIAL :  cpu time   45.3375: real time   45.5268
    CORREC:  cpu time   59.1088: real time   59.3356
    CHARGE:  cpu time    2.3691: real time    2.3784
    --------------------------------------------
      LOOP:  cpu time  123.4699: real time  123.9439

 eigenvalue-minimisations  :     0
 total energy-change (2. order) :-0.2394984E-02  (-0.1362438E-02)
 number of electron      30.0000000 magnetization 
 augmentation part        0.3680111 magnetization 

 Free energy of the ion-electron system (eV)
  ---------------------------------------------------
  alpha Z        PSCENC =         0.09503522
  Ewald energy   TEWEN  =      2320.35387723
  -Hartree energ DENC   =     -3163.70732651
  -exchange      EXHF   =       319.87897889
  -V(xc)+E(xc)   XCENC  =         0.00000000
  PAW double counting   =      1483.71723521    -1484.19091214
  entropy T*S    EENTRO =        -0.00000000
  eigenvalues    EBANDS =      -572.53514478
  atomic energy  EATOM  =       971.57827146
  ---------------------------------------------------
  free energy    TOTEN  =      -124.80998543 eV

  energy without entropy =     -124.80998543  energy(sigma->0) =     -124.80998543
  exchange ACFDT corr.  =         0.00000000  see jH, gK, PRB 81, 115126


--------------------------------------------------------------------------------------------------------




----------------------------------------- Iteration    1(   8)  ---------------------------------------


    POTLOK:  cpu time   16.4005: real time   16.4453
    SETDIJ:  cpu time    0.2547: real time    0.2556
    TRIAL :  cpu time   45.0480: real time   45.2365
    CORREC:  cpu time   59.0731: real time   59.2965
    CHARGE:  cpu time    2.3726: real time    2.3822
    --------------------------------------------
      LOOP:  cpu time  123.1555: real time  123.6255

 eigenvalue-minimisations  :     0
 total energy-change (2. order) :-0.1365690E-02  (-0.7891382E-03)
 number of electron      30.0000000 magnetization 
 augmentation part        0.3689697 magnetization 

 Free energy of the ion-electron system (eV)
  ---------------------------------------------------
  alpha Z        PSCENC =         0.09503522
  Ewald energy   TEWEN  =      2320.35387723
  -Hartree energ DENC   =     -3163.67919798
  -exchange      EXHF   =       319.88446927
  -V(xc)+E(xc)   XCENC  =         0.00000000
  PAW double counting   =      1483.87414582    -1484.34849958
  entropy T*S    EENTRO =        -0.00000000
  eigenvalues    EBANDS =      -572.56945256
  atomic energy  EATOM  =       971.57827146
  ---------------------------------------------------
  free energy    TOTEN  =      -124.81135112 eV

  energy without entropy =     -124.81135112  energy(sigma->0) =     -124.81135112
  exchange ACFDT corr.  =         0.00000000  see jH, gK, PRB 81, 115126


--------------------------------------------------------------------------------------------------------




----------------------------------------- Iteration    1(   9)  ---------------------------------------


    POTLOK:  cpu time   16.4642: real time   16.5091
    SETDIJ:  cpu time    0.2622: real time    0.2628
    TRIAL :  cpu time   45.3797: real time   45.5694
    CORREC:  cpu time   59.1931: real time   59.4192
    CHARGE:  cpu time    2.3334: real time    2.3431
    --------------------------------------------
      LOOP:  cpu time  123.6371: real time  124.1109

 eigenvalue-minimisations  :     0
 total energy-change (2. order) :-0.7926813E-03  (-0.4396809E-03)
 number of electron      30.0000000 magnetization 
 augmentation part        0.3690337 magnetization 

 Free energy of the ion-electron system (eV)
  ---------------------------------------------------
  alpha Z        PSCENC =         0.09503522
  Ewald energy   TEWEN  =      2320.35387723
  -Hartree energ DENC   =     -3163.55994087
  -exchange      EXHF   =       319.86932060
  -V(xc)+E(xc)   XCENC  =         0.00000000
  PAW double counting   =      1483.72665712    -1484.19963547
  entropy T*S    EENTRO =        -0.00000000
  eigenvalues    EBANDS =      -572.67572908
  atomic energy  EATOM  =       971.57827146
  ---------------------------------------------------
  free energy    TOTEN  =      -124.81214380 eV

  energy without entropy =     -124.81214380  energy(sigma->0) =     -124.81214380
  exchange ACFDT corr.  =        -0.00000000  see jH, gK, PRB 81, 115126


--------------------------------------------------------------------------------------------------------




----------------------------------------- Iteration    1(  10)  ---------------------------------------


    POTLOK:  cpu time   16.4903: real time   16.5352
    SETDIJ:  cpu time    0.2630: real time    0.2639
    TRIAL :  cpu time   45.1532: real time   45.3429
    CORREC:  cpu time   59.3102: real time   59.5382
    CHARGE:  cpu time    2.3286: real time    2.3383
    --------------------------------------------
      LOOP:  cpu time  123.5874: real time  124.0638

 eigenvalue-minimisations  :     0
 total energy-change (2. order) :-0.4413016E-03  (-0.3084873E-03)
 number of electron      30.0000000 magnetization 
 augmentation part        0.3687877 magnetization 

 Free energy of the ion-electron system (eV)
  ---------------------------------------------------
  alpha Z        PSCENC =         0.09503522
  Ewald energy   TEWEN  =      2320.35387723
  -Hartree energ DENC   =     -3163.46926725
  -exchange      EXHF   =       319.85332680
  -V(xc)+E(xc)   XCENC  =         0.00000000
  PAW double counting   =      1483.60434146    -1484.07695647
  entropy T*S    EENTRO =        -0.00000000
  eigenvalues    EBANDS =      -572.75121355
  atomic energy  EATOM  =       971.57827146
  ---------------------------------------------------
  free energy    TOTEN  =      -124.81258510 eV

  energy without entropy =     -124.81258510  energy(sigma->0) =     -124.81258510
  exchange ACFDT corr.  =         0.00000000  see jH, gK, PRB 81, 115126


--------------------------------------------------------------------------------------------------------




----------------------------------------- Iteration    1(  11)  ---------------------------------------


    POTLOK:  cpu time   16.5367: real time   16.5818
    SETDIJ:  cpu time    0.2516: real time    0.2525
    TRIAL :  cpu time   45.1212: real time   45.3101
    CORREC:  cpu time   59.3606: real time   59.5857
    CHARGE:  cpu time    2.3339: real time    2.3432
    --------------------------------------------
      LOOP:  cpu time  123.6437: real time  124.1156

 eigenvalue-minimisations  :     0
 total energy-change (2. order) :-0.3098137E-03  (-0.1981748E-03)
 number of electron      30.0000000 magnetization 
 augmentation part        0.3686976 magnetization 

 Free energy of the ion-electron system (eV)
  ---------------------------------------------------
  alpha Z        PSCENC =         0.09503522
  Ewald energy   TEWEN  =      2320.35387723
  -Hartree energ DENC   =     -3163.51450597
  -exchange      EXHF   =       319.85404585
  -V(xc)+E(xc)   XCENC  =         0.00000000
  PAW double counting   =      1483.72780852    -1484.20066620
  entropy T*S    EENTRO =        -0.00000000
  eigenvalues    EBANDS =      -572.70676103
  atomic energy  EATOM  =       971.57827146
  ---------------------------------------------------
  free energy    TOTEN  =      -124.81289491 eV

  energy without entropy =     -124.81289491  energy(sigma->0) =     -124.81289491
  exchange ACFDT corr.  =         0.00000000  see jH, gK, PRB 81, 115126


--------------------------------------------------------------------------------------------------------




----------------------------------------- Iteration    1(  12)  ---------------------------------------


    POTLOK:  cpu time   16.5082: real time   16.5532
    SETDIJ:  cpu time    0.2594: real time    0.2603
    TRIAL :  cpu time   45.1686: real time   45.3567
    CORREC:  cpu time   59.1479: real time   59.3757
    CHARGE:  cpu time    2.3260: real time    2.3357
    --------------------------------------------
      LOOP:  cpu time  123.4476: real time  123.9220

 eigenvalue-minimisations  :     0
 total energy-change (2. order) :-0.1989981E-03  (-0.1201975E-03)
 number of electron      30.0000000 magnetization 
 augmentation part        0.3687375 magnetization 

 Free energy of the ion-electron system (eV)
  ---------------------------------------------------
  alpha Z        PSCENC =         0.09503522
  Ewald energy   TEWEN  =      2320.35387723
  -Hartree energ DENC   =     -3163.61412227
  -exchange      EXHF   =       319.86662492
  -V(xc)+E(xc)   XCENC  =         0.00000000
  PAW double counting   =      1483.92850463    -1484.40140001
  entropy T*S    EENTRO =        -0.00000000
  eigenvalues    EBANDS =      -572.61988508
  atomic energy  EATOM  =       971.57827146
  ---------------------------------------------------
  free energy    TOTEN  =      -124.81309391 eV

  energy without entropy =     -124.81309391  energy(sigma->0) =     -124.81309391
  exchange ACFDT corr.  =         0.00000000  see jH, gK, PRB 81, 115126


--------------------------------------------------------------------------------------------------------




----------------------------------------- Iteration    1(  13)  ---------------------------------------


    POTLOK:  cpu time   16.5028: real time   16.5477
    SETDIJ:  cpu time    0.2593: real time    0.2602
    TRIAL :  cpu time   45.1002: real time   45.2890
    CORREC:  cpu time   59.0814: real time   59.3079
    CHARGE:  cpu time    2.3274: real time    2.3371
    --------------------------------------------
      LOOP:  cpu time  123.3125: real time  123.7868

 eigenvalue-minimisations  :     0
 total energy-change (2. order) :-0.1204110E-03  (-0.6550298E-04)
 number of electron      30.0000000 magnetization 
 augmentation part        0.3688156 magnetization 

 Free energy of the ion-electron system (eV)
  ---------------------------------------------------
  alpha Z        PSCENC =         0.09503522
  Ewald energy   TEWEN  =      2320.35387723
  -Hartree energ DENC   =     -3163.60958260
  -exchange      EXHF   =       319.86978645
  -V(xc)+E(xc)   XCENC  =         0.00000000
  PAW double counting   =      1483.93189418    -1484.40472145
  entropy T*S    EENTRO =        -0.00000000
  eigenvalues    EBANDS =      -572.62777481
  atomic energy  EATOM  =       971.57827146
  ---------------------------------------------------
  free energy    TOTEN  =      -124.81321432 eV

  energy without entropy =     -124.81321432  energy(sigma->0) =     -124.81321432
  exchange ACFDT corr.  =         0.00000000  see jH, gK, PRB 81, 115126


--------------------------------------------------------------------------------------------------------




----------------------------------------- Iteration    1(  14)  ---------------------------------------


    POTLOK:  cpu time   16.5118: real time   16.5568
    SETDIJ:  cpu time    0.2559: real time    0.2565
    TRIAL :  cpu time   44.9683: real time   45.1572
    CORREC:  cpu time   59.1476: real time   59.3745
    CHARGE:  cpu time    2.3207: real time    2.3301
    --------------------------------------------
      LOOP:  cpu time  123.2464: real time  123.7204

 eigenvalue-minimisations  :     0
 total energy-change (2. order) :-0.6541933E-04  (-0.3299500E-04)
 number of electron      30.0000000 magnetization 
 augmentation part        0.3688182 magnetization 

 Free energy of the ion-electron system (eV)
  ---------------------------------------------------
  alpha Z        PSCENC =         0.09503522
  Ewald energy   TEWEN  =      2320.35387723
  -Hartree energ DENC   =     -3163.58615749
  -exchange      EXHF   =       319.86973709
  -V(xc)+E(xc)   XCENC  =         0.00000000
  PAW double counting   =      1483.85890513    -1484.33164204
  entropy T*S    EENTRO =        -0.00000000
  eigenvalues    EBANDS =      -572.65130633
  atomic energy  EATOM  =       971.57827146
  ---------------------------------------------------
  free energy    TOTEN  =      -124.81327974 eV

  energy without entropy =     -124.81327974  energy(sigma->0) =     -124.81327974
  exchange ACFDT corr.  =         0.00000000  see jH, gK, PRB 81, 115126


--------------------------------------------------------------------------------------------------------




----------------------------------------- Iteration    1(  15)  ---------------------------------------


    POTLOK:  cpu time   16.7792: real time   16.8251
    SETDIJ:  cpu time    0.2562: real time    0.2568
    TRIAL :  cpu time   45.0230: real time   45.2110
    CORREC:  cpu time   59.3242: real time   59.5514
    CHARGE:  cpu time    2.3372: real time    2.3469
    --------------------------------------------
      LOOP:  cpu time  123.7603: real time  124.2345

 eigenvalue-minimisations  :     0
 total energy-change (2. order) :-0.3296157E-04  (-0.1507540E-04)
 number of electron      30.0000000 magnetization 
 augmentation part        0.3687721 magnetization 

 Free energy of the ion-electron system (eV)
  ---------------------------------------------------
  alpha Z        PSCENC =         0.09503522
  Ewald energy   TEWEN  =      2320.35387723
  -Hartree energ DENC   =     -3163.58567458
  -exchange      EXHF   =       319.87084612
  -V(xc)+E(xc)   XCENC  =         0.00000000
  PAW double counting   =      1483.80336371    -1484.27604215
  entropy T*S    EENTRO =        -0.00000000
  eigenvalues    EBANDS =      -572.65298971
  atomic energy  EATOM  =       971.57827146
  ---------------------------------------------------
  free energy    TOTEN  =      -124.81331270 eV

  energy without entropy =     -124.81331270  energy(sigma->0) =     -124.81331270
  exchange ACFDT corr.  =         0.00000000  see jH, gK, PRB 81, 115126


--------------------------------------------------------------------------------------------------------




----------------------------------------- Iteration    1(  16)  ---------------------------------------


    POTLOK:  cpu time   16.5628: real time   16.6079
    SETDIJ:  cpu time    0.2611: real time    0.2617
    TRIAL :  cpu time   45.1371: real time   45.3261
    CORREC:  cpu time   59.0380: real time   59.2653
    CHARGE:  cpu time    2.3341: real time    2.3435
    --------------------------------------------
      LOOP:  cpu time  123.3582: real time  123.8325

 eigenvalue-minimisations  :     0
 total energy-change (2. order) :-0.1506776E-04  (-0.6849799E-05)
 number of electron      30.0000000 magnetization 
 augmentation part        0.3687427 magnetization 

 Free energy of the ion-electron system (eV)
  ---------------------------------------------------
  alpha Z        PSCENC =         0.09503522
  Ewald energy   TEWEN  =      2320.35387723
  -Hartree energ DENC   =     -3163.59547567
  -exchange      EXHF   =       319.87249169
  -V(xc)+E(xc)   XCENC  =         0.00000000
  PAW double counting   =      1483.78841064    -1484.26106086
  entropy T*S    EENTRO =        -0.00000000
  eigenvalues    EBANDS =      -572.64487748
  atomic energy  EATOM  =       971.57827146
  ---------------------------------------------------
  free energy    TOTEN  =      -124.81332777 eV

  energy without entropy =     -124.81332777  energy(sigma->0) =     -124.81332777
  exchange ACFDT corr.  =         0.00000000  see jH, gK, PRB 81, 115126


--------------------------------------------------------------------------------------------------------




----------------------------------------- Iteration    1(  17)  ---------------------------------------


    POTLOK:  cpu time   16.5621: real time   16.6075
    SETDIJ:  cpu time    0.2626: real time    0.2632
    TRIAL :  cpu time   45.0808: real time   45.2694
    CORREC:  cpu time   59.1054: real time   59.3315
    CHARGE:  cpu time    2.3368: real time    2.3462
    --------------------------------------------
      LOOP:  cpu time  123.3740: real time  123.8473

 eigenvalue-minimisations  :     0
 total energy-change (2. order) :-0.6845848E-05  (-0.3501483E-05)
 number of electron      30.0000000 magnetization 
 augmentation part        0.3687569 magnetization 

 Free energy of the ion-electron system (eV)
  ---------------------------------------------------
  alpha Z        PSCENC =         0.09503522
  Ewald energy   TEWEN  =      2320.35387723
  -Hartree energ DENC   =     -3163.60036441
  -exchange      EXHF   =       319.87324825
  -V(xc)+E(xc)   XCENC  =         0.00000000
  PAW double counting   =      1483.79125318    -1484.26390594
  entropy T*S    EENTRO =        -0.00000000
  eigenvalues    EBANDS =      -572.64074960
  atomic energy  EATOM  =       971.57827146
  ---------------------------------------------------
  free energy    TOTEN  =      -124.81333462 eV

  energy without entropy =     -124.81333462  energy(sigma->0) =     -124.81333462
  exchange ACFDT corr.  =         0.00000000  see jH, gK, PRB 81, 115126


--------------------------------------------------------------------------------------------------------




----------------------------------------- Iteration    1(  18)  ---------------------------------------


    POTLOK:  cpu time   16.5658: real time   16.6112
    SETDIJ:  cpu time    0.2551: real time    0.2558
    TRIAL :  cpu time   45.1646: real time   45.3534
    CORREC:  cpu time   59.0150: real time   59.2418
    CHARGE:  cpu time    2.3301: real time    2.3394
    --------------------------------------------
      LOOP:  cpu time  123.3573: real time  123.8314

 eigenvalue-minimisations  :     0
 total energy-change (2. order) :-0.3500411E-05  (-0.1937742E-05)
 number of electron      30.0000000 magnetization 
 augmentation part        0.3687808 magnetization 

 Free energy of the ion-electron system (eV)
  ---------------------------------------------------
  alpha Z        PSCENC =         0.09503522
  Ewald energy   TEWEN  =      2320.35387723
  -Hartree energ DENC   =     -3163.60033615
  -exchange      EXHF   =       319.87329334
  -V(xc)+E(xc)   XCENC  =         0.00000000
  PAW double counting   =      1483.79475029    -1484.26738439
  entropy T*S    EENTRO =        -0.00000000
  eigenvalues    EBANDS =      -572.64084511
  atomic energy  EATOM  =       971.57827146
  ---------------------------------------------------
  free energy    TOTEN  =      -124.81333812 eV

  energy without entropy =     -124.81333812  energy(sigma->0) =     -124.81333812
  exchange ACFDT corr.  =         0.00000000  see jH, gK, PRB 81, 115126


--------------------------------------------------------------------------------------------------------




----------------------------------------- Iteration    1(  19)  ---------------------------------------


    POTLOK:  cpu time   16.5685: real time   16.6139
    SETDIJ:  cpu time    0.2565: real time    0.2571
    TRIAL :  cpu time   45.0404: real time   45.2270
    CORREC:  cpu time   59.1523: real time   59.3794
    CHARGE:  cpu time    2.3331: real time    2.3427
    --------------------------------------------
      LOOP:  cpu time  123.3777: real time  123.8500

 eigenvalue-minimisations  :     0
 total energy-change (2. order) :-0.1937555E-05  (-0.1007430E-05)
 number of electron      30.0000000 magnetization 
 augmentation part        0.3687819 magnetization 

 Free energy of the ion-electron system (eV)
  ---------------------------------------------------
  alpha Z        PSCENC =         0.09503522
  Ewald energy   TEWEN  =      2320.35387723
  -Hartree energ DENC   =     -3163.59912978
  -exchange      EXHF   =       319.87328806
  -V(xc)+E(xc)   XCENC  =         0.00000000
  PAW double counting   =      1483.79839470    -1484.27099394
  entropy T*S    EENTRO =        -0.00000000
  eigenvalues    EBANDS =      -572.64208300
  atomic energy  EATOM  =       971.57827146
  ---------------------------------------------------
  free energy    TOTEN  =      -124.81334006 eV

  energy without entropy =     -124.81334006  energy(sigma->0) =     -124.81334006
  exchange ACFDT corr.  =         0.00000000  see jH, gK, PRB 81, 115126


--------------------------------------------------------------------------------------------------------




----------------------------------------- Iteration    1(  20)  ---------------------------------------


    POTLOK:  cpu time   16.5494: real time   16.5944
    SETDIJ:  cpu time    0.2676: real time    0.2685
    TRIAL :  cpu time   45.2189: real time   45.4079
    CORREC:  cpu time   59.0615: real time   59.2887
    CHARGE:  cpu time    2.3291: real time    2.3387
    --------------------------------------------
      LOOP:  cpu time  123.4552: real time  123.9298

 eigenvalue-minimisations  :     0
 total energy-change (2. order) :-0.1007395E-05  (-0.4773247E-06)
 number of electron      30.0000000 magnetization 
 augmentation part        0.3687731 magnetization 

 Free energy of the ion-electron system (eV)
  ---------------------------------------------------
  alpha Z        PSCENC =         0.09503522
  Ewald energy   TEWEN  =      2320.35387723
  -Hartree energ DENC   =     -3163.59827337
  -exchange      EXHF   =       319.87334831
  -V(xc)+E(xc)   XCENC  =         0.00000000
  PAW double counting   =      1483.80310288    -1484.27570245
  entropy T*S    EENTRO =        -0.00000000
  eigenvalues    EBANDS =      -572.64300033
  atomic energy  EATOM  =       971.57827146
  ---------------------------------------------------
  free energy    TOTEN  =      -124.81334106 eV

  energy without entropy =     -124.81334106  energy(sigma->0) =     -124.81334106
  exchange ACFDT corr.  =         0.00000000  see jH, gK, PRB 81, 115126


--------------------------------------------------------------------------------------------------------




----------------------------------------- Iteration    1(  21)  ---------------------------------------


    POTLOK:  cpu time   16.5960: real time   16.6412
    SETDIJ:  cpu time    0.2604: real time    0.2613
    TRIAL :  cpu time   45.1802: real time   45.3680
    CORREC:  cpu time   59.2274: real time   59.4550
    CHARGE:  cpu time    2.3253: real time    2.3345
    --------------------------------------------
      LOOP:  cpu time  123.6202: real time  124.0939

 eigenvalue-minimisations  :     0
 total energy-change (2. order) :-0.4773883E-06  (-0.2340794E-06)
 number of electron      30.0000000 magnetization 
 augmentation part        0.3687700 magnetization 

 Free energy of the ion-electron system (eV)
  ---------------------------------------------------
  alpha Z        PSCENC =         0.09503522
  Ewald energy   TEWEN  =      2320.35387723
  -Hartree energ DENC   =     -3163.59823079
  -exchange      EXHF   =       319.87345209
  -V(xc)+E(xc)   XCENC  =         0.00000000
  PAW double counting   =      1483.80716088    -1484.27977562
  entropy T*S    EENTRO =        -0.00000000
  eigenvalues    EBANDS =      -572.64313201
  atomic energy  EATOM  =       971.57827146
  ---------------------------------------------------
  free energy    TOTEN  =      -124.81334154 eV

  energy without entropy =     -124.81334154  energy(sigma->0) =     -124.81334154
  exchange ACFDT corr.  =         0.00000000  see jH, gK, PRB 81, 115126


--------------------------------------------------------------------------------------------------------




----------------------------------------- Iteration    1(  22)  ---------------------------------------


    POTLOK:  cpu time   16.5595: real time   16.6049
    SETDIJ:  cpu time    0.2550: real time    0.2556
    TRIAL :  cpu time   45.1357: real time   45.3232
    CORREC:  cpu time   59.1511: real time   59.3772
    CHARGE:  cpu time    2.3378: real time    2.3475
    --------------------------------------------
      LOOP:  cpu time  123.4668: real time  123.9385

 eigenvalue-minimisations  :     0
 total energy-change (2. order) :-0.2341192E-06  (-0.1227151E-06)
 number of electron      30.0000000 magnetization 
 augmentation part        0.3687719 magnetization 

 Free energy of the ion-electron system (eV)
  ---------------------------------------------------
  alpha Z        PSCENC =         0.09503522
  Ewald energy   TEWEN  =      2320.35387723
  -Hartree energ DENC   =     -3163.59912437
  -exchange      EXHF   =       319.87361461
  -V(xc)+E(xc)   XCENC  =         0.00000000
  PAW double counting   =      1483.80993935    -1484.28255860
  entropy T*S    EENTRO =        -0.00000000
  eigenvalues    EBANDS =      -572.64239666
  atomic energy  EATOM  =       971.57827146
  ---------------------------------------------------
  free energy    TOTEN  =      -124.81334177 eV

  energy without entropy =     -124.81334177  energy(sigma->0) =     -124.81334177
  exchange ACFDT corr.  =         0.00000000  see jH, gK, PRB 81, 115126


--------------------------------------------------------------------------------------------------------




----------------------------------------- Iteration    1(  23)  ---------------------------------------


    POTLOK:  cpu time   16.5459: real time   16.5910
    SETDIJ:  cpu time    0.2684: real time    0.2694
    TRIAL :  cpu time   45.0437: real time   45.2326
    CORREC:  cpu time   59.0318: real time   59.2573
    CHARGE:  cpu time    2.3358: real time    2.3454
    --------------------------------------------
      LOOP:  cpu time  123.2549: real time  123.7281

 eigenvalue-minimisations  :     0
 total energy-change (2. order) :-0.1225724E-06  (-0.6089548E-07)
 number of electron      30.0000000 magnetization 
 augmentation part        0.3687740 magnetization 

 Free energy of the ion-electron system (eV)
  ---------------------------------------------------
  alpha Z        PSCENC =         0.09503522
  Ewald energy   TEWEN  =      2320.35387723
  -Hartree energ DENC   =     -3163.60016971
  -exchange      EXHF   =       319.87375930
  -V(xc)+E(xc)   XCENC  =         0.00000000
  PAW double counting   =      1483.81113088    -1484.28374554
  entropy T*S    EENTRO =        -0.00000000
  eigenvalues    EBANDS =      -572.64150073
  atomic energy  EATOM  =       971.57827146
  ---------------------------------------------------
  free energy    TOTEN  =      -124.81334190 eV

  energy without entropy =     -124.81334190  energy(sigma->0) =     -124.81334190
  exchange ACFDT corr.  =         0.00000000  see jH, gK, PRB 81, 115126


--------------------------------------------------------------------------------------------------------




----------------------------------------- Iteration    1(  24)  ---------------------------------------


    POTLOK:  cpu time   16.5491: real time   16.5941
    SETDIJ:  cpu time    0.2696: real time    0.2702
    TRIAL :  cpu time   45.2795: real time   45.4695
    CORREC:  cpu time   59.1698: real time   59.3967
    CHARGE:  cpu time    2.3376: real time    2.3473
    --------------------------------------------
      LOOP:  cpu time  123.6348: real time  124.1104

 eigenvalue-minimisations  :     0
 total energy-change (2. order) :-0.6075902E-07  (-0.3385950E-07)
 number of electron      30.0000000 magnetization 
 augmentation part        0.3687743 magnetization 

 Free energy of the ion-electron system (eV)
  ---------------------------------------------------
  alpha Z        PSCENC =         0.09503522
  Ewald energy   TEWEN  =      2320.35387723
  -Hartree energ DENC   =     -3163.60059892
  -exchange      EXHF   =       319.87381740
  -V(xc)+E(xc)   XCENC  =         0.00000000
  PAW double counting   =      1483.81086797    -1484.28347899
  entropy T*S    EENTRO =        -0.00000000
  eigenvalues    EBANDS =      -572.64113333
  atomic energy  EATOM  =       971.57827146
  ---------------------------------------------------
  free energy    TOTEN  =      -124.81334196 eV

  energy without entropy =     -124.81334196  energy(sigma->0) =     -124.81334196
  exchange ACFDT corr.  =         0.00000000  see jH, gK, PRB 81, 115126


--------------------------------------------------------------------------------------------------------


  average scaling for gradient   1.2017


 average (electrostatic) potential at core
  the test charge radii are     0.5902  0.6991  0.5883
  (the norm of the test charge is              1.0000)
       1 -49.4542       2 -42.6668       3 -41.8172       4 -42.2937       5 -41.8181
       6 -42.6676       7 -21.8779       8 -22.0837       9 -22.2936      10 -22.0916
      11 -21.8696
 
 
 
 E-fermi :  -9.3775     XC(G=0):   0.0000     alpha+bet : -0.0169


 k-point     1 :       0.0000    0.0000    0.0000
  band No.  band energies     occupation 
      1     -34.1962      2.00000
      2     -29.6606      2.00000
      3     -28.1324      2.00000
      4     -23.3997      2.00000
      5     -23.2809      2.00000
      6     -19.6465      2.00000
      7     -17.9637      2.00000
      8     -17.8164      2.00000
      9     -16.2878      2.00000
     10     -15.6984      2.00000
     11     -14.7317      2.00000
     12     -14.1502      2.00000
     13     -11.4131      2.00000
     14     -10.4589      2.00000
     15      -9.4840      2.00000
     16       0.0116      0.00000
     17       0.1298      0.00000
     18       0.1325      0.00000
     19       0.1352      0.00000
     20       0.1383      0.00000
     21       0.1444      0.00000
     22       0.1595      0.00000
     23       1.3264      0.00000
     24       1.7408      0.00000


--------------------------------------------------------------------------------------------------------


 soft charge-density along one line, spin component           1
         0         1         2         3         4         5         6         7         8         9
 total charge-density along one line
 
 pseudopotential strength for first ion, spin component:           1
 10.867  -9.536  -0.001  -0.003  -0.016  -0.022  -0.054  -0.302
 -9.536  11.377  -0.002  -0.005  -0.025   0.032   0.078   0.434
 -0.001  -0.002  -4.824   0.003   0.010  -2.853  -0.008  -0.023
 -0.003  -0.005   0.003  -4.845   0.028  -0.008  -2.797  -0.068
 -0.016  -0.025   0.010   0.028  -4.692  -0.023  -0.068  -3.169
 -0.022   0.032  -2.853  -0.008  -0.023  44.767   0.017   0.035
 -0.054   0.078  -0.008  -2.797  -0.068   0.017  44.602   0.119
 -0.302   0.434  -0.023  -0.068  -3.169   0.035   0.119  45.255
 total augmentation occupancy for first ion, spin component:           1
  1.831   0.063   0.010   0.026   0.145  -0.003  -0.006  -0.034
  0.063   0.004  -0.003  -0.008  -0.044  -0.000  -0.001  -0.004
  0.010  -0.003   1.476   0.024   0.016   0.123   0.003  -0.004
  0.026  -0.008   0.024   1.125   0.108   0.003   0.066   0.002
  0.145  -0.044   0.016   0.108   1.720  -0.004   0.002   0.079
 -0.003  -0.000   0.123   0.003  -0.004   0.011   0.000  -0.000
 -0.006  -0.001   0.003   0.066   0.002   0.000   0.004   0.000
 -0.034  -0.004  -0.004   0.002   0.079  -0.000   0.000   0.005


------------------------ aborting loop because EDIFF is reached ----------------------------------------


    FORLOC:  cpu time    1.8206: real time    1.8256
    FORHF :  cpu time   33.0884: real time   33.1802
    FORNL :  cpu time    1.7181: real time    1.7226
    OFIELD:  cpu time    0.1739: real time    0.1746

 VOLUME and BASIS-vectors are now :
 -----------------------------------------------------------------------------
  energy-cutoff  :     1600.00
  volume of cell :    42875.00
      direct lattice vectors                 reciprocal lattice vectors
    35.000000000  0.000000000  0.000000000     0.028571429  0.000000000  0.000000000
     0.000000000 35.000000000  0.000000000     0.000000000  0.028571429  0.000000000
     0.000000000  0.000000000 35.000000000     0.000000000  0.000000000  0.028571429

  length of vectors
    35.000000000 35.000000000 35.000000000     0.028571429  0.028571429  0.028571429


 FORCES acting on ions:
    Electron-Ion                     Ewald-Force                    Non-Local-Force
 -----------------------------------------------------------------------------------------------
   -.267E+03 -.194E+02 -.476E+02   0.301E+03 0.220E+02 0.537E+02   -.231E+02 -.169E+01 -.418E+01
   -.909E+02 0.176E+03 -.422E+01   0.900E+02 -.179E+03 0.397E+01   0.705E+00 0.336E+01 0.355E+00
   0.809E+02 0.170E+03 0.245E+02   -.810E+02 -.171E+03 -.245E+02   0.339E+00 0.121E+01 0.123E+00
   0.187E+03 0.136E+02 0.329E+02   -.187E+03 -.137E+02 -.329E+02   0.928E+00 0.668E-01 0.136E+00
   0.107E+03 -.157E+03 0.976E+01   -.107E+03 0.157E+03 -.976E+01   0.535E+00 -.117E+01 0.770E-01
   -.615E+02 -.187E+03 -.212E+02   0.604E+02 0.189E+03 0.212E+02   0.126E+01 -.321E+01 0.980E-02
   -.485E+02 0.683E+02 -.469E+01   0.522E+02 -.732E+02 0.507E+01   -.354E+01 0.472E+01 -.374E+00
   0.326E+02 0.747E+02 0.970E+01   -.350E+02 -.802E+02 -.104E+02   0.224E+01 0.530E+01 0.664E+00
   0.803E+02 0.578E+01 0.138E+02   -.863E+02 -.621E+01 -.149E+02   0.574E+01 0.408E+00 0.985E+00
   0.444E+02 -.690E+02 0.274E+01   -.476E+02 0.741E+02 -.294E+01   0.309E+01 -.491E+01 0.161E+00
   -.372E+02 -.745E+02 -.107E+02   0.401E+02 0.798E+02 0.115E+02   -.276E+01 -.516E+01 -.769E+00
 -----------------------------------------------------------------------------------------------
   0.268E+02 0.197E+01 0.506E+01   0.142E-13 -.284E-13 0.355E-14   -.146E+02 -.108E+01 -.281E+01
 
 
 POSITION                                       TOTAL-FORCE (eV/Angst)
 -----------------------------------------------------------------------------------
      1.21076      0.02868      0.32971        -1.607309     -0.100481     -0.329973
      0.61193     33.84155      0.15345         0.152279      0.896076      0.145002
     34.24869     33.69135     34.91117         0.119888      0.263528      0.041170
     33.45213     34.83006     34.84353         0.488394      0.030040      0.086359
     34.05638      1.07064      0.01982         0.175599     -0.290381      0.061578
      0.42772      1.11611      0.25735         0.360011     -0.829618      0.012675
      1.25148     32.97048      0.21929        -0.194411      0.311533     -0.038349
     33.82958     32.70313     34.78662         0.130712      0.329187      0.024709
     32.38899     34.75405     34.66124         0.341703      0.013075      0.056765
     33.48119      1.98450     34.98836         0.197756     -0.284022     -0.023383
      0.92469      2.06805      0.39755        -0.164624     -0.338936     -0.036554
 -----------------------------------------------------------------------------------
    total drift:                               -0.000165      0.000011      0.000030


--------------------------------------------------------------------------------------------------------



  FREE ENERGIE OF THE ION-ELECTRON SYSTEM (eV)
  ---------------------------------------------------
  free  energy   TOTEN  =      -124.81334196 eV

  energy  without entropy=     -124.81334196  energy(sigma->0) =     -124.81334196
 


--------------------------------------------------------------------------------------------------------


    POTLOK:  cpu time   16.8255: real time   16.8716


--------------------------------------------------------------------------------------------------------


     LOOP+:  cpu time 3589.0734: real time 3603.5384
    4ORBIT:  cpu time    0.0000: real time    0.0000

 total amount of memory used by VASP on root node  4053850. kBytes
========================================================================

   base      :      30000. kBytes
   nonl-proj :     190038. kBytes
   fftplans  :    1395487. kBytes
   grid      :    2325657. kBytes
   one-center:          8. kBytes
   HF        :         67. kBytes
   nonlr-proj:        438. kBytes
   wavefun   :     112155. kBytes
 
  
  
 General timing and accounting informations for this job:
 ========================================================
  
                  Total CPU time used (sec):     4359.454
                            User time (sec):     3951.904
                          System time (sec):      407.549
                         Elapsed time (sec):     4377.615
  
                   Maximum memory used (kb):     5322560.
                   Average memory used (kb):           0.
  
                          Minor page faults:      1102459
                          Major page faults:            0
                 Voluntary context switches:       410830
 
 PROFILE, used timers:      34
 =============================
 
 index                 routine                    time                            calls level
----------------------------------------------------------------------------------------------
    1    total_time                         4377.616395                                1   1
    2      w1_copy                               0.656935                            514   2
    3      fftwav_mpi                          104.958324                            508   2
    4      fftext_mpi                            0.809301                              6   2
    5      overl                                 0.000432                            241   2
    6      orth1                                 0.524261                            121   2
    7      lincom                                1.080029                            145   2
    8      fock_acc                            927.469071                             72   2
    9        w1_copy                               0.828661                          432   3
   10        fftwav_mpi                           44.365395                          432   3
   11        fock_charge_mu                       46.963716                          288   3
   12          racc0mu_hf                            0.560210                        288   4
   13        rpromu_hf                             1.447328                          288   3
   14        overl1                                0.000187                          144   3
   15        fftext_mpi                           13.356003                          144   3
   16      hamilt_local                         29.447495                            144   2
   17        vhamil                                7.093675                          144   3
   18        kinhamil                             22.353428                          144   3
   19          fftext_mpi                           22.154971                        144   4
   20      eccp                                 17.293355                            432   2
   21      w1_dscal                              3.530971                            144   2
   22      pdssyex_zheevx                        1.130982                             48   2
   23      eddiag                              961.230982                             24   2
   24        fock_acc                            926.749309                           72   3
   25          w1_copy                               0.741457                        432   4
   26          fftwav_mpi                           43.485119                        432   4
   27          fock_charge_mu                       47.015141                        288   4
   28            racc0mu_hf                            0.584516                      288   5
   29          rpromu_hf                             1.339572                        288   4
   30          overl1                                0.000173                        144   4
   31          fftext_mpi                           13.297311                        144   4
   32        fftwav_mpi                           28.500199                          144   3
   33        eccp                                  5.260218                          144   3
   34      rpro1_hf                              0.535674                            384   2
 
 Flat profile
 ============
 
             routine name                   CPU           calls
 ---------------------------------------------------------------
 total_time                           2328.948582           1
 fock_acc                             1641.378320         144
 fftwav_mpi                            221.309036        1516
 fock_charge_mu                         92.834131         576
 fftext_mpi                             49.617586         438
 eccp                                   22.553573         576
 vhamil                                  7.093675         144
 w1_dscal                                3.530971         144
 rpromu_hf                               2.786899         576
 w1_copy                                 2.227053        1378
 racc0mu_hf                              1.144726         576
 pdssyex_zheevx                          1.130982          48
 lincom                                  1.080029         145
 eddiag                                  0.721257          24
 rpro1_hf                                0.535674         384
 orth1                                   0.524261         121
 kinhamil                                0.198457         144
 overl                                   0.000432         241
 hamilt_local                            0.000392         144
 overl1                                  0.000360         288
 ---------------------------------------------------------------
  summed up times    4377.61639499664     
 
Profiling took   0.008252  0.004719  0.003472  0.003451 seconds
Profiling took   0.004282 seconds
