 vasp.5.4.1 24Jun15 (build Jan 02 2020 16:21:29) gamma-only                     
  
 executed on           IFC15_impi date 2020.04.19  10:22:29
 running on   32 total cores
 distrk:  each k-point on   32 cores,    1 groups
 distr:  one band on NCORES_PER_BAND=   8 cores,    4 groups


--------------------------------------------------------------------------------------------------------


 INCAR:
 POTCAR:    PAW_PBE N_GW 10Apr2007                
 POTCAR:    PAW_PBE C_GW 28Sep2005                
 POTCAR:    PAW_PBE H_GW 21Apr2008                
 POTCAR:    PAW_PBE N_GW 10Apr2007                
   VRHFIN =N: s2p3                                                              
   LEXCH  = PE                                                                  
   EATOM  =   264.5486 eV,   19.4438 Ry                                         
                                                                                
   TITEL  = PAW_PBE N_GW 10Apr2007                                              
   LULTRA =        F    use ultrasoft PP ?                                      
   IUNSCR =        0    unscreen: 0-lin 1-nonlin 2-no                           
   RPACOR =    0.000    partial core radius                                     
   POMASS =   14.001; ZVAL   =    5.000    mass and valenz                      
   RCORE  =    1.500    outmost cutoff radius                                   
   RWIGS  =    1.400; RWIGS  =    0.741    wigner-seitz radius (au A)           
   ENMAX  =  420.902; ENMIN  =  315.677 eV                                      
   ICORE  =        2    local potential                                         
   LCOR   =        T    correct aug charges                                     
   LPAW   =        T    paw PP                                                  
   EAUG   =  904.640                                                            
   DEXC   =    0.000                                                            
   RMAX   =    1.529    core radius for proj-oper                               
   RAUG   =    1.300    factor for augmentation sphere                          
   RDEP   =    1.514    radius for radial grids                                 
   RDEPT  =    1.100    core radius for aug-charge                              
                                                                                
   Atomic configuration                                                         
    4 entries                                                                   
     n  l   j            E        occ.                                          
     1  0  0.50      -384.7179   2.0000                                         
     2  0  0.50       -18.5828   2.0000                                         
     2  1  0.50        -7.0898   3.0000                                         
     3  2  1.50        -8.1635   0.0000                                         
   Description                                                                  
     l       E           TYP  RCUT    TYP  RCUT                                 
     0    -18.5828120     23  1.300                                             
     0     81.6349560     23  1.300                                             
     1     -7.0897854     23  1.500                                             
     1     81.6349560     23  1.500                                             
     2     -8.1634956      7  1.500                                             
  local pseudopotential read in
  kinetic energy density of atom read in
  atomic valenz-charges read in
  non local Contribution for L=           0  read in
    real space projection operators read in
  non local Contribution for L=           0  read in
    real space projection operators read in
  non local Contribution for L=           1  read in
    real space projection operators read in
  non local Contribution for L=           1  read in
    real space projection operators read in
    PAW grid and wavefunctions read in
 
   number of l-projection  operators is LMAX  =           4
   number of lm-projection operators is LMMAX =           8
 
 POTCAR:    PAW_PBE C_GW 28Sep2005                
   VRHFIN =C: s2p2                                                              
   LEXCH  = PE                                                                  
   EATOM  =   147.1560 eV,   10.8157 Ry                                         
                                                                                
   TITEL  = PAW_PBE C_GW 28Sep2005                                              
   LULTRA =        F    use ultrasoft PP ?                                      
   IUNSCR =        0    unscreen: 0-lin 1-nonlin 2-no                           
   RPACOR =    0.000    partial core radius                                     
   POMASS =   12.011; ZVAL   =    4.000    mass and valenz                      
   RCORE  =    1.500    outmost cutoff radius                                   
   RWIGS  =    1.630; RWIGS  =    0.863    wigner-seitz radius (au A)           
   ENMAX  =  413.992; ENMIN  =  310.494 eV                                      
   ICORE  =        2    local potential                                         
   LCOR   =        T    correct aug charges                                     
   LPAW   =        T    paw PP                                                  
   EAUG   =  644.873                                                            
   DEXC   =    0.000                                                            
   RMAX   =    1.529    core radius for proj-oper                               
   RAUG   =    1.300    factor for augmentation sphere                          
   RDEP   =    1.501    radius for radial grids                                 
   RDEPT  =    1.300    core radius for aug-charge                              
                                                                                
   Atomic configuration                                                         
    4 entries                                                                   
     n  l   j            E        occ.                                          
     1  0  0.50      -273.3789   2.0000                                         
     2  0  0.50       -13.7508   2.0000                                         
     2  1  0.50        -5.2854   2.0000                                         
     3  2  1.50        -5.4423   0.0000                                         
   Description                                                                  
     l       E           TYP  RCUT    TYP  RCUT                                 
     0    -13.7508457     23  1.200                                             
     0     95.2407820     23  1.200                                             
     1     -5.2854382     23  1.500                                             
     1    108.8466080     23  1.500                                             
     2     -5.4423304      7  1.500                                             
  local pseudopotential read in
  kinetic energy density of atom read in
  atomic valenz-charges read in
  non local Contribution for L=           0  read in
    real space projection operators read in
  non local Contribution for L=           0  read in
    real space projection operators read in
  non local Contribution for L=           1  read in
    real space projection operators read in
  non local Contribution for L=           1  read in
    real space projection operators read in
    PAW grid and wavefunctions read in
 
   number of l-projection  operators is LMAX  =           4
   number of lm-projection operators is LMMAX =           8
 
 POTCAR:    PAW_PBE H_GW 21Apr2008                
   VRHFIN =H: ultrasoft test                                                    
   LEXCH  = PE                                                                  
   EATOM  =    12.4884 eV,    0.9179 Ry                                         
                                                                                
   TITEL  = PAW_PBE H_GW 21Apr2008                                              
   LULTRA =        F    use ultrasoft PP ?                                      
   IUNSCR =        0    unscreen: 0-lin 1-nonlin 2-no                           
   RPACOR =    0.000    partial core radius                                     
   POMASS =    1.000; ZVAL   =    1.000    mass and valenz                      
   RCORE  =    1.100    outmost cutoff radius                                   
   RWIGS  =    1.100; RWIGS  =    0.582    wigner-seitz radius (au A)           
   ENMAX  =  300.000; ENMIN  =  250.000 eV                                      
   RCLOC  =    0.701    cutoff for local pot                                    
   LCOR   =        T    correct aug charges                                     
   LPAW   =        T    paw PP                                                  
   EAUG   =  500.000                                                            
   RMAX   =    1.123    core radius for proj-oper                               
   RAUG   =    1.200    factor for augmentation sphere                          
   RDEP   =    1.112    radius for radial grids                                 
   RDEPT  =    1.100    core radius for aug-charge                              
                                                                                
   Atomic configuration                                                         
    3 entries                                                                   
     n  l   j            E        occ.                                          
     1  0  0.50        -6.4927   1.0000                                         
     2  1  0.50        -3.4015   0.0000                                         
     3  2  1.50        13.6058   0.0000                                         
   Description                                                                  
     l       E           TYP  RCUT    TYP  RCUT                                 
     0     -6.4927495     23  0.950                                             
     0      6.8029130     23  0.950                                             
     1     -4.0817478     23  1.100                                             
     1    108.8466080     23  1.100                                             
     2     81.6349560     23  1.100                                             
  local pseudopotential read in
  kinetic energy density of atom read in
  atomic valenz-charges read in
  non local Contribution for L=           0  read in
    real space projection operators read in
  non local Contribution for L=           0  read in
    real space projection operators read in
  non local Contribution for L=           1  read in
    real space projection operators read in
  non local Contribution for L=           1  read in
    real space projection operators read in
  non local Contribution for L=           2  read in
    real space projection operators read in
    PAW grid and wavefunctions read in
 
   number of l-projection  operators is LMAX  =           5
   number of lm-projection operators is LMMAX =          13
 
  PAW_PBE N_GW 10Apr2007                :
 energy of atom  1       EATOM= -264.5486
 kinetic energy error for atom=    0.0003 (will be added to EATOM!!)
  PAW_PBE C_GW 28Sep2005                :
 energy of atom  2       EATOM= -147.1560
 kinetic energy error for atom=    0.0002 (will be added to EATOM!!)
  PAW_PBE H_GW 21Apr2008                :
 energy of atom  3       EATOM=  -12.4884
 kinetic energy error for atom=    0.0000 (will be added to EATOM!!)
 
 
 POSCAR: N C H                                   
  positions in cartesian coordinates
  No initial velocities read in
 exchange correlation table for  LEXCH =        8
   RHO(1)=    0.500       N(1)  =     2000
   RHO(2)=  100.500       N(2)  =     4000
 


--------------------------------------------------------------------------------------------------------


 ion  position               nearest neighbor table
   1  0.039  1.000  0.004-   2 1.34   6 1.34
   2  0.019  0.967  0.003-   7 1.08   1 1.34   3 1.39
   3  0.980  0.966  0.000-   8 1.08   4 1.39   2 1.39
   4  0.959  0.000  0.999-   9 1.08   5 1.39   3 1.39
   5  0.980  0.034  0.000-  10 1.08   4 1.39   6 1.39
   6  0.019  0.033  0.003-  11 1.08   1 1.34   5 1.39
   7  0.036  0.941  0.004-   2 1.08
   8  0.965  0.939  0.999-   3 1.08
   9  0.929  0.000  0.997-   4 1.08
  10  0.965  0.061  0.999-   5 1.08
  11  0.036  0.059  0.004-   6 1.08
 
  LATTYP: Found a simple cubic cell.
 ALAT       =    35.0000000000
  
  Lattice vectors:
  
 A1 = (  35.0000000000,   0.0000000000,   0.0000000000)
 A2 = (   0.0000000000,  35.0000000000,   0.0000000000)
 A3 = (   0.0000000000,   0.0000000000,  35.0000000000)


Analysis of symmetry for initial positions (statically):
=====================================================================
 Subroutine PRICEL returns:
 Original cell was already a primitive cell.
 

 Routine SETGRP: Setting up the symmetry group for a 
 simple cubic supercell.


 Subroutine GETGRP returns: Found  1 space group operations
 (whereof  1 operations were pure point group operations)
 out of a pool of 48 trial point group operations.


The static configuration has the point symmetry C_1 .


Analysis of symmetry for dynamics (positions and initial velocities):
=====================================================================
 Subroutine PRICEL returns:
 Original cell was already a primitive cell.
 

 Routine SETGRP: Setting up the symmetry group for a 
 simple cubic supercell.


 Subroutine GETGRP returns: Found  1 space group operations
 (whereof  1 operations were pure point group operations)
 out of a pool of 48 trial point group operations.


The dynamic configuration has the point symmetry C_1 .
 
 
 KPOINTS: automatic mesh                          

Automatic generation of k-mesh.
Space group operators:
 irot       det(A)        alpha          n_x          n_y          n_z        tau_x        tau_y        tau_z
    1     1.000000     0.000000     1.000000     0.000000     0.000000     0.000000     0.000000     0.000000
 
 Subroutine IBZKPT returns following result:
 ===========================================
 
 Found      1 irreducible k-points:
 
 Following reciprocal coordinates:
            Coordinates               Weight
  0.000000  0.000000  0.000000      1.000000
 
 Following cartesian coordinates:
            Coordinates               Weight
  0.000000  0.000000  0.000000      1.000000
 
 
 Subroutine IBZKPT_HF returns following result:
 ==============================================
 
 Found      1 k-points in 1st BZ
 the following      1 k-points will be used (e.g. in the exchange kernel)
 Following reciprocal coordinates:   # in IRBZ
  0.000000  0.000000  0.000000    1.00000000   1 t-inv F


--------------------------------------------------------------------------------------------------------




 Dimension of arrays:
   k-points           NKPTS =      1   k-points in BZ     NKDIM =      1   number of bands    NBANDS=     24
   number of dos      NEDOS =    301   number of ions     NIONS =     11
   non local maximal  LDIM  =      5   non local SUM 2l+1 LMDIM =     13
   total plane-waves  NPLWV = ******
   max r-space proj   IRMAX =      1   max aug-charges    IRDMAX=  30635
   dimension x,y,z NGX =   480 NGY =  480 NGZ =  480
   dimension x,y,z NGXF=   960 NGYF=  960 NGZF=  960
   support grid    NGXF=   960 NGYF=  960 NGZF=  960
   ions per type =               1   5   5
 NGX,Y,Z   is equivalent  to a cutoff of  22.80, 22.80, 22.80 a.u.
 NGXF,Y,Z  is equivalent  to a cutoff of  45.60, 45.60, 45.60 a.u.


 I would recommend the setting:
   dimension x,y,z NGX =   457 NGY =  457 NGZ =  457
 SYSTEM =  C                                       
 POSCAR =  N C H                                   

 Startparameter for this run:
   NWRITE =      2    write-flag & timer
   PREC   = accura    normal or accurate (medium, high low for compatibility)
   ISTART =      0    job   : 0-new  1-cont  2-samecut
   ICHARG =      2    charge: 1-file 2-atom 10-const
   ISPIN  =      1    spin polarized calculation?
   LNONCOLLINEAR =      F non collinear calculations
   LSORBIT =      F    spin-orbit coupling
   INIWAV =      1    electr: 0-lowe 1-rand  2-diag
   LASPH  =      T    aspherical Exc in radial PAW
   METAGGA=      F    non-selfconsistent MetaGGA calc.

 Electronic Relaxation 1
   ENCUT  = 1600.0 eV 117.60 Ry   10.84 a.u. 114.15114.15114.15*2*pi/ulx,y,z
   ENINI  = 1600.0     initial cutoff
   ENAUG  =  904.6 eV  augmentation charge cutoff
   NELM   =     60;   NELMIN=  2; NELMDL= -5     # of ELM steps 
   EDIFF  = 0.1E-06   stopping-criterion for ELM
   LREAL  =      F    real-space projection
   NLSPLINE    = F    spline interpolate recip. space projectors
   LCOMPAT=      F    compatible to vasp.4.4
   GGA_COMPAT  = T    GGA compatible to vasp.4.4-vasp.4.6
   LMAXPAW     = -100 max onsite density
   LMAXMIX     =    2 max onsite mixed and CHGCAR
   VOSKOWN=      0    Vosko Wilk Nusair interpolation
   ROPT   =    0.00000   0.00000   0.00000
 Ionic relaxation
   EDIFFG = 0.1E-05   stopping-criterion for IOM
   NSW    =      0    number of steps for IOM
   NBLOCK =      1;   KBLOCK =      1    inner block; outer block 
   IBRION =     -1    ionic relax: 0-MD 1-quasi-New 2-CG
   NFREE  =      0    steps in history (QN), initial steepest desc. (CG)
   ISIF   =      0    stress and relaxation
   IWAVPR =     10    prediction:  0-non 1-charg 2-wave 3-comb
   ISYM   =      3    0-nonsym 1-usesym 2-fastsym
   LCORR  =      T    Harris-Foulkes like correction to forces

   POTIM  = 0.5000    time-step for ionic-motion
   TEIN   =    0.0    initial temperature
   TEBEG  =    0.0;   TEEND  =   0.0 temperature during run
   SMASS  =  -3.00    Nose mass-parameter (am)
   estimated Nose-frequenzy (Omega)   =  0.10E-29 period in steps =****** mass=  -0.280E-25a.u.
   SCALEE = 1.0000    scale energy and forces
   NPACO  =    256;   APACO  = 16.0  distance and # of slots for P.C.
   PSTRESS=    0.0 pullay stress

  Mass of Ions in am
   POMASS =  14.00 12.01  1.00
  Ionic Valenz
   ZVAL   =   5.00  4.00  1.00
  Atomic Wigner-Seitz radii
   RWIGS  =  -1.00 -1.00 -1.00
  virtual crystal weights 
   VCA    =   1.00  1.00  1.00
   NELECT =      30.0000    total number of electrons
   NUPDOWN=      -1.0000    fix difference up-down

 DOS related values:
   EMIN   =  10.00;   EMAX   =-10.00  energy-range for DOS
   EFERMI =   0.00
   ISMEAR =     0;   SIGMA  =   0.01  broadening in eV -4-tet -1-fermi 0-gaus

 Electronic relaxation 2 (details)
   IALGO  =     58    algorithm
   LDIAG  =      T    sub-space diagonalisation (order eigenvalues)
   LSUBROT=      F    optimize rotation matrix (better conditioning)
   TURBO    =      0    0=normal 1=particle mesh
   IRESTART =      0    0=no restart 2=restart with 2 vectors
   NREBOOT  =      0    no. of reboots
   NMIN     =      0    reboot dimension
   EREF     =   0.00    reference energy to select bands
   IMIX   =      4    mixing-type and parameters
     AMIX     =   0.40;   BMIX     =  1.00
     AMIX_MAG =   1.60;   BMIX_MAG =  1.00
     AMIN     =   0.10
     WC   =   100.;   INIMIX=   1;  MIXPRE=   1;  MAXMIX= -45

 Intra band minimization:
   WEIMIN = 0.0000     energy-eigenvalue tresh-hold
   EBREAK =  0.10E-08  absolut break condition
   DEPER  =   0.30     relativ break condition  

   TIME   =   0.40     timestep for ELM

  volume/ion in A,a.u.               =    3897.73     26303.16
  Fermi-wavevector in a.u.,A,eV,Ry     =   0.145338  0.274650  0.287399  0.021123
  Thomas-Fermi vector in A             =   0.812913
 
 Write flags
   LWAVE  =      F    write WAVECAR
   LCHARG =      T    write CHGCAR
   LVTOT  =      F    write LOCPOT, total local potential
   LVHAR  =      F    write LOCPOT, Hartree potential only
   LELF   =      F    write electronic localiz. function (ELF)
   LORBIT =      0    0 simple, 1 ext, 2 COOP (PROOUT)


 Dipole corrections
   LMONO  =      F    monopole corrections only (constant potential shift)
   LDIPOL =      F    correct potential (dipole corrections)
   IDIPOL =      0    1-x, 2-y, 3-z, 4-all directions 
   EPSILON=  1.0000000 bulk dielectric constant

 Exchange correlation treatment:
   GGA     =    --    GGA type
   LEXCH   =     8    internal setting for exchange type
   VOSKOWN=      0    Vosko Wilk Nusair interpolation
   EXXOEP  =     0    0=HF, 1=EXX-LHF (local Hartree Fock) 2=EXX OEP
   LHFCALC =     T    Hartree Fock is set to
   LSYMGRAD=     F    symmetrize gradient (conserves proper symmetry)
   PRECFOCK=normal    Normal, Fast or Accurate (Low or Medium for compatibility)
   LRHFCALC=     F    long range Hartree Fock
   LRSCOR  =     F    long range correlation only (use DFT for short range part)
   LTHOMAS =     F    Thomas Fermi screening in HF
   LMODELHF=     F    short range full HF, long range fraction AEXX
   ENCUT4O =  -1.0   cutoff for four orbital integrals eV
   LMAXFOCK=     4    L truncation for augmentation on plane wave grid
   LMAXFOCKAE=  -1    L truncation for all-electron charge restoration on plane wave grid
   NMAXFOCKAE=   1    number of basis functions for all-electron charge restoration
   LFOCKAEDFT=     F  apply the AE augmentation even for DFT
   NKREDX  =     1    reduce k-point grid by
   NKREDY  =     1    reduce k-point grid by
   NKREDZ  =     1    reduce k-point grid by
   SHIFTRED=     F    shift reduced grid of Gamma
   HFKIDENT=     F    idential grid for each k-point
   ODDONLY =     F    use only odd q-grid points
   EVENONLY=     F    use only even q-grid points
   HFALPHA =   -1.0000 decay constant for conv. correction
   MCALPHA =    0.0000 extent of test-charge in conv. correction in multipole expansion
   AEXX    =    1.0000 exact exchange contribution
   HFSCREEN=    0.0000 screening length (either q_TF or 0.3 A-1)
   HFSCREENC=   0.0000 screening length for correlation (either q_TF or 0.3 A-1)
   HFRCUT  =    0.0000 spherical cutoff for potential kernel
   ALDAX   =    0.0000 LDA exchange part
   AGGAX   =    0.0000 GGA exchange part
   ALDAC   =    0.0000 LDA correlation
   AGGAC   =    0.0000 GGA correlation
   NBANDSGWLOW=     1    first orbital included in HF term
   ENCUTFOCK=  -1.0 apply spherical cutoff to Coloumb kernel
 Linear response parameters
   LEPSILON=     F    determine dielectric tensor
   LRPA    =     F    only Hartree local field effects (RPA)
   LNABLA  =     F    use nabla operator in PAW spheres
   LVEL    =     F    velocity operator in full k-point grid
   LINTERFAST=   F  fast interpolation
   KINTER  =     0    interpolate to denser k-point grid
   CSHIFT  =0.1000    complex shift for real part using Kramers Kronig
   OMEGAMAX=  -1.0    maximum frequency
   DEG_THRESHOLD= 0.2000000E-02 threshold for treating states as degnerate
   RTIME   =    0.100 relaxation time in fs

 Orbital magnetization related:
   ORBITALMAG=     F  switch on orbital magnetization
   LCHIMAG   =     F  perturbation theory with respect to B field
   DQ        =  0.001000  dq finite difference perturbation B field



--------------------------------------------------------------------------------------------------------


 Static calculation
 charge density and potential will be updated during run
 non-spin polarized calculation
 Conjugate gradient for all bands (Freysoldt, et al. PRB 79, 241103 (2009))
 preconditioned conjugated gradient                                        
 perform sub-space diagonalisation
    before iterative eigenvector-optimisation
 modified Broyden-mixing scheme, WC =      100.0
 initial mixing is a Kerker type mixing with AMIX =  0.4000 and BMIX =      1.0000
 Hartree-type preconditioning will be used
 using additional bands            9
 reciprocal scheme for non local part
 no Harris-corrections to forces 
 use gradient corrections 
 use of overlap-Matrix (Vanderbilt PP)
 Gauss-broadening in eV      SIGMA  =   0.01


--------------------------------------------------------------------------------------------------------


  energy-cutoff  :     1600.00
  volume of cell :    42875.00
      direct lattice vectors                 reciprocal lattice vectors
    35.000000000  0.000000000  0.000000000     0.028571429  0.000000000  0.000000000
     0.000000000 35.000000000  0.000000000     0.000000000  0.028571429  0.000000000
     0.000000000  0.000000000 35.000000000     0.000000000  0.000000000  0.028571429

  length of vectors
    35.000000000 35.000000000 35.000000000     0.028571429  0.028571429  0.028571429


 
 k-points in units of 2pi/SCALE and weight: automatic mesh                          
   0.00000000  0.00000000  0.00000000       1.000
 
 k-points in reciprocal lattice and weights: automatic mesh                          
   0.00000000  0.00000000  0.00000000       1.000
 
 position of ions in fractional coordinates (direct lattice) 
   0.03946806  0.99999333  0.00375611
   0.01941002  0.96742173  0.00263085
   0.97972222  0.96591103  0.00019041
   0.95938247  0.00000381  0.99883380
   0.97973139  0.03409073  0.00018634
   0.01941862  0.03257018  0.00262552
   0.03596342  0.94128679  0.00359667
   0.96531178  0.93861252  0.99927690
   0.92855154  0.00000736  0.99688086
   0.96532824  0.06139280  0.99927062
   0.03597888  0.05870031  0.00358579
 
 position of ions in cartesian coordinates  (Angst):
   1.38138219 34.99976652  0.13146374
   0.67935079 33.85976054  0.09207966
  34.29027768 33.80688593  0.00666427
  33.57838643  0.00013343 34.95918310
  34.29059880  1.19317538  0.00652198
   0.67965167  1.13995623  0.09189303
   1.25871960 32.94503777  0.12588361
  33.78591232 32.85143837 34.97469149
  32.49930385  0.00025757 34.89083027
  33.78648837  2.14874784 34.97447169
   1.25926073  2.05451090  0.12550248
 


--------------------------------------------------------------------------------------------------------


 use parallel FFT for wavefunctions z direction half grid
 k-point  1 :   0.0000 0.0000 0.0000  plane waves: 3115599

 maximum and minimum number of plane-waves per node :    389462   389421

 maximum number of plane-waves:   3115599
 maximum index in each direction: 
   IXMAX=  114   IYMAX=  114   IZMAX=  114
   IXMIN= -114   IYMIN= -114   IZMIN=    0

 NGX is ok and might be reduce to 458
 NGY is ok and might be reduce to 458
 NGZ is ok and might be reduce to 458

 parallel 3D FFT for wavefunctions:
    minimum data exchange during FFTs selected (reduces bandwidth)
 parallel 3D FFT for charge:
    minimum data exchange during FFTs selected (reduces bandwidth)


 FFT grid for exact exchange (Hartree Fock) 
  NGX =350; NGY =350; NGZ =350

 use parallel FFT for wavefunctions z direction half grid
 
 Radii for the augmentation spheres in the non-local exchange
 for species   1 augmentation radius   0.738 (default was   0.590)
       energy cutoff for augmentation   6400.0
 for species   2 augmentation radius   0.874 (default was   0.699)
       energy cutoff for augmentation   6400.0
 for species   3 augmentation radius   0.735 (default was   0.588)
       energy cutoff for augmentation   6400.0

 real space projection operators:
  total allocation   :       2733.89 KBytes
  max/ min on nodes  :        363.08        319.02

 Maximum index for augmentation-charges in exchange          417
  SETUP_FOCK is finished

 total amount of memory used by VASP on root node  4053858. kBytes
========================================================================

   base      :      30000. kBytes
   nonl-proj :     190038. kBytes
   fftplans  :    1395487. kBytes
   grid      :    2325657. kBytes
   one-center:          8. kBytes
   HF        :         67. kBytes
   nonlr-proj:        446. kBytes
   wavefun   :     112155. kBytes
 
     INWAV:  cpu time    0.0000: real time    0.0002
 Broyden mixing: mesh for mixing (old mesh)
   NGX =229   NGY =229   NGZ =229
  (NGX  =960   NGY  =960   NGZ  =960)
  gives a total of ****** points

 initial charge density was supplied:
 charge density of overlapping atoms calculated
 number of electron      30.0000000 magnetization 
 keeping initial charge density in first step


--------------------------------------------------------------------------------------------------------


 Maximum index for augmentation-charges          997 (set IRDMAX)


--------------------------------------------------------------------------------------------------------


 FEWALD executed in parallel
    FEWALD:  cpu time    0.0002: real time    0.0002


----------------------------------------- Iteration    1(   1)  ---------------------------------------


    POTLOK:  cpu time   14.5887: real time   14.6328
    SETDIJ:  cpu time    0.1307: real time    0.1310
    TRIAL :  cpu time   10.5094: real time   10.5445
    CORREC:  cpu time    0.0001: real time    0.0001
    --------------------------------------------
      LOOP:  cpu time   25.3261: real time   25.4079

 eigenvalue-minimisations  :    48
 total energy-change (2. order) : 0.2563627E+03  (-0.4764155E+03)
 number of electron      30.0000000 magnetization 
 augmentation part       30.0000000 magnetization 

 Free energy of the ion-electron system (eV)
  ---------------------------------------------------
  alpha Z        PSCENC =         0.09503522
  Ewald energy   TEWEN  =      2322.05012885
  -Hartree energ DENC   =     -3032.09784209
  -exchange      EXHF   =         0.00000000
  -V(xc)+E(xc)   XCENC  =         0.00000000
  PAW double counting   =       837.01541567     -837.15441412
  entropy T*S    EENTRO =        -0.00000031
  eigenvalues    EBANDS =        -5.12391173
  atomic energy  EATOM  =       971.57827146
  ---------------------------------------------------
  free energy    TOTEN  =       256.36268294 eV

  energy without entropy =      256.36268325  energy(sigma->0) =      256.36268309
  exchange ACFDT corr.  =         0.00000000  see jH, gK, PRB 81, 115126


--------------------------------------------------------------------------------------------------------




----------------------------------------- Iteration    1(   2)  ---------------------------------------


    TRIAL :  cpu time   12.8141: real time   12.8583
    CORREC:  cpu time    0.0002: real time    0.0002
    --------------------------------------------
      LOOP:  cpu time   12.8164: real time   12.8633

 eigenvalue-minimisations  :    64
 total energy-change (2. order) :-0.4662794E+02  (-0.4562354E+02)
 number of electron      30.0000000 magnetization 
 augmentation part       30.0000000 magnetization 

 Free energy of the ion-electron system (eV)
  ---------------------------------------------------
  alpha Z        PSCENC =         0.09503522
  Ewald energy   TEWEN  =      2322.05012885
  -Hartree energ DENC   =     -3032.09784209
  -exchange      EXHF   =         0.00000000
  -V(xc)+E(xc)   XCENC  =         0.00000000
  PAW double counting   =       837.01541567     -837.15441412
  entropy T*S    EENTRO =        -0.00889911
  eigenvalues    EBANDS =       -51.74295445
  atomic energy  EATOM  =       971.57827146
  ---------------------------------------------------
  free energy    TOTEN  =       209.73474141 eV

  energy without entropy =      209.74364053  energy(sigma->0) =      209.73919097
  exchange ACFDT corr.  =         0.00000000  see jH, gK, PRB 81, 115126


--------------------------------------------------------------------------------------------------------




----------------------------------------- Iteration    1(   3)  ---------------------------------------


    TRIAL :  cpu time   16.4016: real time   16.4565
    CORREC:  cpu time    0.0002: real time    0.0002
    --------------------------------------------
      LOOP:  cpu time   16.4045: real time   16.4618

 eigenvalue-minimisations  :    88
 total energy-change (2. order) :-0.3211837E+02  (-0.3178605E+02)
 number of electron      30.0000000 magnetization 
 augmentation part       30.0000000 magnetization 

 Free energy of the ion-electron system (eV)
  ---------------------------------------------------
  alpha Z        PSCENC =         0.09503522
  Ewald energy   TEWEN  =      2322.05012885
  -Hartree energ DENC   =     -3032.09784209
  -exchange      EXHF   =         0.00000000
  -V(xc)+E(xc)   XCENC  =         0.00000000
  PAW double counting   =       837.01541567     -837.15441412
  entropy T*S    EENTRO =        -0.01046636
  eigenvalues    EBANDS =       -83.85975367
  atomic energy  EATOM  =       971.57827146
  ---------------------------------------------------
  free energy    TOTEN  =       177.61637494 eV

  energy without entropy =      177.62684131  energy(sigma->0) =      177.62160812
  exchange ACFDT corr.  =         0.00000000  see jH, gK, PRB 81, 115126


--------------------------------------------------------------------------------------------------------




----------------------------------------- Iteration    1(   4)  ---------------------------------------


    TRIAL :  cpu time   15.2049: real time   15.2570
    CORREC:  cpu time    0.0002: real time    0.0002
    --------------------------------------------
      LOOP:  cpu time   15.2069: real time   15.2616

 eigenvalue-minimisations  :    80
 total energy-change (2. order) :-0.8671475E+01  (-0.8140198E+01)
 number of electron      30.0000000 magnetization 
 augmentation part       30.0000000 magnetization 

 Free energy of the ion-electron system (eV)
  ---------------------------------------------------
  alpha Z        PSCENC =         0.09503522
  Ewald energy   TEWEN  =      2322.05012885
  -Hartree energ DENC   =     -3032.09784209
  -exchange      EXHF   =         0.00000000
  -V(xc)+E(xc)   XCENC  =         0.00000000
  PAW double counting   =       837.01541567     -837.15441412
  entropy T*S    EENTRO =        -0.00041261
  eigenvalues    EBANDS =       -92.54128224
  atomic energy  EATOM  =       971.57827146
  ---------------------------------------------------
  free energy    TOTEN  =       168.94490013 eV

  energy without entropy =      168.94531274  energy(sigma->0) =      168.94510644
  exchange ACFDT corr.  =         0.00000000  see jH, gK, PRB 81, 115126


--------------------------------------------------------------------------------------------------------




----------------------------------------- Iteration    1(   5)  ---------------------------------------


    TRIAL :  cpu time   18.7361: real time   18.7991
    CORREC:  cpu time    0.0002: real time    0.0002
    CHARGE:  cpu time    2.3740: real time    2.3842
    --------------------------------------------
      LOOP:  cpu time   21.1121: real time   21.1880

 eigenvalue-minimisations  :    96
 total energy-change (2. order) :-0.5214095E+01  (-0.5175427E+01)
 number of electron      30.0000000 magnetization 
 augmentation part       -0.2803185 magnetization 

 Free energy of the ion-electron system (eV)
  ---------------------------------------------------
  alpha Z        PSCENC =         0.09503522
  Ewald energy   TEWEN  =      2322.05012885
  -Hartree energ DENC   =     -3032.09784209
  -exchange      EXHF   =         0.00000000
  -V(xc)+E(xc)   XCENC  =         0.00000000
  PAW double counting   =       837.01541567     -837.15441412
  entropy T*S    EENTRO =        -0.01301965
  eigenvalues    EBANDS =       -97.74276981
  atomic energy  EATOM  =       971.57827146
  ---------------------------------------------------
  free energy    TOTEN  =       163.73080552 eV

  energy without entropy =      163.74382517  energy(sigma->0) =      163.73731534
  exchange ACFDT corr.  =         0.00000000  see jH, gK, PRB 81, 115126


--------------------------------------------------------------------------------------------------------




----------------------------------------- Iteration    1(   6)  ---------------------------------------


    POTLOK:  cpu time   16.4086: real time   16.4533
    SETDIJ:  cpu time    0.2529: real time    0.2535
    TRIAL :  cpu time   44.6329: real time   44.8224
    CORREC:  cpu time   58.9237: real time   59.1528
    CHARGE:  cpu time    2.3332: real time    2.3428
    --------------------------------------------
      LOOP:  cpu time  122.5915: real time  123.0678

 eigenvalue-minimisations  :     0
 total energy-change (2. order) : 0.4288704E+03  (-0.2242812E+03)
 number of electron      30.0000000 magnetization 
 augmentation part       -0.2945543 magnetization 

 Free energy of the ion-electron system (eV)
  ---------------------------------------------------
  alpha Z        PSCENC =         0.09503522
  Ewald energy   TEWEN  =      2322.05012885
  -Hartree energ DENC   =      -989.49125814
  -exchange      EXHF   =       147.76734757
  -V(xc)+E(xc)   XCENC  =         0.00000000
  PAW double counting   =       384.69520132     -384.98468534
  entropy T*S    EENTRO =        -0.00001230
  eigenvalues    EBANDS =     -1859.09581960
  atomic energy  EATOM  =       971.57827146
  ---------------------------------------------------
  free energy    TOTEN  =       592.60120170 eV

  energy without entropy =      592.60121400  energy(sigma->0) =      592.60120785
  exchange ACFDT corr.  =        -0.61801274  see jH, gK, PRB 81, 115126


--------------------------------------------------------------------------------------------------------




----------------------------------------- Iteration    1(   7)  ---------------------------------------


    POTLOK:  cpu time   16.4556: real time   16.5004
    SETDIJ:  cpu time    0.2565: real time    0.2571
    TRIAL :  cpu time   44.5796: real time   44.7677
    CORREC:  cpu time   58.7200: real time   58.9464
    CHARGE:  cpu time    2.3337: real time    2.3433
    --------------------------------------------
      LOOP:  cpu time  122.3879: real time  122.8603

 eigenvalue-minimisations  :     0
 total energy-change (2. order) :-0.1015109E+03  (-0.2032325E+03)
 number of electron      30.0000000 magnetization 
 augmentation part       -0.3081337 magnetization 

 Free energy of the ion-electron system (eV)
  ---------------------------------------------------
  alpha Z        PSCENC =         0.09503522
  Ewald energy   TEWEN  =      2322.05012885
  -Hartree energ DENC   =     -1146.14933607
  -exchange      EXHF   =       159.39757191
  -V(xc)+E(xc)   XCENC  =         0.00000000
  PAW double counting   =       496.27607492     -496.65256408
  entropy T*S    EENTRO =        -0.00000000
  eigenvalues    EBANDS =     -1815.50486912
  atomic energy  EATOM  =       971.57827146
  ---------------------------------------------------
  free energy    TOTEN  =       491.09030079 eV

  energy without entropy =      491.09030079  energy(sigma->0) =      491.09030079
  exchange ACFDT corr.  =        -0.00027231  see jH, gK, PRB 81, 115126


--------------------------------------------------------------------------------------------------------




----------------------------------------- Iteration    1(   8)  ---------------------------------------


    POTLOK:  cpu time   16.4398: real time   16.4846
    SETDIJ:  cpu time    0.2544: real time    0.2550
    TRIAL :  cpu time   44.7203: real time   44.9094
    CORREC:  cpu time   58.6623: real time   58.8903
    CHARGE:  cpu time    2.3198: real time    2.3291
    --------------------------------------------
      LOOP:  cpu time  122.4365: real time  122.9108

 eigenvalue-minimisations  :     0
 total energy-change (2. order) :-0.7804667E+01  (-0.1375122E+03)
 number of electron      30.0000000 magnetization 
 augmentation part       -0.2584839 magnetization 

 Free energy of the ion-electron system (eV)
  ---------------------------------------------------
  alpha Z        PSCENC =         0.09503522
  Ewald energy   TEWEN  =      2322.05012885
  -Hartree energ DENC   =     -1205.57078586
  -exchange      EXHF   =       159.51018277
  -V(xc)+E(xc)   XCENC  =         0.00000000
  PAW double counting   =       543.42861059     -543.81383985
  entropy T*S    EENTRO =        -0.00000000
  eigenvalues    EBANDS =     -1763.99196900
  atomic energy  EATOM  =       971.57827146
  ---------------------------------------------------
  free energy    TOTEN  =       483.28563417 eV

  energy without entropy =      483.28563417  energy(sigma->0) =      483.28563417
  exchange ACFDT corr.  =         0.00000000  see jH, gK, PRB 81, 115126


--------------------------------------------------------------------------------------------------------




----------------------------------------- Iteration    1(   9)  ---------------------------------------


    POTLOK:  cpu time   16.4252: real time   16.4700
    SETDIJ:  cpu time    0.2537: real time    0.2543
    TRIAL :  cpu time   44.5811: real time   44.7698
    CORREC:  cpu time   58.6527: real time   58.8801
    CHARGE:  cpu time    2.3285: real time    2.3379
    --------------------------------------------
      LOOP:  cpu time  122.2849: real time  122.7587

 eigenvalue-minimisations  :     0
 total energy-change (2. order) :-0.1206521E+03  (-0.1727867E+03)
 number of electron      30.0000000 magnetization 
 augmentation part       -0.2197208 magnetization 

 Free energy of the ion-electron system (eV)
  ---------------------------------------------------
  alpha Z        PSCENC =         0.09503522
  Ewald energy   TEWEN  =      2322.05012885
  -Hartree energ DENC   =     -1405.71099405
  -exchange      EXHF   =       168.12008171
  -V(xc)+E(xc)   XCENC  =         0.00000000
  PAW double counting   =       571.95837301     -572.32767980
  entropy T*S    EENTRO =        -0.00000000
  eigenvalues    EBANDS =     -1693.12971139
  atomic energy  EATOM  =       971.57827146
  ---------------------------------------------------
  free energy    TOTEN  =       362.63350501 eV

  energy without entropy =      362.63350501  energy(sigma->0) =      362.63350501
  exchange ACFDT corr.  =         0.00000000  see jH, gK, PRB 81, 115126


--------------------------------------------------------------------------------------------------------




----------------------------------------- Iteration    1(  10)  ---------------------------------------


    POTLOK:  cpu time   16.4414: real time   16.4869
    SETDIJ:  cpu time    0.2533: real time    0.2539
    TRIAL :  cpu time   44.6439: real time   44.8330
    CORREC:  cpu time   58.6593: real time   58.8830
    CHARGE:  cpu time    2.3297: real time    2.3390
    --------------------------------------------
      LOOP:  cpu time  122.3699: real time  122.8409

 eigenvalue-minimisations  :     0
 total energy-change (2. order) :-0.6189414E+02  (-0.1547174E+03)
 number of electron      30.0000000 magnetization 
 augmentation part       -0.2252821 magnetization 

 Free energy of the ion-electron system (eV)
  ---------------------------------------------------
  alpha Z        PSCENC =         0.09503522
  Ewald energy   TEWEN  =      2322.05012885
  -Hartree energ DENC   =     -1577.94061583
  -exchange      EXHF   =       173.72117116
  -V(xc)+E(xc)   XCENC  =         0.00000000
  PAW double counting   =       592.06642499     -592.39627870
  entropy T*S    EENTRO =        -0.00000000
  eigenvalues    EBANDS =     -1588.43477405
  atomic energy  EATOM  =       971.57827146
  ---------------------------------------------------
  free energy    TOTEN  =       300.73936311 eV

  energy without entropy =      300.73936311  energy(sigma->0) =      300.73936311
  exchange ACFDT corr.  =         0.00000000  see jH, gK, PRB 81, 115126


--------------------------------------------------------------------------------------------------------




----------------------------------------- Iteration    1(  11)  ---------------------------------------


    POTLOK:  cpu time   16.4374: real time   16.4825
    SETDIJ:  cpu time    0.2535: real time    0.2542
    TRIAL :  cpu time   44.6871: real time   44.8755
    CORREC:  cpu time   58.6690: real time   58.8955
    CHARGE:  cpu time    2.3304: real time    2.3399
    --------------------------------------------
      LOOP:  cpu time  122.4192: real time  122.8920

 eigenvalue-minimisations  :     0
 total energy-change (2. order) :-0.1486677E+03  (-0.9342648E+02)
 number of electron      30.0000000 magnetization 
 augmentation part       -0.2155048 magnetization 

 Free energy of the ion-electron system (eV)
  ---------------------------------------------------
  alpha Z        PSCENC =         0.09503522
  Ewald energy   TEWEN  =      2322.05012885
  -Hartree energ DENC   =     -2050.17049600
  -exchange      EXHF   =       200.56442317
  -V(xc)+E(xc)   XCENC  =         0.00000000
  PAW double counting   =       723.10514963     -723.49133689
  entropy T*S    EENTRO =        -0.00000000
  eigenvalues    EBANDS =     -1291.65952808
  atomic energy  EATOM  =       971.57827146
  ---------------------------------------------------
  free energy    TOTEN  =       152.07164735 eV

  energy without entropy =      152.07164735  energy(sigma->0) =      152.07164735
  exchange ACFDT corr.  =         0.00000000  see jH, gK, PRB 81, 115126


--------------------------------------------------------------------------------------------------------




----------------------------------------- Iteration    1(  12)  ---------------------------------------


    POTLOK:  cpu time   16.4148: real time   16.4596
    SETDIJ:  cpu time    0.2545: real time    0.2554
    TRIAL :  cpu time   44.6248: real time   44.8131
    CORREC:  cpu time   58.6250: real time   58.8529
    CHARGE:  cpu time    2.3276: real time    2.3371
    --------------------------------------------
      LOOP:  cpu time  122.2888: real time  122.7631

 eigenvalue-minimisations  :     0
 total energy-change (2. order) :-0.8502361E+02  (-0.5034105E+02)
 number of electron      30.0000000 magnetization 
 augmentation part       -0.1470792 magnetization 

 Free energy of the ion-electron system (eV)
  ---------------------------------------------------
  alpha Z        PSCENC =         0.09503522
  Ewald energy   TEWEN  =      2322.05012885
  -Hartree energ DENC   =     -2448.20053032
  -exchange      EXHF   =       227.55271575
  -V(xc)+E(xc)   XCENC  =         0.00000000
  PAW double counting   =       815.93647968     -816.35257479
  entropy T*S    EENTRO =        -0.00000000
  eigenvalues    EBANDS =     -1005.61149285
  atomic energy  EATOM  =       971.57827146
  ---------------------------------------------------
  free energy    TOTEN  =        67.04803300 eV

  energy without entropy =       67.04803300  energy(sigma->0) =       67.04803300
  exchange ACFDT corr.  =         0.00000000  see jH, gK, PRB 81, 115126


--------------------------------------------------------------------------------------------------------




----------------------------------------- Iteration    1(  13)  ---------------------------------------


    POTLOK:  cpu time   16.4136: real time   16.4583
    SETDIJ:  cpu time    0.2536: real time    0.2543
    TRIAL :  cpu time   44.7072: real time   44.8960
    CORREC:  cpu time   58.6574: real time   58.8843
    CHARGE:  cpu time    2.3278: real time    2.3372
    --------------------------------------------
      LOOP:  cpu time  122.4008: real time  122.8741

 eigenvalue-minimisations  :     0
 total energy-change (2. order) :-0.5208661E+02  (-0.3995488E+02)
 number of electron      30.0000000 magnetization 
 augmentation part       -0.0106017 magnetization 

 Free energy of the ion-electron system (eV)
  ---------------------------------------------------
  alpha Z        PSCENC =         0.09503522
  Ewald energy   TEWEN  =      2322.05012885
  -Hartree energ DENC   =     -2668.52393230
  -exchange      EXHF   =       247.45004127
  -V(xc)+E(xc)   XCENC  =         0.00000000
  PAW double counting   =       900.39498883     -900.79588709
  entropy T*S    EENTRO =        -0.00000000
  eigenvalues    EBANDS =      -857.28721879
  atomic energy  EATOM  =       971.57827146
  ---------------------------------------------------
  free energy    TOTEN  =        14.96142745 eV

  energy without entropy =       14.96142745  energy(sigma->0) =       14.96142745
  exchange ACFDT corr.  =         0.00000000  see jH, gK, PRB 81, 115126


--------------------------------------------------------------------------------------------------------




----------------------------------------- Iteration    1(  14)  ---------------------------------------


    POTLOK:  cpu time   16.4177: real time   16.4624
    SETDIJ:  cpu time    0.2549: real time    0.2555
    TRIAL :  cpu time   44.5684: real time   44.7568
    CORREC:  cpu time   58.6992: real time   58.9256
    CHARGE:  cpu time    2.3242: real time    2.3335
    --------------------------------------------
      LOOP:  cpu time  122.3080: real time  122.7803

 eigenvalue-minimisations  :     0
 total energy-change (2. order) :-0.4361026E+02  (-0.2838621E+02)
 number of electron      30.0000000 magnetization 
 augmentation part        0.1197979 magnetization 

 Free energy of the ion-electron system (eV)
  ---------------------------------------------------
  alpha Z        PSCENC =         0.09503522
  Ewald energy   TEWEN  =      2322.05012885
  -Hartree energ DENC   =     -2839.60503589
  -exchange      EXHF   =       267.25540993
  -V(xc)+E(xc)   XCENC  =         0.00000000
  PAW double counting   =      1040.59394454    -1040.94035381
  entropy T*S    EENTRO =        -0.00000000
  eigenvalues    EBANDS =      -749.67623302
  atomic energy  EATOM  =       971.57827146
  ---------------------------------------------------
  free energy    TOTEN  =       -28.64883274 eV

  energy without entropy =      -28.64883274  energy(sigma->0) =      -28.64883274
  exchange ACFDT corr.  =         0.00000000  see jH, gK, PRB 81, 115126


--------------------------------------------------------------------------------------------------------




----------------------------------------- Iteration    1(  15)  ---------------------------------------


    POTLOK:  cpu time   16.4173: real time   16.4620
    SETDIJ:  cpu time    0.2556: real time    0.2563
    TRIAL :  cpu time   44.6353: real time   44.8412
    CORREC:  cpu time   58.5692: real time   58.7966
    CHARGE:  cpu time    2.3334: real time    2.3428
    --------------------------------------------
      LOOP:  cpu time  122.2556: real time  122.7461

 eigenvalue-minimisations  :     0
 total energy-change (2. order) :-0.3122327E+02  (-0.1874035E+02)
 number of electron      30.0000000 magnetization 
 augmentation part        0.2073464 magnetization 

 Free energy of the ion-electron system (eV)
  ---------------------------------------------------
  alpha Z        PSCENC =         0.09503522
  Ewald energy   TEWEN  =      2322.05012885
  -Hartree energ DENC   =     -2969.29620946
  -exchange      EXHF   =       285.16980160
  -V(xc)+E(xc)   XCENC  =         0.00000000
  PAW double counting   =      1193.59014481    -1193.92979466
  entropy T*S    EENTRO =        -0.00000000
  eigenvalues    EBANDS =      -669.12948217
  atomic energy  EATOM  =       971.57827146
  ---------------------------------------------------
  free energy    TOTEN  =       -59.87210435 eV

  energy without entropy =      -59.87210435  energy(sigma->0) =      -59.87210435
  exchange ACFDT corr.  =         0.00000000  see jH, gK, PRB 81, 115126


--------------------------------------------------------------------------------------------------------




----------------------------------------- Iteration    1(  16)  ---------------------------------------


    POTLOK:  cpu time   16.4355: real time   16.4805
    SETDIJ:  cpu time    0.2575: real time    0.2582
    TRIAL :  cpu time   44.6607: real time   44.8481
    CORREC:  cpu time   58.6391: real time   58.8650
    CHARGE:  cpu time    2.3263: real time    2.3356
    --------------------------------------------
      LOOP:  cpu time  122.3596: real time  122.8301

 eigenvalue-minimisations  :     0
 total energy-change (2. order) :-0.2073568E+02  (-0.2034822E+02)
 number of electron      30.0000000 magnetization 
 augmentation part        0.3176446 magnetization 

 Free energy of the ion-electron system (eV)
  ---------------------------------------------------
  alpha Z        PSCENC =         0.09503522
  Ewald energy   TEWEN  =      2322.05012885
  -Hartree energ DENC   =     -3036.32241108
  -exchange      EXHF   =       296.58803469
  -V(xc)+E(xc)   XCENC  =         0.00000000
  PAW double counting   =      1306.57003601    -1306.95076610
  entropy T*S    EENTRO =        -0.00000000
  eigenvalues    EBANDS =      -634.21611513
  atomic energy  EATOM  =       971.57827146
  ---------------------------------------------------
  free energy    TOTEN  =       -80.60778609 eV

  energy without entropy =      -80.60778609  energy(sigma->0) =      -80.60778609
  exchange ACFDT corr.  =         0.00000000  see jH, gK, PRB 81, 115126


--------------------------------------------------------------------------------------------------------




----------------------------------------- Iteration    1(  17)  ---------------------------------------


    POTLOK:  cpu time   16.4096: real time   16.4543
    SETDIJ:  cpu time    0.2571: real time    0.2580
    TRIAL :  cpu time   44.6260: real time   44.8148
    CORREC:  cpu time   58.7864: real time   59.0161
    CHARGE:  cpu time    2.3271: real time    2.3365
    --------------------------------------------
      LOOP:  cpu time  122.4492: real time  122.9253

 eigenvalue-minimisations  :     0
 total energy-change (2. order) :-0.2935487E+02  (-0.4779137E+01)
 number of electron      30.0000000 magnetization 
 augmentation part        0.3315750 magnetization 

 Free energy of the ion-electron system (eV)
  ---------------------------------------------------
  alpha Z        PSCENC =         0.09503522
  Ewald energy   TEWEN  =      2322.05012885
  -Hartree energ DENC   =     -3131.23899094
  -exchange      EXHF   =       314.99956901
  -V(xc)+E(xc)   XCENC  =         0.00000000
  PAW double counting   =      1491.33610527    -1491.85275988
  entropy T*S    EENTRO =        -0.00000000
  eigenvalues    EBANDS =      -586.93001254
  atomic energy  EATOM  =       971.57827146
  ---------------------------------------------------
  free energy    TOTEN  =      -109.96265355 eV

  energy without entropy =     -109.96265355  energy(sigma->0) =     -109.96265355
  exchange ACFDT corr.  =         0.00000000  see jH, gK, PRB 81, 115126


--------------------------------------------------------------------------------------------------------




----------------------------------------- Iteration    1(  18)  ---------------------------------------


    POTLOK:  cpu time   16.4012: real time   16.4459
    SETDIJ:  cpu time    0.2540: real time    0.2550
    TRIAL :  cpu time   44.8425: real time   45.0313
    CORREC:  cpu time   58.8576: real time   59.0869
    CHARGE:  cpu time    2.3265: real time    2.3360
    --------------------------------------------
      LOOP:  cpu time  122.7262: real time  123.2023

 eigenvalue-minimisations  :     0
 total energy-change (2. order) :-0.4662135E+01  (-0.4659142E+01)
 number of electron      30.0000000 magnetization 
 augmentation part        0.3490569 magnetization 

 Free energy of the ion-electron system (eV)
  ---------------------------------------------------
  alpha Z        PSCENC =         0.09503522
  Ewald energy   TEWEN  =      2322.05012885
  -Hartree energ DENC   =     -3146.71051138
  -exchange      EXHF   =       317.12190419
  -V(xc)+E(xc)   XCENC  =         0.00000000
  PAW double counting   =      1501.08077491    -1501.60244755
  entropy T*S    EENTRO =        -0.00000000
  eigenvalues    EBANDS =      -578.23794379
  atomic energy  EATOM  =       971.57827146
  ---------------------------------------------------
  free energy    TOTEN  =      -114.62478809 eV

  energy without entropy =     -114.62478809  energy(sigma->0) =     -114.62478809
  exchange ACFDT corr.  =         0.00000000  see jH, gK, PRB 81, 115126


--------------------------------------------------------------------------------------------------------




----------------------------------------- Iteration    1(  19)  ---------------------------------------


    POTLOK:  cpu time   16.4039: real time   16.4489
    SETDIJ:  cpu time    0.2544: real time    0.2550
    TRIAL :  cpu time   44.8502: real time   45.0394
    CORREC:  cpu time   58.6934: real time   58.9225
    CHARGE:  cpu time    2.3331: real time    2.3426
    --------------------------------------------
      LOOP:  cpu time  122.5793: real time  123.0553

 eigenvalue-minimisations  :     0
 total energy-change (2. order) :-0.4620139E+01  (-0.2478235E+01)
 number of electron      30.0000000 magnetization 
 augmentation part        0.3747313 magnetization 

 Free energy of the ion-electron system (eV)
  ---------------------------------------------------
  alpha Z        PSCENC =         0.09503522
  Ewald energy   TEWEN  =      2322.05012885
  -Hartree energ DENC   =     -3140.59069800
  -exchange      EXHF   =       317.02861991
  -V(xc)+E(xc)   XCENC  =         0.00000000
  PAW double counting   =      1482.06993614    -1482.54618531
  entropy T*S    EENTRO =        -0.00000000
  eigenvalues    EBANDS =      -588.93003506
  atomic energy  EATOM  =       971.57827146
  ---------------------------------------------------
  free energy    TOTEN  =      -119.24492679 eV

  energy without entropy =     -119.24492679  energy(sigma->0) =     -119.24492679
  exchange ACFDT corr.  =        -0.00000000  see jH, gK, PRB 81, 115126


--------------------------------------------------------------------------------------------------------




----------------------------------------- Iteration    1(  20)  ---------------------------------------


    POTLOK:  cpu time   16.4261: real time   16.4711
    SETDIJ:  cpu time    0.2543: real time    0.2549
    TRIAL :  cpu time   44.6510: real time   44.8393
    CORREC:  cpu time   58.7227: real time   58.9499
    CHARGE:  cpu time    2.3290: real time    2.3381
    --------------------------------------------
      LOOP:  cpu time  122.4271: real time  122.8998

 eigenvalue-minimisations  :     0
 total energy-change (2. order) :-0.2524238E+01  (-0.1446599E+01)
 number of electron      30.0000000 magnetization 
 augmentation part        0.3936964 magnetization 

 Free energy of the ion-electron system (eV)
  ---------------------------------------------------
  alpha Z        PSCENC =         0.09503522
  Ewald energy   TEWEN  =      2322.05012885
  -Hartree energ DENC   =     -3138.29562161
  -exchange      EXHF   =       316.95011071
  -V(xc)+E(xc)   XCENC  =         0.00000000
  PAW double counting   =      1466.74351919    -1467.18448152
  entropy T*S    EENTRO =        -0.00000000
  eigenvalues    EBANDS =      -593.70612685
  atomic energy  EATOM  =       971.57827146
  ---------------------------------------------------
  free energy    TOTEN  =      -121.76916455 eV

  energy without entropy =     -121.76916455  energy(sigma->0) =     -121.76916455
  exchange ACFDT corr.  =         0.00000000  see jH, gK, PRB 81, 115126


--------------------------------------------------------------------------------------------------------




----------------------------------------- Iteration    1(  21)  ---------------------------------------


    POTLOK:  cpu time   16.4283: real time   16.4733
    SETDIJ:  cpu time    0.2540: real time    0.2546
    TRIAL :  cpu time   45.2913: real time   45.4817
    CORREC:  cpu time   58.8619: real time   59.0894
    CHARGE:  cpu time    2.3355: real time    2.3452
    --------------------------------------------
      LOOP:  cpu time  123.2160: real time  123.6918

 eigenvalue-minimisations  :     0
 total energy-change (2. order) :-0.1476878E+01  (-0.7679480E+00)
 number of electron      30.0000000 magnetization 
 augmentation part        0.3910921 magnetization 

 Free energy of the ion-electron system (eV)
  ---------------------------------------------------
  alpha Z        PSCENC =         0.09503522
  Ewald energy   TEWEN  =      2322.05012885
  -Hartree energ DENC   =     -3150.20730715
  -exchange      EXHF   =       318.16751149
  -V(xc)+E(xc)   XCENC  =         0.00000000
  PAW double counting   =      1469.33509229    -1469.77554713
  entropy T*S    EENTRO =        -0.00000000
  eigenvalues    EBANDS =      -584.48922798
  atomic energy  EATOM  =       971.57827146
  ---------------------------------------------------
  free energy    TOTEN  =      -123.24604295 eV

  energy without entropy =     -123.24604295  energy(sigma->0) =     -123.24604295
  exchange ACFDT corr.  =        -0.00000000  see jH, gK, PRB 81, 115126


--------------------------------------------------------------------------------------------------------




----------------------------------------- Iteration    1(  22)  ---------------------------------------


    POTLOK:  cpu time   16.5213: real time   16.5663
    SETDIJ:  cpu time    0.2579: real time    0.2588
    TRIAL :  cpu time   44.9717: real time   45.1736
    CORREC:  cpu time   58.9968: real time   59.2239
    CHARGE:  cpu time    2.3349: real time    2.3444
    --------------------------------------------
      LOOP:  cpu time  123.1237: real time  123.6107

 eigenvalue-minimisations  :     0
 total energy-change (2. order) :-0.7824007E+00  (-0.4148382E+00)
 number of electron      30.0000000 magnetization 
 augmentation part        0.3755366 magnetization 

 Free energy of the ion-electron system (eV)
  ---------------------------------------------------
  alpha Z        PSCENC =         0.09503522
  Ewald energy   TEWEN  =      2322.05012885
  -Hartree energ DENC   =     -3160.51343514
  -exchange      EXHF   =       319.27806497
  -V(xc)+E(xc)   XCENC  =         0.00000000
  PAW double counting   =      1477.30417219    -1477.76588927
  entropy T*S    EENTRO =        -0.00000000
  eigenvalues    EBANDS =      -576.05479194
  atomic energy  EATOM  =       971.57827146
  ---------------------------------------------------
  free energy    TOTEN  =      -124.02844367 eV

  energy without entropy =     -124.02844367  energy(sigma->0) =     -124.02844367
  exchange ACFDT corr.  =         0.00000000  see jH, gK, PRB 81, 115126


--------------------------------------------------------------------------------------------------------




----------------------------------------- Iteration    1(  23)  ---------------------------------------


    POTLOK:  cpu time   16.5131: real time   16.5583
    SETDIJ:  cpu time    0.2546: real time    0.2552
    TRIAL :  cpu time   45.3458: real time   45.5359
    CORREC:  cpu time   58.8138: real time   59.0421
    CHARGE:  cpu time    2.3382: real time    2.3477
    --------------------------------------------
      LOOP:  cpu time  123.3071: real time  123.7837

 eigenvalue-minimisations  :     0
 total energy-change (2. order) :-0.4188043E+00  (-0.1984934E+00)
 number of electron      30.0000000 magnetization 
 augmentation part        0.3656782 magnetization 

 Free energy of the ion-electron system (eV)
  ---------------------------------------------------
  alpha Z        PSCENC =         0.09503522
  Ewald energy   TEWEN  =      2322.05012885
  -Hartree energ DENC   =     -3163.45551066
  -exchange      EXHF   =       319.67050630
  -V(xc)+E(xc)   XCENC  =         0.00000000
  PAW double counting   =      1481.17718586    -1481.65740296
  entropy T*S    EENTRO =        -0.00000000
  eigenvalues    EBANDS =      -573.90546205
  atomic energy  EATOM  =       971.57827146
  ---------------------------------------------------
  free energy    TOTEN  =      -124.44724798 eV

  energy without entropy =     -124.44724798  energy(sigma->0) =     -124.44724798
  exchange ACFDT corr.  =         0.00000000  see jH, gK, PRB 81, 115126


--------------------------------------------------------------------------------------------------------




----------------------------------------- Iteration    1(  24)  ---------------------------------------


    POTLOK:  cpu time   16.5099: real time   16.5551
    SETDIJ:  cpu time    0.2567: real time    0.2573
    TRIAL :  cpu time   45.1623: real time   45.3520
    CORREC:  cpu time   59.1138: real time   59.3403
    CHARGE:  cpu time    2.3401: real time    2.3495
    --------------------------------------------
      LOOP:  cpu time  123.4183: real time  123.8920

 eigenvalue-minimisations  :     0
 total energy-change (2. order) :-0.1992563E+00  (-0.8837759E-01)
 number of electron      30.0000000 magnetization 
 augmentation part        0.3652141 magnetization 

 Free energy of the ion-electron system (eV)
  ---------------------------------------------------
  alpha Z        PSCENC =         0.09503522
  Ewald energy   TEWEN  =      2322.05012885
  -Hartree energ DENC   =     -3163.04828569
  -exchange      EXHF   =       319.70035507
  -V(xc)+E(xc)   XCENC  =         0.00000000
  PAW double counting   =      1481.92377061    -1482.40397494
  entropy T*S    EENTRO =        -0.00000000
  eigenvalues    EBANDS =      -574.54180485
  atomic energy  EATOM  =       971.57827146
  ---------------------------------------------------
  free energy    TOTEN  =      -124.64650427 eV

  energy without entropy =     -124.64650427  energy(sigma->0) =     -124.64650427
  exchange ACFDT corr.  =         0.00000000  see jH, gK, PRB 81, 115126


--------------------------------------------------------------------------------------------------------




----------------------------------------- Iteration    1(  25)  ---------------------------------------


    POTLOK:  cpu time   16.5254: real time   16.5707
    SETDIJ:  cpu time    0.2600: real time    0.2606
    TRIAL :  cpu time   45.3198: real time   45.5102
    CORREC:  cpu time   59.1549: real time   59.3841
    CHARGE:  cpu time    2.3501: real time    2.3593
    --------------------------------------------
      LOOP:  cpu time  123.6541: real time  124.1316

 eigenvalue-minimisations  :     0
 total energy-change (2. order) :-0.8850871E-01  (-0.4078876E-01)
 number of electron      30.0000000 magnetization 
 augmentation part        0.3680627 magnetization 

 Free energy of the ion-electron system (eV)
  ---------------------------------------------------
  alpha Z        PSCENC =         0.09503522
  Ewald energy   TEWEN  =      2322.05012885
  -Hartree energ DENC   =     -3163.25147308
  -exchange      EXHF   =       319.76046686
  -V(xc)+E(xc)   XCENC  =         0.00000000
  PAW double counting   =      1482.78178821    -1483.25488805
  entropy T*S    EENTRO =        -0.00000000
  eigenvalues    EBANDS =      -574.49434244
  atomic energy  EATOM  =       971.57827146
  ---------------------------------------------------
  free energy    TOTEN  =      -124.73501298 eV

  energy without entropy =     -124.73501298  energy(sigma->0) =     -124.73501298
  exchange ACFDT corr.  =         0.00000000  see jH, gK, PRB 81, 115126


--------------------------------------------------------------------------------------------------------




----------------------------------------- Iteration    1(  26)  ---------------------------------------


    POTLOK:  cpu time   16.5202: real time   16.5654
    SETDIJ:  cpu time    0.2550: real time    0.2557
    TRIAL :  cpu time   45.3566: real time   45.5471
    CORREC:  cpu time   59.0152: real time   59.2439
    CHARGE:  cpu time    2.3382: real time    2.3474
    --------------------------------------------
      LOOP:  cpu time  123.5237: real time  124.0007

 eigenvalue-minimisations  :     0
 total energy-change (2. order) :-0.4078144E-01  (-0.2148058E-01)
 number of electron      30.0000000 magnetization 
 augmentation part        0.3697713 magnetization 

 Free energy of the ion-electron system (eV)
  ---------------------------------------------------
  alpha Z        PSCENC =         0.09503522
  Ewald energy   TEWEN  =      2322.05012885
  -Hartree energ DENC   =     -3164.29989968
  -exchange      EXHF   =       319.87686584
  -V(xc)+E(xc)   XCENC  =         0.00000000
  PAW double counting   =      1484.11172346    -1484.58186646
  entropy T*S    EENTRO =        -0.00000000
  eigenvalues    EBANDS =      -573.60605309
  atomic energy  EATOM  =       971.57827146
  ---------------------------------------------------
  free energy    TOTEN  =      -124.77579442 eV

  energy without entropy =     -124.77579442  energy(sigma->0) =     -124.77579442
  exchange ACFDT corr.  =         0.00000000  see jH, gK, PRB 81, 115126


--------------------------------------------------------------------------------------------------------




----------------------------------------- Iteration    1(  27)  ---------------------------------------


    POTLOK:  cpu time   16.4917: real time   16.5369
    SETDIJ:  cpu time    0.2608: real time    0.2614
    TRIAL :  cpu time   45.3895: real time   45.5790
    CORREC:  cpu time   59.0837: real time   59.3115
    CHARGE:  cpu time    2.3429: real time    2.3523
    --------------------------------------------
      LOOP:  cpu time  123.6102: real time  124.0854

 eigenvalue-minimisations  :     0
 total energy-change (2. order) :-0.2146785E-01  (-0.1052358E-01)
 number of electron      30.0000000 magnetization 
 augmentation part        0.3693145 magnetization 

 Free energy of the ion-electron system (eV)
  ---------------------------------------------------
  alpha Z        PSCENC =         0.09503522
  Ewald energy   TEWEN  =      2322.05012885
  -Hartree energ DENC   =     -3165.19153500
  -exchange      EXHF   =       319.96433814
  -V(xc)+E(xc)   XCENC  =         0.00000000
  PAW double counting   =      1485.17083374    -1485.64262546
  entropy T*S    EENTRO =        -0.00000000
  eigenvalues    EBANDS =      -572.82170920
  atomic energy  EATOM  =       971.57827146
  ---------------------------------------------------
  free energy    TOTEN  =      -124.79726227 eV

  energy without entropy =     -124.79726227  energy(sigma->0) =     -124.79726227
  exchange ACFDT corr.  =         0.00000000  see jH, gK, PRB 81, 115126


--------------------------------------------------------------------------------------------------------




----------------------------------------- Iteration    1(  28)  ---------------------------------------


    POTLOK:  cpu time   16.5133: real time   16.5585
    SETDIJ:  cpu time    0.2552: real time    0.2558
    TRIAL :  cpu time   45.3861: real time   45.5771
    CORREC:  cpu time   59.1131: real time   59.3426
    CHARGE:  cpu time    2.3422: real time    2.3515
    --------------------------------------------
      LOOP:  cpu time  123.6526: real time  124.1310

 eigenvalue-minimisations  :     0
 total energy-change (2. order) :-0.1052552E-01  (-0.5585006E-02)
 number of electron      30.0000000 magnetization 
 augmentation part        0.3685459 magnetization 

 Free energy of the ion-electron system (eV)
  ---------------------------------------------------
  alpha Z        PSCENC =         0.09503522
  Ewald energy   TEWEN  =      2322.05012885
  -Hartree energ DENC   =     -3165.36928166
  -exchange      EXHF   =       319.97556820
  -V(xc)+E(xc)   XCENC  =         0.00000000
  PAW double counting   =      1485.47656718    -1485.95047294
  entropy T*S    EENTRO =        -0.00000000
  eigenvalues    EBANDS =      -572.66360410
  atomic energy  EATOM  =       971.57827146
  ---------------------------------------------------
  free energy    TOTEN  =      -124.80778778 eV

  energy without entropy =     -124.80778778  energy(sigma->0) =     -124.80778778
  exchange ACFDT corr.  =         0.00000000  see jH, gK, PRB 81, 115126


--------------------------------------------------------------------------------------------------------




----------------------------------------- Iteration    1(  29)  ---------------------------------------


    POTLOK:  cpu time   16.4918: real time   16.5370
    SETDIJ:  cpu time    0.2572: real time    0.2579
    TRIAL :  cpu time   45.5852: real time   45.7761
    CORREC:  cpu time   58.8256: real time   59.0538
    CHARGE:  cpu time    2.3375: real time    2.3470
    --------------------------------------------
      LOOP:  cpu time  123.5381: real time  124.0151

 eigenvalue-minimisations  :     0
 total energy-change (2. order) :-0.5584488E-02  (-0.3053409E-02)
 number of electron      30.0000000 magnetization 
 augmentation part        0.3686169 magnetization 

 Free energy of the ion-electron system (eV)
  ---------------------------------------------------
  alpha Z        PSCENC =         0.09503522
  Ewald energy   TEWEN  =      2322.05012885
  -Hartree energ DENC   =     -3165.22444565
  -exchange      EXHF   =       319.95472356
  -V(xc)+E(xc)   XCENC  =         0.00000000
  PAW double counting   =      1485.43239329    -1485.90627229
  entropy T*S    EENTRO =        -0.00000000
  eigenvalues    EBANDS =      -572.79320670
  atomic energy  EATOM  =       971.57827146
  ---------------------------------------------------
  free energy    TOTEN  =      -124.81337227 eV

  energy without entropy =     -124.81337227  energy(sigma->0) =     -124.81337227
  exchange ACFDT corr.  =         0.00000000  see jH, gK, PRB 81, 115126


--------------------------------------------------------------------------------------------------------




----------------------------------------- Iteration    1(  30)  ---------------------------------------


    POTLOK:  cpu time   16.5217: real time   16.5669
    SETDIJ:  cpu time    0.2580: real time    0.2586
    TRIAL :  cpu time   45.2833: real time   45.4735
    CORREC:  cpu time   58.9016: real time   59.1306
    CHARGE:  cpu time    2.3462: real time    2.3556
    --------------------------------------------
      LOOP:  cpu time  123.3507: real time  123.8283

 eigenvalue-minimisations  :     0
 total energy-change (2. order) :-0.3051650E-02  (-0.1605220E-02)
 number of electron      30.0000000 magnetization 
 augmentation part        0.3691213 magnetization 

 Free energy of the ion-electron system (eV)
  ---------------------------------------------------
  alpha Z        PSCENC =         0.09503522
  Ewald energy   TEWEN  =      2322.05012885
  -Hartree energ DENC   =     -3165.12272312
  -exchange      EXHF   =       319.94027354
  -V(xc)+E(xc)   XCENC  =         0.00000000
  PAW double counting   =      1485.43193937    -1485.90473969
  entropy T*S    EENTRO =        -0.00000000
  eigenvalues    EBANDS =      -572.88460954
  atomic energy  EATOM  =       971.57827146
  ---------------------------------------------------
  free energy    TOTEN  =      -124.81642392 eV

  energy without entropy =     -124.81642392  energy(sigma->0) =     -124.81642392
  exchange ACFDT corr.  =         0.00000000  see jH, gK, PRB 81, 115126


--------------------------------------------------------------------------------------------------------




----------------------------------------- Iteration    1(  31)  ---------------------------------------


    POTLOK:  cpu time   16.5068: real time   16.5520
    SETDIJ:  cpu time    0.2602: real time    0.2608
    TRIAL :  cpu time   45.3873: real time   45.5782
    CORREC:  cpu time   59.1780: real time   59.4066
    CHARGE:  cpu time    2.3384: real time    2.3477
    --------------------------------------------
      LOOP:  cpu time  123.7105: real time  124.1876

 eigenvalue-minimisations  :     0
 total energy-change (2. order) :-0.1605178E-02  (-0.8540397E-03)
 number of electron      30.0000000 magnetization 
 augmentation part        0.3693971 magnetization 

 Free energy of the ion-electron system (eV)
  ---------------------------------------------------
  alpha Z        PSCENC =         0.09503522
  Ewald energy   TEWEN  =      2322.05012885
  -Hartree energ DENC   =     -3165.15721056
  -exchange      EXHF   =       319.94356702
  -V(xc)+E(xc)   XCENC  =         0.00000000
  PAW double counting   =      1485.56797378    -1486.04049224
  entropy T*S    EENTRO =        -0.00000000
  eigenvalues    EBANDS =      -572.85530263
  atomic energy  EATOM  =       971.57827146
  ---------------------------------------------------
  free energy    TOTEN  =      -124.81802910 eV

  energy without entropy =     -124.81802910  energy(sigma->0) =     -124.81802910
  exchange ACFDT corr.  =         0.00000000  see jH, gK, PRB 81, 115126


--------------------------------------------------------------------------------------------------------




----------------------------------------- Iteration    1(  32)  ---------------------------------------


    POTLOK:  cpu time   16.5139: real time   16.5591
    SETDIJ:  cpu time    0.2550: real time    0.2556
    TRIAL :  cpu time   45.3331: real time   45.5248
    CORREC:  cpu time   59.1136: real time   59.3421
    CHARGE:  cpu time    2.3332: real time    2.3427
    --------------------------------------------
      LOOP:  cpu time  123.5890: real time  124.0670

 eigenvalue-minimisations  :     0
 total energy-change (2. order) :-0.8544789E-03  (-0.4488012E-03)
 number of electron      30.0000000 magnetization 
 augmentation part        0.3694216 magnetization 

 Free energy of the ion-electron system (eV)
  ---------------------------------------------------
  alpha Z        PSCENC =         0.09503522
  Ewald energy   TEWEN  =      2322.05012885
  -Hartree energ DENC   =     -3165.19056369
  -exchange      EXHF   =       319.94889915
  -V(xc)+E(xc)   XCENC  =         0.00000000
  PAW double counting   =      1485.67856806    -1486.15150415
  entropy T*S    EENTRO =        -0.00000000
  eigenvalues    EBANDS =      -572.82771849
  atomic energy  EATOM  =       971.57827146
  ---------------------------------------------------
  free energy    TOTEN  =      -124.81888358 eV

  energy without entropy =     -124.81888358  energy(sigma->0) =     -124.81888358
  exchange ACFDT corr.  =         0.00000000  see jH, gK, PRB 81, 115126


--------------------------------------------------------------------------------------------------------




----------------------------------------- Iteration    1(  33)  ---------------------------------------


    POTLOK:  cpu time   16.4852: real time   16.5303
    SETDIJ:  cpu time    0.2558: real time    0.2565
    TRIAL :  cpu time   45.5130: real time   45.7048
    CORREC:  cpu time   58.9032: real time   59.1308
    CHARGE:  cpu time    2.3303: real time    2.3393
    --------------------------------------------
      LOOP:  cpu time  123.5294: real time  124.0063

 eigenvalue-minimisations  :     0
 total energy-change (2. order) :-0.4487626E-03  (-0.2640496E-03)
 number of electron      30.0000000 magnetization 
 augmentation part        0.3693344 magnetization 

 Free energy of the ion-electron system (eV)
  ---------------------------------------------------
  alpha Z        PSCENC =         0.09503522
  Ewald energy   TEWEN  =      2322.05012885
  -Hartree energ DENC   =     -3165.19443957
  -exchange      EXHF   =       319.95108425
  -V(xc)+E(xc)   XCENC  =         0.00000000
  PAW double counting   =      1485.71343414    -1486.18664110
  entropy T*S    EENTRO =        -0.00000000
  eigenvalues    EBANDS =      -572.82620559
  atomic energy  EATOM  =       971.57827146
  ---------------------------------------------------
  free energy    TOTEN  =      -124.81933234 eV

  energy without entropy =     -124.81933234  energy(sigma->0) =     -124.81933234
  exchange ACFDT corr.  =         0.00000000  see jH, gK, PRB 81, 115126


--------------------------------------------------------------------------------------------------------




[...]
    SETDIJ:  cpu time    0.2528: real time    0.2537
    TRIAL :  cpu time   45.2777: real time   45.4687
    CORREC:  cpu time   59.1819: real time   59.4103
    CHARGE:  cpu time    2.3390: real time    2.3487
    --------------------------------------------
      LOOP:  cpu time  123.7260: real time  124.2034

 eigenvalue-minimisations  :     0
 total energy-change (2. order) :-0.3545165E-06  (-0.2025075E-06)
 number of electron      30.0000000 magnetization 
 augmentation part        0.3692895 magnetization 

 Free energy of the ion-electron system (eV)
  ---------------------------------------------------
  alpha Z        PSCENC =         0.09503522
  Ewald energy   TEWEN  =      2322.05012885
  -Hartree energ DENC   =     -3165.21117281
  -exchange      EXHF   =       319.96216304
  -V(xc)+E(xc)   XCENC  =         0.00000000
  PAW double counting   =      1485.70399371    -1486.17673891
  entropy T*S    EENTRO =        -0.00000000
  eigenvalues    EBANDS =      -572.82177335
  atomic energy  EATOM  =       971.57827146
  ---------------------------------------------------
  free energy    TOTEN  =      -124.82009280 eV

  energy without entropy =     -124.82009280  energy(sigma->0) =     -124.82009280
  exchange ACFDT corr.  =         0.00000000  see jH, gK, PRB 81, 115126


--------------------------------------------------------------------------------------------------------




----------------------------------------- Iteration    1(  55)  ---------------------------------------


    POTLOK:  cpu time   16.6413: real time   16.6869
    SETDIJ:  cpu time    0.2533: real time    0.2539
    TRIAL :  cpu time   45.2955: real time   45.4859
    CORREC:  cpu time   59.2793: real time   59.5075
    CHARGE:  cpu time    2.3380: real time    2.3473
    --------------------------------------------
      LOOP:  cpu time  123.8344: real time  124.3110

 eigenvalue-minimisations  :     0
 total energy-change (2. order) :-0.2023216E-06  (-0.1326084E-06)
 number of electron      30.0000000 magnetization 
 augmentation part        0.3692900 magnetization 

 Free energy of the ion-electron system (eV)
  ---------------------------------------------------
  alpha Z        PSCENC =         0.09503522
  Ewald energy   TEWEN  =      2322.05012885
  -Hartree energ DENC   =     -3165.21130944
  -exchange      EXHF   =       319.96220318
  -V(xc)+E(xc)   XCENC  =         0.00000000
  PAW double counting   =      1485.70134929    -1486.17408643
  entropy T*S    EENTRO =        -0.00000000
  eigenvalues    EBANDS =      -572.82168512
  atomic energy  EATOM  =       971.57827146
  ---------------------------------------------------
  free energy    TOTEN  =      -124.82009300 eV

  energy without entropy =     -124.82009300  energy(sigma->0) =     -124.82009300
  exchange ACFDT corr.  =         0.00000000  see jH, gK, PRB 81, 115126


--------------------------------------------------------------------------------------------------------




----------------------------------------- Iteration    1(  56)  ---------------------------------------


    POTLOK:  cpu time   16.6578: real time   16.7033
    SETDIJ:  cpu time    0.2526: real time    0.2532
    TRIAL :  cpu time   45.2888: real time   45.4788
    CORREC:  cpu time   59.2444: real time   59.4728
    CHARGE:  cpu time    2.3409: real time    2.3508
    --------------------------------------------
      LOOP:  cpu time  123.8120: real time  124.2891

 eigenvalue-minimisations  :     0
 total energy-change (2. order) :-0.1324138E-06  (-0.8677668E-07)
 number of electron      30.0000000 magnetization 
 augmentation part        0.3692905 magnetization 

 Free energy of the ion-electron system (eV)
  ---------------------------------------------------
  alpha Z        PSCENC =         0.09503522
  Ewald energy   TEWEN  =      2322.05012885
  -Hartree energ DENC   =     -3165.21123309
  -exchange      EXHF   =       319.96218269
  -V(xc)+E(xc)   XCENC  =         0.00000000
  PAW double counting   =      1485.69865374    -1486.17138840
  entropy T*S    EENTRO =        -0.00000000
  eigenvalues    EBANDS =      -572.82174359
  atomic energy  EATOM  =       971.57827146
  ---------------------------------------------------
  free energy    TOTEN  =      -124.82009313 eV

  energy without entropy =     -124.82009313  energy(sigma->0) =     -124.82009313
  exchange ACFDT corr.  =         0.00000000  see jH, gK, PRB 81, 115126


--------------------------------------------------------------------------------------------------------




----------------------------------------- Iteration    1(  57)  ---------------------------------------


    POTLOK:  cpu time   16.6660: real time   16.7114
    SETDIJ:  cpu time    0.2521: real time    0.2530
    TRIAL :  cpu time   45.2919: real time   45.4822
    CORREC:  cpu time   59.1463: real time   59.3759
    CHARGE:  cpu time    2.3397: real time    2.3492
    --------------------------------------------
      LOOP:  cpu time  123.7238: real time  124.2018

 eigenvalue-minimisations  :     0
 total energy-change (2. order) :-0.8660891E-07  (-0.6051603E-07)
 number of electron      30.0000000 magnetization 
 augmentation part        0.3692920 magnetization 

 Free energy of the ion-electron system (eV)
  ---------------------------------------------------
  alpha Z        PSCENC =         0.09503522
  Ewald energy   TEWEN  =      2322.05012885
  -Hartree energ DENC   =     -3165.21115557
  -exchange      EXHF   =       319.96215684
  -V(xc)+E(xc)   XCENC  =         0.00000000
  PAW double counting   =      1485.69691135    -1486.16964536
  entropy T*S    EENTRO =        -0.00000000
  eigenvalues    EBANDS =      -572.82179601
  atomic energy  EATOM  =       971.57827146
  ---------------------------------------------------
  free energy    TOTEN  =      -124.82009322 eV

  energy without entropy =     -124.82009322  energy(sigma->0) =     -124.82009322
  exchange ACFDT corr.  =         0.00000000  see jH, gK, PRB 81, 115126


--------------------------------------------------------------------------------------------------------


  average scaling for gradient   0.4998


 average (electrostatic) potential at core
  the test charge radii are     0.5902  0.6991  0.5883
  (the norm of the test charge is              1.0000)
       1 -49.4470       2 -42.6613       3 -41.8142       4 -42.2864       5 -41.8142
       6 -42.6612       7 -21.8646       8 -22.0818       9 -22.2963      10 -22.0817
      11 -21.8647
 
 
 
 E-fermi :  -9.3691     XC(G=0):   0.0000     alpha+bet : -0.0169


 k-point     1 :       0.0000    0.0000    0.0000
  band No.  band energies     occupation 
      1     -34.2326      2.00000
      2     -29.6764      2.00000
      3     -28.1294      2.00000
      4     -23.3940      2.00000
      5     -23.2948      2.00000
      6     -19.6524      2.00000
      7     -17.9771      2.00000
      8     -17.8050      2.00000
      9     -16.2750      2.00000
     10     -15.7141      2.00000
     11     -14.7497      2.00000
     12     -14.1431      2.00000
     13     -11.4131      2.00000
     14     -10.4742      2.00000
     15      -9.4798      2.00000
     16       0.0116      0.00000
     17       0.1245      0.00000
     18       0.1317      0.00000
     19       0.1339      0.00000
     20       0.1355      0.00000
     21       0.1384      0.00000
     22       0.1551      0.00000
     23       0.2544      0.00000
     24       0.2587      0.00000


--------------------------------------------------------------------------------------------------------


 soft charge-density along one line, spin component           1
         0         1         2         3         4         5         6         7         8         9
 total charge-density along one line
 
 pseudopotential strength for first ion, spin component:           1
 10.866  -9.534   0.000  -0.001  -0.016   0.000  -0.018  -0.307
 -9.534  11.374   0.000  -0.001  -0.026  -0.000   0.025   0.441
  0.000   0.000  -4.824  -0.000  -0.000  -2.853   0.000   0.000
 -0.001  -0.001  -0.000  -4.849   0.010   0.000  -2.787  -0.023
 -0.016  -0.026  -0.000   0.010  -4.687   0.000  -0.023  -3.182
  0.000  -0.000  -2.853   0.000   0.000  44.770  -0.000  -0.000
 -0.018   0.025   0.000  -2.787  -0.023  -0.000  44.586   0.041
 -0.307   0.441   0.000  -0.023  -3.182  -0.000   0.041  45.280
 total augmentation occupancy for first ion, spin component:           1
  1.832   0.064  -0.000   0.008   0.146   0.000  -0.002  -0.035
  0.064   0.004   0.000  -0.003  -0.045   0.000  -0.000  -0.004
 -0.000   0.000   1.480  -0.000  -0.000   0.124  -0.000   0.000
  0.008  -0.003  -0.000   1.107   0.037  -0.000   0.066   0.001
  0.146  -0.045  -0.000   0.037   1.740   0.000   0.001   0.079
  0.000   0.000   0.124  -0.000   0.000   0.011  -0.000   0.000
 -0.002  -0.000  -0.000   0.066   0.001  -0.000   0.004   0.000
 -0.035  -0.004   0.000   0.001   0.079   0.000   0.000   0.005


------------------------ aborting loop because EDIFF is reached ----------------------------------------


    FORLOC:  cpu time    1.8180: real time    1.8230
    FORHF :  cpu time   33.4069: real time   33.4995
    FORNL :  cpu time    1.7206: real time    1.7254
    OFIELD:  cpu time    0.1714: real time    0.1718

 VOLUME and BASIS-vectors are now :
 -----------------------------------------------------------------------------
  energy-cutoff  :     1600.00
  volume of cell :    42875.00
      direct lattice vectors                 reciprocal lattice vectors
    35.000000000  0.000000000  0.000000000     0.028571429  0.000000000  0.000000000
     0.000000000 35.000000000  0.000000000     0.000000000  0.028571429  0.000000000
     0.000000000  0.000000000 35.000000000     0.000000000  0.000000000  0.028571429

  length of vectors
    35.000000000 35.000000000 35.000000000     0.028571429  0.028571429  0.028571429


 FORCES acting on ions:
    Electron-Ion                     Ewald-Force                    Non-Local-Force
 -----------------------------------------------------------------------------------------------
   -.272E+03 0.345E-01 -.158E+02   0.307E+03 -.390E-01 0.178E+02   -.235E+02 0.293E-02 -.132E+01
   -.770E+02 0.183E+03 -.536E+01   0.759E+02 -.185E+03 0.529E+01   0.101E+01 0.327E+01 0.343E-01
   0.955E+02 0.164E+03 0.538E+01   -.957E+02 -.165E+03 -.539E+01   0.440E+00 0.117E+01 0.863E-02
   0.190E+03 -.235E-01 0.124E+02   -.190E+03 0.230E-01 -.124E+02   0.948E+00 -.506E-03 0.931E-01
   0.955E+02 -.164E+03 0.540E+01   -.956E+02 0.165E+03 -.541E+01   0.440E+00 -.117E+01 0.842E-02
   -.770E+02 -.183E+03 -.533E+01   0.760E+02 0.185E+03 0.526E+01   0.101E+01 -.328E+01 0.349E-01
   -.436E+02 0.717E+02 -.261E+01   0.469E+02 -.768E+02 0.281E+01   -.321E+01 0.495E+01 -.186E+00
   0.391E+02 0.722E+02 0.242E+01   -.418E+02 -.775E+02 -.260E+01   0.270E+01 0.512E+01 0.172E+00
   0.815E+02 -.984E-02 0.518E+01   -.876E+02 0.106E-01 -.557E+01   0.583E+01 -.642E-03 0.369E+00
   0.390E+02 -.722E+02 0.243E+01   -.418E+02 0.775E+02 -.260E+01   0.270E+01 -.512E+01 0.172E+00
   -.436E+02 -.717E+02 -.259E+01   0.469E+02 0.768E+02 0.279E+01   -.321E+01 -.495E+01 -.185E+00
 -----------------------------------------------------------------------------------------------
   0.273E+02 -.257E-02 0.149E+01   0.497E-13 0.711E-13 -.444E-15   -.149E+02 0.117E-02 -.799E+00
 
 
 POSITION                                       TOTAL-FORCE (eV/Angst)
 -----------------------------------------------------------------------------------
      1.38138     34.99977      0.13146        -1.564275      0.000056     -0.056521
      0.67935     33.85976      0.09208         0.248066      0.746675     -0.015783
     34.29028     33.80689      0.00666         0.143568      0.208362     -0.008017
     33.57839      0.00013     34.95918         0.491437     -0.001045      0.065223
     34.29060      1.19318      0.00652         0.143692     -0.207599     -0.008202
      0.67965      1.13996      0.09189         0.247701     -0.747359     -0.015449
      1.25872     32.94504      0.12588        -0.207742      0.327046     -0.005362
     33.78591     32.85144     34.97469         0.180393      0.315855      0.015310
     32.49930      0.00026     34.89083         0.344449      0.000062      0.018807
     33.78649      2.14875     34.97447         0.180210     -0.315706      0.015129
      1.25926      2.05451      0.12550        -0.207500     -0.326346     -0.005136
 -----------------------------------------------------------------------------------
    total drift:                               -0.000896      0.000072      0.000057


--------------------------------------------------------------------------------------------------------



  FREE ENERGIE OF THE ION-ELECTRON SYSTEM (eV)
  ---------------------------------------------------
  free  energy   TOTEN  =      -124.82009322 eV

  energy  without entropy=     -124.82009322  energy(sigma->0) =     -124.82009322
 


--------------------------------------------------------------------------------------------------------


    POTLOK:  cpu time   16.9318: real time   16.9781


--------------------------------------------------------------------------------------------------------


     LOOP+:  cpu time 7133.2070: real time 7160.1348
    4ORBIT:  cpu time    0.0000: real time    0.0000

 total amount of memory used by VASP on root node  4053858. kBytes
========================================================================

   base      :      30000. kBytes
   nonl-proj :     190038. kBytes
   fftplans  :    1395487. kBytes
   grid      :    2325657. kBytes
   one-center:          8. kBytes
   HF        :         67. kBytes
   nonlr-proj:        446. kBytes
   wavefun   :     112155. kBytes
 
  
  
 General timing and accounting informations for this job:
 ========================================================
  
                  Total CPU time used (sec):     7907.867
                            User time (sec):     7247.083
                          System time (sec):      660.783
                         Elapsed time (sec):     7937.406
  
                   Maximum memory used (kb):     5772260.
                   Average memory used (kb):           0.
  
                          Minor page faults:      2356072
                          Major page faults:            4
                 Voluntary context switches:       890310
 
 PROFILE, used timers:      39
 =============================
 
 index                 routine                    time                            calls level
----------------------------------------------------------------------------------------------
    1    total_time                         7937.406639                                1   1
    2      w1_copy                               1.892755                           1446   2
    3      fftwav_mpi                          249.636669                           1192   2
    4      fftext_mpi                            0.795361                              6   2
    5      overl                                 0.001193                            739   2
    6      orth1                                 1.892408                            447   2
    7      lincom                                2.497966                            318   2
    8      eccp                                 38.931554                            966   2
    9      hamiltmu                             34.685723                             62   2
   10        vhamil                                6.210457                          124   3
   11        overl1                                0.000161                          124   3
   12        kinhamil                             16.457021                          124   3
   13          fftext_mpi                           16.293392                        124   4
   14      pdssyex_zheevx                        2.399648                            109   2
   15      fock_acc                           2005.805986                            156   2
   16        w1_copy                               1.806397                          936   3
   17        fftwav_mpi                           96.810863                          936   3
   18        fock_charge_mu                      101.178639                          624   3
   19          racc0mu_hf                            1.031668                        624   4
   20        rpromu_hf                             3.778017                          624   3
   21        overl1                                0.000361                          312   3
   22        fftext_mpi                           29.991519                          312   3
   23      hamilt_local                         55.669760                            312   2
   24        vhamil                               14.734275                          312   3
   25        kinhamil                             40.934723                          312   3
   26          fftext_mpi                           40.512525                        312   4
   27      w1_dscal                              7.361201                            312   2
   28      eddiag                             2075.295979                             52   2
   29        fock_acc                           2000.659971                          156   3
   30          w1_copy                               1.613137                        936   4
   31          fftwav_mpi                           98.691717                        936   4
   32          fock_charge_mu                      101.511079                        624   4
   33            racc0mu_hf                            1.492985                      624   5
   34          rpromu_hf                             4.033610                        624   4
   35          overl1                                0.000352                        312   4
   36          fftext_mpi                           29.012924                        312   4
   37        fftwav_mpi                           61.137316                          312   3
   38        eccp                                 11.543860                          312   3
   39      rpro1_hf                              0.545196                            384   2
 
 Flat profile
 ============
 
             routine name                   CPU           calls
 ---------------------------------------------------------------
 fock_acc                             3538.037344         312
 total_time                           3459.995240           1
 fftwav_mpi                            506.276565        3376
 fock_charge_mu                        200.165065        1248
 fftext_mpi                            116.605721        1066
 eccp                                   50.475414        1278
 vhamil                                 20.944732         436
 hamiltmu                               12.018085          62
 rpromu_hf                               7.811627        1248
 w1_dscal                                7.361201         312
 w1_copy                                 5.312289        3318
 racc0mu_hf                              2.524653        1248
 lincom                                  2.497966         318
 pdssyex_zheevx                          2.399648         109
 eddiag                                  1.954832          52
 orth1                                   1.892408         447
 kinhamil                                0.585827         436
 rpro1_hf                                0.545196         384
 overl                                   0.001193         739
 overl1                                  0.000873         748
 hamilt_local                            0.000762         312
 ---------------------------------------------------------------
  summed up times    7937.40663909912     
 
Profiling took   0.014096  0.005832  0.003210  0.003184 seconds
Profiling took   0.010505 seconds
