 vasp.5.4.1 24Jun15 (build Jan 02 2020 16:21:29) gamma-only                     
  
 executed on           IFC15_impi date 2020.04.21  02:59:27
 running on   32 total cores
 distrk:  each k-point on   32 cores,    1 groups
 distr:  one band on NCORES_PER_BAND=   8 cores,    4 groups


--------------------------------------------------------------------------------------------------------


 INCAR:
 POTCAR:    PAW_PBE C_GW 28Sep2005                
 POTCAR:    PAW_PBE H_GW 21Apr2008                
 POTCAR:    PAW_PBE C_GW 28Sep2005                
   VRHFIN =C: s2p2                                                              
   LEXCH  = PE                                                                  
   EATOM  =   147.1560 eV,   10.8157 Ry                                         
                                                                                
   TITEL  = PAW_PBE C_GW 28Sep2005                                              
   LULTRA =        F    use ultrasoft PP ?                                      
   IUNSCR =        0    unscreen: 0-lin 1-nonlin 2-no                           
   RPACOR =    0.000    partial core radius                                     
   POMASS =   12.011; ZVAL   =    4.000    mass and valenz                      
   RCORE  =    1.500    outmost cutoff radius                                   
   RWIGS  =    1.630; RWIGS  =    0.863    wigner-seitz radius (au A)           
   ENMAX  =  413.992; ENMIN  =  310.494 eV                                      
   ICORE  =        2    local potential                                         
   LCOR   =        T    correct aug charges                                     
   LPAW   =        T    paw PP                                                  
   EAUG   =  644.873                                                            
   DEXC   =    0.000                                                            
   RMAX   =    1.529    core radius for proj-oper                               
   RAUG   =    1.300    factor for augmentation sphere                          
   RDEP   =    1.501    radius for radial grids                                 
   RDEPT  =    1.300    core radius for aug-charge                              
                                                                                
   Atomic configuration                                                         
    4 entries                                                                   
     n  l   j            E        occ.                                          
     1  0  0.50      -273.3789   2.0000                                         
     2  0  0.50       -13.7508   2.0000                                         
     2  1  0.50        -5.2854   2.0000                                         
     3  2  1.50        -5.4423   0.0000                                         
   Description                                                                  
     l       E           TYP  RCUT    TYP  RCUT                                 
     0    -13.7508457     23  1.200                                             
     0     95.2407820     23  1.200                                             
     1     -5.2854382     23  1.500                                             
     1    108.8466080     23  1.500                                             
     2     -5.4423304      7  1.500                                             
  local pseudopotential read in
  kinetic energy density of atom read in
  atomic valenz-charges read in
  non local Contribution for L=           0  read in
    real space projection operators read in
  non local Contribution for L=           0  read in
    real space projection operators read in
  non local Contribution for L=           1  read in
    real space projection operators read in
  non local Contribution for L=           1  read in
    real space projection operators read in
    PAW grid and wavefunctions read in
 
   number of l-projection  operators is LMAX  =           4
   number of lm-projection operators is LMMAX =           8
 
 POTCAR:    PAW_PBE H_GW 21Apr2008                
   VRHFIN =H: ultrasoft test                                                    
   LEXCH  = PE                                                                  
   EATOM  =    12.4884 eV,    0.9179 Ry                                         
                                                                                
   TITEL  = PAW_PBE H_GW 21Apr2008                                              
   LULTRA =        F    use ultrasoft PP ?                                      
   IUNSCR =        0    unscreen: 0-lin 1-nonlin 2-no                           
   RPACOR =    0.000    partial core radius                                     
   POMASS =    1.000; ZVAL   =    1.000    mass and valenz                      
   RCORE  =    1.100    outmost cutoff radius                                   
   RWIGS  =    1.100; RWIGS  =    0.582    wigner-seitz radius (au A)           
   ENMAX  =  300.000; ENMIN  =  250.000 eV                                      
   RCLOC  =    0.701    cutoff for local pot                                    
   LCOR   =        T    correct aug charges                                     
   LPAW   =        T    paw PP                                                  
   EAUG   =  500.000                                                            
   RMAX   =    1.123    core radius for proj-oper                               
   RAUG   =    1.200    factor for augmentation sphere                          
   RDEP   =    1.112    radius for radial grids                                 
   RDEPT  =    1.100    core radius for aug-charge                              
                                                                                
   Atomic configuration                                                         
    3 entries                                                                   
     n  l   j            E        occ.                                          
     1  0  0.50        -6.4927   1.0000                                         
     2  1  0.50        -3.4015   0.0000                                         
     3  2  1.50        13.6058   0.0000                                         
   Description                                                                  
     l       E           TYP  RCUT    TYP  RCUT                                 
     0     -6.4927495     23  0.950                                             
     0      6.8029130     23  0.950                                             
     1     -4.0817478     23  1.100                                             
     1    108.8466080     23  1.100                                             
     2     81.6349560     23  1.100                                             
  local pseudopotential read in
  kinetic energy density of atom read in
  atomic valenz-charges read in
  non local Contribution for L=           0  read in
    real space projection operators read in
  non local Contribution for L=           0  read in
    real space projection operators read in
  non local Contribution for L=           1  read in
    real space projection operators read in
  non local Contribution for L=           1  read in
    real space projection operators read in
  non local Contribution for L=           2  read in
    real space projection operators read in
    PAW grid and wavefunctions read in
 
   number of l-projection  operators is LMAX  =           5
   number of lm-projection operators is LMMAX =          13
 
  PAW_PBE C_GW 28Sep2005                :
 energy of atom  1       EATOM= -147.1560
 kinetic energy error for atom=    0.0002 (will be added to EATOM!!)
  PAW_PBE H_GW 21Apr2008                :
 energy of atom  2       EATOM=  -12.4884
 kinetic energy error for atom=    0.0000 (will be added to EATOM!!)
 
 
 POSCAR: C H                                     
  positions in cartesian coordinates
  No initial velocities read in
 exchange correlation table for  LEXCH =        8
   RHO(1)=    0.500       N(1)  =     2000
   RHO(2)=  100.500       N(2)  =     4000
 


--------------------------------------------------------------------------------------------------------


 ion  position               nearest neighbor table
   1  0.983  0.999  0.011-   3 1.06   2 1.21
   2  0.017  0.999  0.011-   4 1.06   1 1.21
   3  0.952  0.999  0.011-   1 1.06
   4  0.048  0.999  0.011-   2 1.06
 
  LATTYP: Found a simple cubic cell.
 ALAT       =    35.0000000000
  
  Lattice vectors:
  
 A1 = (  35.0000000000,   0.0000000000,   0.0000000000)
 A2 = (   0.0000000000,  35.0000000000,   0.0000000000)
 A3 = (   0.0000000000,   0.0000000000,  35.0000000000)


Analysis of symmetry for initial positions (statically):
=====================================================================
 Subroutine PRICEL returns:
 Original cell was already a primitive cell.
 

 Routine SETGRP: Setting up the symmetry group for a 
 simple cubic supercell.


 Subroutine GETGRP returns: Found  1 space group operations
 (whereof  1 operations were pure point group operations)
 out of a pool of 48 trial point group operations.


The static configuration has the point symmetry C_1 .


Analysis of symmetry for dynamics (positions and initial velocities):
=====================================================================
 Subroutine PRICEL returns:
 Original cell was already a primitive cell.
 

 Routine SETGRP: Setting up the symmetry group for a 
 simple cubic supercell.


 Subroutine GETGRP returns: Found  1 space group operations
 (whereof  1 operations were pure point group operations)
 out of a pool of 48 trial point group operations.


The dynamic configuration has the point symmetry C_1 .
 
 
 KPOINTS: automatic mesh                          

Automatic generation of k-mesh.
Space group operators:
 irot       det(A)        alpha          n_x          n_y          n_z        tau_x        tau_y        tau_z
    1     1.000000     0.000000     1.000000     0.000000     0.000000     0.000000     0.000000     0.000000
 
 Subroutine IBZKPT returns following result:
 ===========================================
 
 Found      1 irreducible k-points:
 
 Following reciprocal coordinates:
            Coordinates               Weight
  0.000000  0.000000  0.000000      1.000000
 
 Following cartesian coordinates:
            Coordinates               Weight
  0.000000  0.000000  0.000000      1.000000
 
 
 Subroutine IBZKPT_HF returns following result:
 ==============================================
 
 Found      1 k-points in 1st BZ
 the following      1 k-points will be used (e.g. in the exchange kernel)
 Following reciprocal coordinates:   # in IRBZ
  0.000000  0.000000  0.000000    1.00000000   1 t-inv F


--------------------------------------------------------------------------------------------------------




 Dimension of arrays:
   k-points           NKPTS =      1   k-points in BZ     NKDIM =      1   number of bands    NBANDS=     12
   number of dos      NEDOS =    301   number of ions     NIONS =      4
   non local maximal  LDIM  =      5   non local SUM 2l+1 LMDIM =     13
   total plane-waves  NPLWV = ******
   max r-space proj   IRMAX =      1   max aug-charges    IRDMAX=  30635
   dimension x,y,z NGX =   480 NGY =  480 NGZ =  480
   dimension x,y,z NGXF=   960 NGYF=  960 NGZF=  960
   support grid    NGXF=   960 NGYF=  960 NGZF=  960
   ions per type =               2   2
 NGX,Y,Z   is equivalent  to a cutoff of  22.80, 22.80, 22.80 a.u.
 NGXF,Y,Z  is equivalent  to a cutoff of  45.60, 45.60, 45.60 a.u.


 I would recommend the setting:
   dimension x,y,z NGX =   457 NGY =  457 NGZ =  457
 SYSTEM =  C                                       
 POSCAR =  C H                                     

 Startparameter for this run:
   NWRITE =      2    write-flag & timer
   PREC   = accura    normal or accurate (medium, high low for compatibility)
   ISTART =      0    job   : 0-new  1-cont  2-samecut
   ICHARG =      2    charge: 1-file 2-atom 10-const
   ISPIN  =      1    spin polarized calculation?
   LNONCOLLINEAR =      F non collinear calculations
   LSORBIT =      F    spin-orbit coupling
   INIWAV =      1    electr: 0-lowe 1-rand  2-diag
   LASPH  =      T    aspherical Exc in radial PAW
   METAGGA=      F    non-selfconsistent MetaGGA calc.

 Electronic Relaxation 1
   ENCUT  = 1600.0 eV 117.60 Ry   10.84 a.u. 114.15114.15114.15*2*pi/ulx,y,z
   ENINI  = 1600.0     initial cutoff
   ENAUG  =  644.9 eV  augmentation charge cutoff
   NELM   =     60;   NELMIN=  2; NELMDL= -5     # of ELM steps 
   EDIFF  = 0.1E-06   stopping-criterion for ELM
   LREAL  =      F    real-space projection
   NLSPLINE    = F    spline interpolate recip. space projectors
   LCOMPAT=      F    compatible to vasp.4.4
   GGA_COMPAT  = T    GGA compatible to vasp.4.4-vasp.4.6
   LMAXPAW     = -100 max onsite density
   LMAXMIX     =    2 max onsite mixed and CHGCAR
   VOSKOWN=      0    Vosko Wilk Nusair interpolation
   ROPT   =    0.00000   0.00000
 Ionic relaxation
   EDIFFG = 0.1E-05   stopping-criterion for IOM
   NSW    =      0    number of steps for IOM
   NBLOCK =      1;   KBLOCK =      1    inner block; outer block 
   IBRION =     -1    ionic relax: 0-MD 1-quasi-New 2-CG
   NFREE  =      0    steps in history (QN), initial steepest desc. (CG)
   ISIF   =      0    stress and relaxation
   IWAVPR =     10    prediction:  0-non 1-charg 2-wave 3-comb
   ISYM   =      3    0-nonsym 1-usesym 2-fastsym
   LCORR  =      T    Harris-Foulkes like correction to forces

   POTIM  = 0.5000    time-step for ionic-motion
   TEIN   =    0.0    initial temperature
   TEBEG  =    0.0;   TEEND  =   0.0 temperature during run
   SMASS  =  -3.00    Nose mass-parameter (am)
   estimated Nose-frequenzy (Omega)   =  0.10E-29 period in steps =****** mass=  -0.280E-25a.u.
   SCALEE = 1.0000    scale energy and forces
   NPACO  =    256;   APACO  = 16.0  distance and # of slots for P.C.
   PSTRESS=    0.0 pullay stress

  Mass of Ions in am
   POMASS =  12.01  1.00
  Ionic Valenz
   ZVAL   =   4.00  1.00
  Atomic Wigner-Seitz radii
   RWIGS  =  -1.00 -1.00
  virtual crystal weights 
   VCA    =   1.00  1.00
   NELECT =      10.0000    total number of electrons
   NUPDOWN=      -1.0000    fix difference up-down

 DOS related values:
   EMIN   =  10.00;   EMAX   =-10.00  energy-range for DOS
   EFERMI =   0.00
   ISMEAR =     0;   SIGMA  =   0.01  broadening in eV -4-tet -1-fermi 0-gaus

 Electronic relaxation 2 (details)
   IALGO  =     58    algorithm
   LDIAG  =      T    sub-space diagonalisation (order eigenvalues)
   LSUBROT=      F    optimize rotation matrix (better conditioning)
   TURBO    =      0    0=normal 1=particle mesh
   IRESTART =      0    0=no restart 2=restart with 2 vectors
   NREBOOT  =      0    no. of reboots
   NMIN     =      0    reboot dimension
   EREF     =   0.00    reference energy to select bands
   IMIX   =      4    mixing-type and parameters
     AMIX     =   0.40;   BMIX     =  1.00
     AMIX_MAG =   1.60;   BMIX_MAG =  1.00
     AMIN     =   0.10
     WC   =   100.;   INIMIX=   1;  MIXPRE=   1;  MAXMIX= -45

 Intra band minimization:
   WEIMIN = 0.0000     energy-eigenvalue tresh-hold
   EBREAK =  0.21E-08  absolut break condition
   DEPER  =   0.30     relativ break condition  

   TIME   =   0.40     timestep for ELM

  volume/ion in A,a.u.               =   10718.75     72333.69
  Fermi-wavevector in a.u.,A,eV,Ry     =   0.100772  0.190432  0.138167  0.010155
  Thomas-Fermi vector in A             =   0.676899
 
 Write flags
   LWAVE  =      F    write WAVECAR
   LCHARG =      T    write CHGCAR
   LVTOT  =      F    write LOCPOT, total local potential
   LVHAR  =      F    write LOCPOT, Hartree potential only
   LELF   =      F    write electronic localiz. function (ELF)
   LORBIT =      0    0 simple, 1 ext, 2 COOP (PROOUT)


 Dipole corrections
   LMONO  =      F    monopole corrections only (constant potential shift)
   LDIPOL =      F    correct potential (dipole corrections)
   IDIPOL =      0    1-x, 2-y, 3-z, 4-all directions 
   EPSILON=  1.0000000 bulk dielectric constant

 Exchange correlation treatment:
   GGA     =    --    GGA type
   LEXCH   =     8    internal setting for exchange type
   VOSKOWN=      0    Vosko Wilk Nusair interpolation
   EXXOEP  =     0    0=HF, 1=EXX-LHF (local Hartree Fock) 2=EXX OEP
   LHFCALC =     T    Hartree Fock is set to
   LSYMGRAD=     F    symmetrize gradient (conserves proper symmetry)
   PRECFOCK=normal    Normal, Fast or Accurate (Low or Medium for compatibility)
   LRHFCALC=     F    long range Hartree Fock
   LRSCOR  =     F    long range correlation only (use DFT for short range part)
   LTHOMAS =     F    Thomas Fermi screening in HF
   LMODELHF=     F    short range full HF, long range fraction AEXX
   ENCUT4O =  -1.0   cutoff for four orbital integrals eV
   LMAXFOCK=     4    L truncation for augmentation on plane wave grid
   LMAXFOCKAE=  -1    L truncation for all-electron charge restoration on plane wave grid
   NMAXFOCKAE=   1    number of basis functions for all-electron charge restoration
   LFOCKAEDFT=     F  apply the AE augmentation even for DFT
   NKREDX  =     1    reduce k-point grid by
   NKREDY  =     1    reduce k-point grid by
   NKREDZ  =     1    reduce k-point grid by
   SHIFTRED=     F    shift reduced grid of Gamma
   HFKIDENT=     F    idential grid for each k-point
   ODDONLY =     F    use only odd q-grid points
   EVENONLY=     F    use only even q-grid points
   HFALPHA =   -1.0000 decay constant for conv. correction
   MCALPHA =    0.0000 extent of test-charge in conv. correction in multipole expansion
   AEXX    =    1.0000 exact exchange contribution
   HFSCREEN=    0.0000 screening length (either q_TF or 0.3 A-1)
   HFSCREENC=   0.0000 screening length for correlation (either q_TF or 0.3 A-1)
   HFRCUT  =    0.0000 spherical cutoff for potential kernel
   ALDAX   =    0.0000 LDA exchange part
   AGGAX   =    0.0000 GGA exchange part
   ALDAC   =    0.0000 LDA correlation
   AGGAC   =    0.0000 GGA correlation
   NBANDSGWLOW=     1    first orbital included in HF term
   ENCUTFOCK=  -1.0 apply spherical cutoff to Coloumb kernel
 Linear response parameters
   LEPSILON=     F    determine dielectric tensor
   LRPA    =     F    only Hartree local field effects (RPA)
   LNABLA  =     F    use nabla operator in PAW spheres
   LVEL    =     F    velocity operator in full k-point grid
   LINTERFAST=   F  fast interpolation
   KINTER  =     0    interpolate to denser k-point grid
   CSHIFT  =0.1000    complex shift for real part using Kramers Kronig
   OMEGAMAX=  -1.0    maximum frequency
   DEG_THRESHOLD= 0.2000000E-02 threshold for treating states as degnerate
   RTIME   =    0.100 relaxation time in fs

 Orbital magnetization related:
   ORBITALMAG=     F  switch on orbital magnetization
   LCHIMAG   =     F  perturbation theory with respect to B field
   DQ        =  0.001000  dq finite difference perturbation B field



--------------------------------------------------------------------------------------------------------


 Static calculation
 charge density and potential will be updated during run
 non-spin polarized calculation
 Conjugate gradient for all bands (Freysoldt, et al. PRB 79, 241103 (2009))
 preconditioned conjugated gradient                                        
 perform sub-space diagonalisation
    before iterative eigenvector-optimisation
 modified Broyden-mixing scheme, WC =      100.0
 initial mixing is a Kerker type mixing with AMIX =  0.4000 and BMIX =      1.0000
 Hartree-type preconditioning will be used
 using additional bands            7
 reciprocal scheme for non local part
 no Harris-corrections to forces 
 use gradient corrections 
 use of overlap-Matrix (Vanderbilt PP)
 Gauss-broadening in eV      SIGMA  =   0.01


--------------------------------------------------------------------------------------------------------


  energy-cutoff  :     1600.00
  volume of cell :    42875.00
      direct lattice vectors                 reciprocal lattice vectors
    35.000000000  0.000000000  0.000000000     0.028571429  0.000000000  0.000000000
     0.000000000 35.000000000  0.000000000     0.000000000  0.028571429  0.000000000
     0.000000000  0.000000000 35.000000000     0.000000000  0.000000000  0.028571429

  length of vectors
    35.000000000 35.000000000 35.000000000     0.028571429  0.028571429  0.028571429


 
 k-points in units of 2pi/SCALE and weight: automatic mesh                          
   0.00000000  0.00000000  0.00000000       1.000
 
 k-points in reciprocal lattice and weights: automatic mesh                          
   0.00000000  0.00000000  0.00000000       1.000
 
 position of ions in fractional coordinates (direct lattice) 
   0.98280772  0.99918371  0.01099814
   0.01743169  0.99918104  0.01109039
   0.95246470  0.99918496  0.01082898
   0.04777530  0.99917734  0.01108479
 
 position of ions in cartesian coordinates  (Angst):
  34.39827004 34.97142988  0.38493492
   0.61010917 34.97133636  0.38816379
  33.33626457 34.97147343  0.37901431
   1.67213544 34.97120692  0.38796752
 


--------------------------------------------------------------------------------------------------------


 use parallel FFT for wavefunctions z direction half grid
 k-point  1 :   0.0000 0.0000 0.0000  plane waves: 3115599

 maximum and minimum number of plane-waves per node :    389462   389421

 maximum number of plane-waves:   3115599
 maximum index in each direction: 
   IXMAX=  114   IYMAX=  114   IZMAX=  114
   IXMIN= -114   IYMIN= -114   IZMIN=    0

 NGX is ok and might be reduce to 458
 NGY is ok and might be reduce to 458
 NGZ is ok and might be reduce to 458

 parallel 3D FFT for wavefunctions:
    minimum data exchange during FFTs selected (reduces bandwidth)
 parallel 3D FFT for charge:
    minimum data exchange during FFTs selected (reduces bandwidth)


 FFT grid for exact exchange (Hartree Fock) 
  NGX =350; NGY =350; NGZ =350

 use parallel FFT for wavefunctions z direction half grid
 
 Radii for the augmentation spheres in the non-local exchange
 for species   1 augmentation radius   0.874 (default was   0.699)
       energy cutoff for augmentation   6400.0
 for species   2 augmentation radius   0.735 (default was   0.588)
       energy cutoff for augmentation   6400.0

 real space projection operators:
  total allocation   :       1040.88 KBytes
  max/ min on nodes  :        138.91        112.73

 Maximum index for augmentation-charges in exchange          403
  SETUP_FOCK is finished

 total amount of memory used by VASP on root node  3691675. kBytes
========================================================================

   base      :      30000. kBytes
   nonl-proj :     105923. kBytes
   fftplans  :    1395487. kBytes
   grid      :    2104012. kBytes
   one-center:          4. kBytes
   HF        :         12. kBytes
   nonlr-proj:        161. kBytes
   wavefun   :      56076. kBytes
 
     INWAV:  cpu time    0.0000: real time    0.0001
 Broyden mixing: mesh for mixing (old mesh)
   NGX =229   NGY =229   NGZ =229
  (NGX  =960   NGY  =960   NGZ  =960)
  gives a total of ****** points

 initial charge density was supplied:
 charge density of overlapping atoms calculated
 number of electron      10.0000000 magnetization 
 keeping initial charge density in first step


--------------------------------------------------------------------------------------------------------


 Maximum index for augmentation-charges          699 (set IRDMAX)


--------------------------------------------------------------------------------------------------------


 FEWALD executed in parallel
    FEWALD:  cpu time    0.0013: real time    0.0013


----------------------------------------- Iteration    1(   1)  ---------------------------------------


    POTLOK:  cpu time   14.7364: real time   14.7795
    SETDIJ:  cpu time    0.2457: real time    0.2463
    TRIAL :  cpu time    4.6146: real time    4.6300
    CORREC:  cpu time    0.0001: real time    0.0001
    --------------------------------------------
      LOOP:  cpu time   19.6875: real time   19.7487

 eigenvalue-minimisations  :    24
 total energy-change (2. order) : 0.7055314E+02  (-0.1255672E+03)
 number of electron      10.0000000 magnetization 
 augmentation part       10.0000000 magnetization 

 Free energy of the ion-electron system (eV)
  ---------------------------------------------------
  alpha Z        PSCENC =         0.01064011
  Ewald energy   TEWEN  =       295.26350922
  -Hartree energ DENC   =      -503.93294972
  -exchange      EXHF   =         0.00000000
  -V(xc)+E(xc)   XCENC  =         0.00000000
  PAW double counting   =       245.73293259     -245.91573920
  entropy T*S    EENTRO =        -0.00000000
  eigenvalues    EBANDS =       -10.08145203
  atomic energy  EATOM  =       289.47619815
  ---------------------------------------------------
  free energy    TOTEN  =        70.55313912 eV

  energy without entropy =       70.55313912  energy(sigma->0) =       70.55313912
  exchange ACFDT corr.  =         0.00000000  see jH, gK, PRB 81, 115126


--------------------------------------------------------------------------------------------------------




----------------------------------------- Iteration    1(   2)  ---------------------------------------


    TRIAL :  cpu time    4.5437: real time    4.5592
    CORREC:  cpu time    0.0002: real time    0.0002
    --------------------------------------------
      LOOP:  cpu time    4.5457: real time    4.5643

 eigenvalue-minimisations  :    24
 total energy-change (2. order) :-0.6374557E+01  (-0.6335274E+01)
 number of electron      10.0000000 magnetization 
 augmentation part       10.0000000 magnetization 

 Free energy of the ion-electron system (eV)
  ---------------------------------------------------
  alpha Z        PSCENC =         0.01064011
  Ewald energy   TEWEN  =       295.26350922
  -Hartree energ DENC   =      -503.93294972
  -exchange      EXHF   =         0.00000000
  -V(xc)+E(xc)   XCENC  =         0.00000000
  PAW double counting   =       245.73293259     -245.91573920
  entropy T*S    EENTRO =        -0.00000444
  eigenvalues    EBANDS =       -16.45600469
  atomic energy  EATOM  =       289.47619815
  ---------------------------------------------------
  free energy    TOTEN  =        64.17858203 eV

  energy without entropy =       64.17858647  energy(sigma->0) =       64.17858425
  exchange ACFDT corr.  =         0.00000000  see jH, gK, PRB 81, 115126


--------------------------------------------------------------------------------------------------------




----------------------------------------- Iteration    1(   3)  ---------------------------------------


    TRIAL :  cpu time    7.5455: real time    7.5710
    CORREC:  cpu time    0.0002: real time    0.0002
    --------------------------------------------
      LOOP:  cpu time    7.5475: real time    7.5757

 eigenvalue-minimisations  :    48
 total energy-change (2. order) :-0.1020834E+02  (-0.1007807E+02)
 number of electron      10.0000000 magnetization 
 augmentation part       10.0000000 magnetization 

 Free energy of the ion-electron system (eV)
  ---------------------------------------------------
  alpha Z        PSCENC =         0.01064011
  Ewald energy   TEWEN  =       295.26350922
  -Hartree energ DENC   =      -503.93294972
  -exchange      EXHF   =         0.00000000
  -V(xc)+E(xc)   XCENC  =         0.00000000
  PAW double counting   =       245.73293259     -245.91573920
  entropy T*S    EENTRO =        -0.01161222
  eigenvalues    EBANDS =       -26.65274020
  atomic energy  EATOM  =       289.47619815
  ---------------------------------------------------
  free energy    TOTEN  =        53.97023873 eV

  energy without entropy =       53.98185095  energy(sigma->0) =       53.97604484
  exchange ACFDT corr.  =         0.00000000  see jH, gK, PRB 81, 115126


--------------------------------------------------------------------------------------------------------




----------------------------------------- Iteration    1(   4)  ---------------------------------------


    TRIAL :  cpu time    5.5274: real time    5.5454
    CORREC:  cpu time    0.0002: real time    0.0002
    --------------------------------------------
      LOOP:  cpu time    5.5293: real time    5.5496

 eigenvalue-minimisations  :    32
 total energy-change (2. order) :-0.4867732E+01  (-0.4859772E+01)
 number of electron      10.0000000 magnetization 
 augmentation part       10.0000000 magnetization 

 Free energy of the ion-electron system (eV)
  ---------------------------------------------------
  alpha Z        PSCENC =         0.01064011
  Ewald energy   TEWEN  =       295.26350922
  -Hartree energ DENC   =      -503.93294972
  -exchange      EXHF   =         0.00000000
  -V(xc)+E(xc)   XCENC  =         0.00000000
  PAW double counting   =       245.73293259     -245.91573920
  entropy T*S    EENTRO =        -0.01695919
  eigenvalues    EBANDS =       -31.51512506
  atomic energy  EATOM  =       289.47619815
  ---------------------------------------------------
  free energy    TOTEN  =        49.10250690 eV

  energy without entropy =       49.11946609  energy(sigma->0) =       49.11098650
  exchange ACFDT corr.  =         0.00000000  see jH, gK, PRB 81, 115126


--------------------------------------------------------------------------------------------------------




----------------------------------------- Iteration    1(   5)  ---------------------------------------


    TRIAL :  cpu time    5.5557: real time    5.5746
    CORREC:  cpu time    0.0002: real time    0.0002
    CHARGE:  cpu time    2.1722: real time    2.1810
    --------------------------------------------
      LOOP:  cpu time    7.7299: real time    7.7604

 eigenvalue-minimisations  :    32
 total energy-change (2. order) :-0.2611188E+00  (-0.2596222E+00)
 number of electron      10.0000000 magnetization 
 augmentation part       -0.0501812 magnetization 

 Free energy of the ion-electron system (eV)
  ---------------------------------------------------
  alpha Z        PSCENC =         0.01064011
  Ewald energy   TEWEN  =       295.26350922
  -Hartree energ DENC   =      -503.93294972
  -exchange      EXHF   =         0.00000000
  -V(xc)+E(xc)   XCENC  =         0.00000000
  PAW double counting   =       245.73293259     -245.91573920
  entropy T*S    EENTRO =        -0.01921267
  eigenvalues    EBANDS =       -31.77399033
  atomic energy  EATOM  =       289.47619815
  ---------------------------------------------------
  free energy    TOTEN  =        48.84138815 eV

  energy without entropy =       48.86060082  energy(sigma->0) =       48.85099449
  exchange ACFDT corr.  =         0.00000000  see jH, gK, PRB 81, 115126


--------------------------------------------------------------------------------------------------------




----------------------------------------- Iteration    1(   6)  ---------------------------------------


    POTLOK:  cpu time   15.9805: real time   16.0230
    SETDIJ:  cpu time    0.2437: real time    0.2443
    TRIAL :  cpu time   18.1727: real time   18.2518
    CORREC:  cpu time   30.5223: real time   30.6364
    CHARGE:  cpu time    2.1268: real time    2.1350
    --------------------------------------------
      LOOP:  cpu time   67.0538: real time   67.3011

 eigenvalue-minimisations  :     0
 total energy-change (2. order) : 0.3166319E+02  (-0.2350069E+02)
 number of electron      10.0000000 magnetization 
 augmentation part       -0.0435625 magnetization 

 Free energy of the ion-electron system (eV)
  ---------------------------------------------------
  alpha Z        PSCENC =         0.01064011
  Ewald energy   TEWEN  =       295.26350922
  -Hartree energ DENC   =      -182.85078727
  -exchange      EXHF   =        55.14839626
  -V(xc)+E(xc)   XCENC  =         0.00000000
  PAW double counting   =       166.45722336     -166.58716399
  entropy T*S    EENTRO =        -0.01055380
  eigenvalues    EBANDS =      -376.39422979
  atomic energy  EATOM  =       289.47619815
  ---------------------------------------------------
  free energy    TOTEN  =        80.50457338 eV

  energy without entropy =       80.51512717  energy(sigma->0) =       80.50985027
  exchange ACFDT corr.  =        -1.01621207  see jH, gK, PRB 81, 115126


--------------------------------------------------------------------------------------------------------




----------------------------------------- Iteration    1(   7)  ---------------------------------------


    POTLOK:  cpu time   15.9743: real time   16.0167
    SETDIJ:  cpu time    0.2459: real time    0.2467
    TRIAL :  cpu time   17.9974: real time   18.0764
    CORREC:  cpu time   30.2788: real time   30.3920
    CHARGE:  cpu time    1.8896: real time    1.8976
    --------------------------------------------
      LOOP:  cpu time   66.3924: real time   66.6387

 eigenvalue-minimisations  :     0
 total energy-change (2. order) :-0.2130088E+02  (-0.8460160E+01)
 number of electron      10.0000000 magnetization 
 augmentation part       -0.0346639 magnetization 

 Free energy of the ion-electron system (eV)
  ---------------------------------------------------
  alpha Z        PSCENC =         0.01064011
  Ewald energy   TEWEN  =       295.26350922
  -Hartree energ DENC   =      -215.86951672
  -exchange      EXHF   =        63.87063599
  -V(xc)+E(xc)   XCENC  =         0.00000000
  PAW double counting   =       227.94471514     -228.13802931
  entropy T*S    EENTRO =        -0.00005602
  eigenvalues    EBANDS =      -373.34390924
  atomic energy  EATOM  =       289.47619815
  ---------------------------------------------------
  free energy    TOTEN  =        59.20368955 eV

  energy without entropy =       59.20374557  energy(sigma->0) =       59.20371756
  exchange ACFDT corr.  =        -0.55627278  see jH, gK, PRB 81, 115126


--------------------------------------------------------------------------------------------------------




----------------------------------------- Iteration    1(   8)  ---------------------------------------


    POTLOK:  cpu time   15.9562: real time   15.9985
    SETDIJ:  cpu time    0.2439: real time    0.2445
    TRIAL :  cpu time   14.2285: real time   14.2988
    CORREC:  cpu time   30.1266: real time   30.2399
    CHARGE:  cpu time    1.8921: real time    1.9000
    --------------------------------------------
      LOOP:  cpu time   62.4531: real time   62.6903

 eigenvalue-minimisations  :     0
 total energy-change (2. order) :-0.7960357E+01  (-0.1513114E+02)
 number of electron      10.0000000 magnetization 
 augmentation part       -0.0298138 magnetization 

 Free energy of the ion-electron system (eV)
  ---------------------------------------------------
  alpha Z        PSCENC =         0.01064011
  Ewald energy   TEWEN  =       295.26350922
  -Hartree energ DENC   =      -237.07148064
  -exchange      EXHF   =        68.43896986
  -V(xc)+E(xc)   XCENC  =         0.00000000
  PAW double counting   =       265.84736698     -266.08734144
  entropy T*S    EENTRO =        -0.00000000
  eigenvalues    EBANDS =      -364.63447318
  atomic energy  EATOM  =       289.47619815
  ---------------------------------------------------
  free energy    TOTEN  =        51.24333304 eV

  energy without entropy =       51.24333304  energy(sigma->0) =       51.24333304
  exchange ACFDT corr.  =        -0.00136291  see jH, gK, PRB 81, 115126


--------------------------------------------------------------------------------------------------------




----------------------------------------- Iteration    1(   9)  ---------------------------------------


    POTLOK:  cpu time   15.9748: real time   16.0172
    SETDIJ:  cpu time    0.2461: real time    0.2467
    TRIAL :  cpu time   14.0477: real time   14.1167
    CORREC:  cpu time   30.1431: real time   30.2564
    CHARGE:  cpu time    1.8901: real time    1.8980
    --------------------------------------------
      LOOP:  cpu time   62.3118: real time   62.5479

 eigenvalue-minimisations  :     0
 total energy-change (2. order) :-0.1487782E+02  (-0.1609080E+02)
 number of electron      10.0000000 magnetization 
 augmentation part       -0.0484836 magnetization 

 Free energy of the ion-electron system (eV)
  ---------------------------------------------------
  alpha Z        PSCENC =         0.01064011
  Ewald energy   TEWEN  =       295.26350922
  -Hartree energ DENC   =      -301.25949298
  -exchange      EXHF   =        74.59976327
  -V(xc)+E(xc)   XCENC  =         0.00000000
  PAW double counting   =       330.65364755     -330.96428957
  entropy T*S    EENTRO =        -0.00000000
  eigenvalues    EBANDS =      -321.41445813
  atomic energy  EATOM  =       289.47619815
  ---------------------------------------------------
  free energy    TOTEN  =        36.36551762 eV

  energy without entropy =       36.36551762  energy(sigma->0) =       36.36551762
  exchange ACFDT corr.  =         0.00000000  see jH, gK, PRB 81, 115126


--------------------------------------------------------------------------------------------------------




----------------------------------------- Iteration    1(  10)  ---------------------------------------


    POTLOK:  cpu time   15.9681: real time   16.0104
    SETDIJ:  cpu time    0.2431: real time    0.2437
    TRIAL :  cpu time   14.1450: real time   14.2138
    CORREC:  cpu time   30.1344: real time   30.2475
    CHARGE:  cpu time    1.8884: real time    1.8964
    --------------------------------------------
      LOOP:  cpu time   62.3805: real time   62.6162

 eigenvalue-minimisations  :     0
 total energy-change (2. order) :-0.7740414E+01  (-0.2130661E+02)
 number of electron      10.0000000 magnetization 
 augmentation part       -0.0762783 magnetization 

 Free energy of the ion-electron system (eV)
  ---------------------------------------------------
  alpha Z        PSCENC =         0.01064011
  Ewald energy   TEWEN  =       295.26350922
  -Hartree energ DENC   =      -347.14360198
  -exchange      EXHF   =        79.30925104
  -V(xc)+E(xc)   XCENC  =         0.00000000
  PAW double counting   =       366.81658741     -367.15439718
  entropy T*S    EENTRO =        -0.00000000
  eigenvalues    EBANDS =      -287.95308303
  atomic energy  EATOM  =       289.47619815
  ---------------------------------------------------
  free energy    TOTEN  =        28.62510375 eV

  energy without entropy =       28.62510375  energy(sigma->0) =       28.62510375
  exchange ACFDT corr.  =         0.00000000  see jH, gK, PRB 81, 115126


--------------------------------------------------------------------------------------------------------




----------------------------------------- Iteration    1(  11)  ---------------------------------------


    POTLOK:  cpu time   15.9638: real time   16.0062
    SETDIJ:  cpu time    0.2441: real time    0.2447
    TRIAL :  cpu time   14.0614: real time   14.1312
    CORREC:  cpu time   30.4619: real time   30.5763
    CHARGE:  cpu time    1.8557: real time    1.8635
    --------------------------------------------
      LOOP:  cpu time   62.5907: real time   62.8287

 eigenvalue-minimisations  :     0
 total energy-change (2. order) :-0.1409824E+02  (-0.1400292E+02)
 number of electron      10.0000000 magnetization 
 augmentation part       -0.0949421 magnetization 

 Free energy of the ion-electron system (eV)
  ---------------------------------------------------
  alpha Z        PSCENC =         0.01064011
  Ewald energy   TEWEN  =       295.26350922
  -Hartree energ DENC   =      -385.56944262
  -exchange      EXHF   =        83.04555597
  -V(xc)+E(xc)   XCENC  =         0.00000000
  PAW double counting   =       382.34487031     -382.68044115
  entropy T*S    EENTRO =        -0.00000000
  eigenvalues    EBANDS =      -267.36402894
  atomic energy  EATOM  =       289.47619815
  ---------------------------------------------------
  free energy    TOTEN  =        14.52686106 eV

  energy without entropy =       14.52686106  energy(sigma->0) =       14.52686106
  exchange ACFDT corr.  =         0.00000000  see jH, gK, PRB 81, 115126


--------------------------------------------------------------------------------------------------------




----------------------------------------- Iteration    1(  12)  ---------------------------------------


    POTLOK:  cpu time   16.1150: real time   16.1575
    SETDIJ:  cpu time    0.2518: real time    0.2524
    TRIAL :  cpu time   14.3689: real time   14.4387
    CORREC:  cpu time   30.4453: real time   30.5595
    CHARGE:  cpu time    1.8513: real time    1.8590
    --------------------------------------------
      LOOP:  cpu time   63.0741: real time   63.3117

 eigenvalue-minimisations  :     0
 total energy-change (2. order) :-0.1299835E+02  (-0.1428650E+02)
 number of electron      10.0000000 magnetization 
 augmentation part       -0.0754317 magnetization 

 Free energy of the ion-electron system (eV)
  ---------------------------------------------------
  alpha Z        PSCENC =         0.01064011
  Ewald energy   TEWEN  =       295.26350922
  -Hartree energ DENC   =      -404.32571618
  -exchange      EXHF   =        82.66870284
  -V(xc)+E(xc)   XCENC  =         0.00000000
  PAW double counting   =       359.92697665     -360.22115582
  entropy T*S    EENTRO =        -0.00000000
  eigenvalues    EBANDS =      -261.27063920
  atomic energy  EATOM  =       289.47619815
  ---------------------------------------------------
  free energy    TOTEN  =         1.52851576 eV

  energy without entropy =        1.52851576  energy(sigma->0) =        1.52851576
  exchange ACFDT corr.  =         0.00000000  see jH, gK, PRB 81, 115126


--------------------------------------------------------------------------------------------------------




----------------------------------------- Iteration    1(  13)  ---------------------------------------


    POTLOK:  cpu time   16.1148: real time   16.1576
    SETDIJ:  cpu time    0.2502: real time    0.2508
    TRIAL :  cpu time   14.4108: real time   14.4808
    CORREC:  cpu time   30.5589: real time   30.6738
    CHARGE:  cpu time    1.8491: real time    1.8570
    --------------------------------------------
      LOOP:  cpu time   63.2230: real time   63.4618

 eigenvalue-minimisations  :     0
 total energy-change (2. order) :-0.1491158E+02  (-0.8024801E+01)
 number of electron      10.0000000 magnetization 
 augmentation part       -0.0428406 magnetization 

 Free energy of the ion-electron system (eV)
  ---------------------------------------------------
  alpha Z        PSCENC =         0.01064011
  Ewald energy   TEWEN  =       295.26350922
  -Hartree energ DENC   =      -440.08317644
  -exchange      EXHF   =        83.24982762
  -V(xc)+E(xc)   XCENC  =         0.00000000
  PAW double counting   =       334.07175306     -334.30766813
  entropy T*S    EENTRO =        -0.00000000
  eigenvalues    EBANDS =      -241.06414608
  atomic energy  EATOM  =       289.47619815
  ---------------------------------------------------
  free energy    TOTEN  =       -13.38306249 eV

  energy without entropy =      -13.38306249  energy(sigma->0) =      -13.38306249
  exchange ACFDT corr.  =         0.00000000  see jH, gK, PRB 81, 115126


--------------------------------------------------------------------------------------------------------




----------------------------------------- Iteration    1(  14)  ---------------------------------------


    POTLOK:  cpu time   16.1256: real time   16.1685
    SETDIJ:  cpu time    0.2510: real time    0.2516
    TRIAL :  cpu time   14.3939: real time   14.4643
    CORREC:  cpu time   30.4137: real time   30.5274
    CHARGE:  cpu time    1.8506: real time    1.8585
    --------------------------------------------
      LOOP:  cpu time   63.0811: real time   63.3197

 eigenvalue-minimisations  :     0
 total energy-change (2. order) :-0.6107669E+01  (-0.9371225E+01)
 number of electron      10.0000000 magnetization 
 augmentation part        0.0125767 magnetization 

 Free energy of the ion-electron system (eV)
  ---------------------------------------------------
  alpha Z        PSCENC =         0.01064011
  Ewald energy   TEWEN  =       295.26350922
  -Hartree energ DENC   =      -456.58243560
  -exchange      EXHF   =        84.95807427
  -V(xc)+E(xc)   XCENC  =         0.00000000
  PAW double counting   =       331.71992517     -331.93703084
  entropy T*S    EENTRO =        -0.00000000
  eigenvalues    EBANDS =      -232.39961169
  atomic energy  EATOM  =       289.47619815
  ---------------------------------------------------
  free energy    TOTEN  =       -19.49073120 eV

  energy without entropy =      -19.49073120  energy(sigma->0) =      -19.49073120
  exchange ACFDT corr.  =         0.00000000  see jH, gK, PRB 81, 115126


--------------------------------------------------------------------------------------------------------




----------------------------------------- Iteration    1(  15)  ---------------------------------------


    POTLOK:  cpu time   16.1157: real time   16.1584
    SETDIJ:  cpu time    0.2538: real time    0.2544
    TRIAL :  cpu time   14.3804: real time   14.4506
    CORREC:  cpu time   30.4696: real time   30.5836
    CHARGE:  cpu time    1.8615: real time    1.8693
    --------------------------------------------
      LOOP:  cpu time   63.1235: real time   63.3615

 eigenvalue-minimisations  :     0
 total energy-change (2. order) :-0.8806456E+01  (-0.6739587E+01)
 number of electron      10.0000000 magnetization 
 augmentation part        0.0726230 magnetization 

 Free energy of the ion-electron system (eV)
  ---------------------------------------------------
  alpha Z        PSCENC =         0.01064011
  Ewald energy   TEWEN  =       295.26350922
  -Hartree energ DENC   =      -488.32177523
  -exchange      EXHF   =        89.98424931
  -V(xc)+E(xc)   XCENC  =         0.00000000
  PAW double counting   =       356.68514088     -356.90920751
  entropy T*S    EENTRO =        -0.00000000
  eigenvalues    EBANDS =      -214.48594176
  atomic energy  EATOM  =       289.47619815
  ---------------------------------------------------
  free energy    TOTEN  =       -28.29718682 eV

  energy without entropy =      -28.29718682  energy(sigma->0) =      -28.29718682
  exchange ACFDT corr.  =         0.00000000  see jH, gK, PRB 81, 115126


--------------------------------------------------------------------------------------------------------




----------------------------------------- Iteration    1(  16)  ---------------------------------------


    POTLOK:  cpu time   16.1302: real time   16.1730
    SETDIJ:  cpu time    0.2515: real time    0.2524
    TRIAL :  cpu time   14.5009: real time   14.5712
    CORREC:  cpu time   30.4826: real time   30.5963
    CHARGE:  cpu time    1.8519: real time    1.8598
    --------------------------------------------
      LOOP:  cpu time   63.2560: real time   63.4945

 eigenvalue-minimisations  :     0
 total energy-change (2. order) :-0.7051098E+01  (-0.3361891E+01)
 number of electron      10.0000000 magnetization 
 augmentation part        0.1011705 magnetization 

 Free energy of the ion-electron system (eV)
  ---------------------------------------------------
  alpha Z        PSCENC =         0.01064011
  Ewald energy   TEWEN  =       295.26350922
  -Hartree energ DENC   =      -524.14578572
  -exchange      EXHF   =        95.85704281
  -V(xc)+E(xc)   XCENC  =         0.00000000
  PAW double counting   =       402.99557427     -403.24963424
  entropy T*S    EENTRO =        -0.00000000
  eigenvalues    EBANDS =      -191.55582897
  atomic energy  EATOM  =       289.47619815
  ---------------------------------------------------
  free energy    TOTEN  =       -35.34828436 eV

  energy without entropy =      -35.34828436  energy(sigma->0) =      -35.34828436
  exchange ACFDT corr.  =         0.00000000  see jH, gK, PRB 81, 115126


--------------------------------------------------------------------------------------------------------




----------------------------------------- Iteration    1(  17)  ---------------------------------------


    POTLOK:  cpu time   16.1147: real time   16.1575
    SETDIJ:  cpu time    0.2555: real time    0.2561
    TRIAL :  cpu time   14.4719: real time   14.5430
    CORREC:  cpu time   30.5787: real time   30.6925
    CHARGE:  cpu time    1.8522: real time    1.8601
    --------------------------------------------
      LOOP:  cpu time   63.3146: real time   63.5536

 eigenvalue-minimisations  :     0
 total energy-change (2. order) :-0.3595069E+01  (-0.1338534E+01)
 number of electron      10.0000000 magnetization 
 augmentation part        0.0852669 magnetization 

 Free energy of the ion-electron system (eV)
  ---------------------------------------------------
  alpha Z        PSCENC =         0.01064011
  Ewald energy   TEWEN  =       295.26350922
  -Hartree energ DENC   =      -546.35599371
  -exchange      EXHF   =        99.72264347
  -V(xc)+E(xc)   XCENC  =         0.00000000
  PAW double counting   =       448.53963985     -448.82805879
  entropy T*S    EENTRO =        -0.00000000
  eigenvalues    EBANDS =      -176.77193128
  atomic energy  EATOM  =       289.47619815
  ---------------------------------------------------
  free energy    TOTEN  =       -38.94335297 eV

  energy without entropy =      -38.94335297  energy(sigma->0) =      -38.94335297
  exchange ACFDT corr.  =         0.00000000  see jH, gK, PRB 81, 115126


--------------------------------------------------------------------------------------------------------




----------------------------------------- Iteration    1(  18)  ---------------------------------------


    POTLOK:  cpu time   16.1031: real time   16.1458
    SETDIJ:  cpu time    0.2532: real time    0.2540
    TRIAL :  cpu time   14.4393: real time   14.5098
    CORREC:  cpu time   30.3908: real time   30.5049
    CHARGE:  cpu time    1.8514: real time    1.8592
    --------------------------------------------
      LOOP:  cpu time   63.0799: real time   63.3186

 eigenvalue-minimisations  :     0
 total energy-change (2. order) :-0.1409061E+01  (-0.3932340E+00)
 number of electron      10.0000000 magnetization 
 augmentation part        0.0811764 magnetization 

 Free energy of the ion-electron system (eV)
  ---------------------------------------------------
  alpha Z        PSCENC =         0.01064011
  Ewald energy   TEWEN  =       295.26350922
  -Hartree energ DENC   =      -547.51741913
  -exchange      EXHF   =       100.11392428
  -V(xc)+E(xc)   XCENC  =         0.00000000
  PAW double counting   =       466.57084191     -466.88004491
  entropy T*S    EENTRO =        -0.00000000
  eigenvalues    EBANDS =      -177.39006406
  atomic energy  EATOM  =       289.47619815
  ---------------------------------------------------
  free energy    TOTEN  =       -40.35241443 eV

  energy without entropy =      -40.35241443  energy(sigma->0) =      -40.35241443
  exchange ACFDT corr.  =        -0.00000000  see jH, gK, PRB 81, 115126


--------------------------------------------------------------------------------------------------------




----------------------------------------- Iteration    1(  19)  ---------------------------------------


    POTLOK:  cpu time   16.1252: real time   16.1680
    SETDIJ:  cpu time    0.2504: real time    0.2510
    TRIAL :  cpu time   14.4530: real time   14.5226
    CORREC:  cpu time   30.4537: real time   30.5675
    CHARGE:  cpu time    1.8535: real time    1.8614
    --------------------------------------------
      LOOP:  cpu time   63.1764: real time   63.4141

 eigenvalue-minimisations  :     0
 total energy-change (2. order) :-0.4003868E+00  (-0.1365504E+00)
 number of electron      10.0000000 magnetization 
 augmentation part        0.0952373 magnetization 

 Free energy of the ion-electron system (eV)
  ---------------------------------------------------
  alpha Z        PSCENC =         0.01064011
  Ewald energy   TEWEN  =       295.26350922
  -Hartree energ DENC   =      -545.02276929
  -exchange      EXHF   =        99.74893011
  -V(xc)+E(xc)   XCENC  =         0.00000000
  PAW double counting   =       465.81904124     -466.13205520
  entropy T*S    EENTRO =        -0.00000000
  eigenvalues    EBANDS =      -179.91629560
  atomic energy  EATOM  =       289.47619815
  ---------------------------------------------------
  free energy    TOTEN  =       -40.75280126 eV

  energy without entropy =      -40.75280126  energy(sigma->0) =      -40.75280126
  exchange ACFDT corr.  =         0.00000000  see jH, gK, PRB 81, 115126


--------------------------------------------------------------------------------------------------------




----------------------------------------- Iteration    1(  20)  ---------------------------------------


    POTLOK:  cpu time   16.1180: real time   16.1608
    SETDIJ:  cpu time    0.2496: real time    0.2502
    TRIAL :  cpu time   14.4127: real time   14.4840
    CORREC:  cpu time   30.4980: real time   30.6123
    CHARGE:  cpu time    1.8560: real time    1.8640
    --------------------------------------------
      LOOP:  cpu time   63.1724: real time   63.4122

 eigenvalue-minimisations  :     0
 total energy-change (2. order) :-0.1414446E+00  (-0.5542648E-01)
 number of electron      10.0000000 magnetization 
 augmentation part        0.1011287 magnetization 

 Free energy of the ion-electron system (eV)
  ---------------------------------------------------
  alpha Z        PSCENC =         0.01064011
  Ewald energy   TEWEN  =       295.26350922
  -Hartree energ DENC   =      -545.82935498
  -exchange      EXHF   =        99.86188422
  -V(xc)+E(xc)   XCENC  =         0.00000000
  PAW double counting   =       463.71987289     -464.03134601
  entropy T*S    EENTRO =        -0.00000000
  eigenvalues    EBANDS =      -179.36564945
  atomic energy  EATOM  =       289.47619815
  ---------------------------------------------------
  free energy    TOTEN  =       -40.89424585 eV

  energy without entropy =      -40.89424585  energy(sigma->0) =      -40.89424585
  exchange ACFDT corr.  =         0.00000000  see jH, gK, PRB 81, 115126


--------------------------------------------------------------------------------------------------------




----------------------------------------- Iteration    1(  21)  ---------------------------------------


    POTLOK:  cpu time   16.1212: real time   16.1642
    SETDIJ:  cpu time    0.2503: real time    0.2509
    TRIAL :  cpu time   14.3855: real time   14.4560
    CORREC:  cpu time   30.5239: real time   30.6386
    CHARGE:  cpu time    1.8428: real time    1.8507
    --------------------------------------------
      LOOP:  cpu time   63.1679: real time   63.4073

 eigenvalue-minimisations  :     0
 total energy-change (2. order) :-0.5716160E-01  (-0.2582550E-01)
 number of electron      10.0000000 magnetization 
 augmentation part        0.0979712 magnetization 

 Free energy of the ion-electron system (eV)
  ---------------------------------------------------
  alpha Z        PSCENC =         0.01064011
  Ewald energy   TEWEN  =       295.26350922
  -Hartree energ DENC   =      -546.22073778
  -exchange      EXHF   =        99.93774113
  -V(xc)+E(xc)   XCENC  =         0.00000000
  PAW double counting   =       460.50342591     -460.81270953
  entropy T*S    EENTRO =        -0.00000000
  eigenvalues    EBANDS =      -179.10947466
  atomic energy  EATOM  =       289.47619815
  ---------------------------------------------------
  free energy    TOTEN  =       -40.95140745 eV

  energy without entropy =      -40.95140745  energy(sigma->0) =      -40.95140745
  exchange ACFDT corr.  =         0.00000000  see jH, gK, PRB 81, 115126


--------------------------------------------------------------------------------------------------------




----------------------------------------- Iteration    1(  22)  ---------------------------------------


    POTLOK:  cpu time   16.1158: real time   16.1586
    SETDIJ:  cpu time    0.2513: real time    0.2519
    TRIAL :  cpu time   14.4021: real time   14.4721
    CORREC:  cpu time   30.4866: real time   30.6007
    CHARGE:  cpu time    1.8501: real time    1.8579
    --------------------------------------------
      LOOP:  cpu time   63.1559: real time   63.3942

 eigenvalue-minimisations  :     0
 total energy-change (2. order) :-0.2625610E-01  (-0.9105941E-02)
 number of electron      10.0000000 magnetization 
 augmentation part        0.0959977 magnetization 

 Free energy of the ion-electron system (eV)
  ---------------------------------------------------
  alpha Z        PSCENC =         0.01064011
  Ewald energy   TEWEN  =       295.26350922
  -Hartree energ DENC   =      -545.66756742
  -exchange      EXHF   =        99.88382660
  -V(xc)+E(xc)   XCENC  =         0.00000000
  PAW double counting   =       457.80542528     -458.11347772
  entropy T*S    EENTRO =        -0.00000000
  eigenvalues    EBANDS =      -179.63621777
  atomic energy  EATOM  =       289.47619815
  ---------------------------------------------------
  free energy    TOTEN  =       -40.97766355 eV

  energy without entropy =      -40.97766355  energy(sigma->0) =      -40.97766355
  exchange ACFDT corr.  =         0.00000000  see jH, gK, PRB 81, 115126


--------------------------------------------------------------------------------------------------------




----------------------------------------- Iteration    1(  23)  ---------------------------------------


    POTLOK:  cpu time   16.1248: real time   16.1676
    SETDIJ:  cpu time    0.2502: real time    0.2511
    TRIAL :  cpu time   14.3877: real time   14.4577
    CORREC:  cpu time   30.4597: real time   30.5738
    CHARGE:  cpu time    1.8480: real time    1.8558
    --------------------------------------------
      LOOP:  cpu time   63.1151: real time   63.3536

 eigenvalue-minimisations  :     0
 total energy-change (2. order) :-0.9199302E-02  (-0.2663510E-02)
 number of electron      10.0000000 magnetization 
 augmentation part        0.0963641 magnetization 

 Free energy of the ion-electron system (eV)
  ---------------------------------------------------
  alpha Z        PSCENC =         0.01064011
  Ewald energy   TEWEN  =       295.26350922
  -Hartree energ DENC   =      -545.62537562
  -exchange      EXHF   =        99.89329037
  -V(xc)+E(xc)   XCENC  =         0.00000000
  PAW double counting   =       457.83535553     -458.14348950
  entropy T*S    EENTRO =        -0.00000000
  eigenvalues    EBANDS =      -179.69699112
  atomic energy  EATOM  =       289.47619815
  ---------------------------------------------------
  free energy    TOTEN  =       -40.98686285 eV

  energy without entropy =      -40.98686285  energy(sigma->0) =      -40.98686285
  exchange ACFDT corr.  =         0.00000000  see jH, gK, PRB 81, 115126


--------------------------------------------------------------------------------------------------------




----------------------------------------- Iteration    1(  24)  ---------------------------------------


    POTLOK:  cpu time   16.1154: real time   16.1584
    SETDIJ:  cpu time    0.2550: real time    0.2556
    TRIAL :  cpu time   14.4142: real time   14.4841
    CORREC:  cpu time   30.4779: real time   30.5917
    CHARGE:  cpu time    1.8523: real time    1.8601
    --------------------------------------------
      LOOP:  cpu time   63.1660: real time   63.4041

 eigenvalue-minimisations  :     0
 total energy-change (2. order) :-0.2670236E-02  (-0.9121772E-03)
 number of electron      10.0000000 magnetization 
 augmentation part        0.0961152 magnetization 

 Free energy of the ion-electron system (eV)
  ---------------------------------------------------
  alpha Z        PSCENC =         0.01064011
  Ewald energy   TEWEN  =       295.26350922
  -Hartree energ DENC   =      -545.80876632
  -exchange      EXHF   =        99.91721338
  -V(xc)+E(xc)   XCENC  =         0.00000000
  PAW double counting   =       458.47340482     -458.78170883
  entropy T*S    EENTRO =        -0.00000000
  eigenvalues    EBANDS =      -179.54002361
  atomic energy  EATOM  =       289.47619815
  ---------------------------------------------------
  free energy    TOTEN  =       -40.98953309 eV

  energy without entropy =      -40.98953309  energy(sigma->0) =      -40.98953309
  exchange ACFDT corr.  =         0.00000000  see jH, gK, PRB 81, 115126


--------------------------------------------------------------------------------------------------------




----------------------------------------- Iteration    1(  25)  ---------------------------------------


    POTLOK:  cpu time   16.1134: real time   16.1561
    SETDIJ:  cpu time    0.2513: real time    0.2519
    TRIAL :  cpu time   14.3443: real time   14.4144
    CORREC:  cpu time   30.5618: real time   30.6756
    CHARGE:  cpu time    1.8453: real time    1.8531
    --------------------------------------------
      LOOP:  cpu time   63.1565: real time   63.3940

 eigenvalue-minimisations  :     0
 total energy-change (2. order) :-0.9131579E-03  (-0.3523166E-03)
 number of electron      10.0000000 magnetization 
 augmentation part        0.0960448 magnetization 

 Free energy of the ion-electron system (eV)
  ---------------------------------------------------
  alpha Z        PSCENC =         0.01064011
  Ewald energy   TEWEN  =       295.26350922
  -Hartree energ DENC   =      -545.81118066
  -exchange      EXHF   =        99.90815425
  -V(xc)+E(xc)   XCENC  =         0.00000000
  PAW double counting   =       458.75188219     -459.06024852
  entropy T*S    EENTRO =        -0.00000000
  eigenvalues    EBANDS =      -179.52940098
  atomic energy  EATOM  =       289.47619815
  ---------------------------------------------------
  free energy    TOTEN  =       -40.99044624 eV

  energy without entropy =      -40.99044624  energy(sigma->0) =      -40.99044624
  exchange ACFDT corr.  =        -0.00000000  see jH, gK, PRB 81, 115126


--------------------------------------------------------------------------------------------------------




----------------------------------------- Iteration    1(  26)  ---------------------------------------


    POTLOK:  cpu time   16.1170: real time   16.1597
    SETDIJ:  cpu time    0.2504: real time    0.2513
    TRIAL :  cpu time   14.5020: real time   14.5731
    CORREC:  cpu time   30.6541: real time   30.7691
    CHARGE:  cpu time    1.8663: real time    1.8741
    --------------------------------------------
      LOOP:  cpu time   63.4374: real time   63.6778

 eigenvalue-minimisations  :     0
 total energy-change (2. order) :-0.3523750E-03  (-0.1458280E-03)
 number of electron      10.0000000 magnetization 
 augmentation part        0.0960792 magnetization 

 Free energy of the ion-electron system (eV)
  ---------------------------------------------------
  alpha Z        PSCENC =         0.01064011
  Ewald energy   TEWEN  =       295.26350922
  -Hartree energ DENC   =      -545.83308316
  -exchange      EXHF   =        99.90286878
  -V(xc)+E(xc)   XCENC  =         0.00000000
  PAW double counting   =       459.01888996     -459.32730089
  entropy T*S    EENTRO =        -0.00000000
  eigenvalues    EBANDS =      -179.50252079
  atomic energy  EATOM  =       289.47619815
  ---------------------------------------------------
  free energy    TOTEN  =       -40.99079862 eV

  energy without entropy =      -40.99079862  energy(sigma->0) =      -40.99079862
  exchange ACFDT corr.  =        -0.00000000  see jH, gK, PRB 81, 115126


--------------------------------------------------------------------------------------------------------




----------------------------------------- Iteration    1(  27)  ---------------------------------------


    POTLOK:  cpu time   16.2055: real time   16.2485
    SETDIJ:  cpu time    0.2499: real time    0.2505
    TRIAL :  cpu time   14.3722: real time   14.4431
    CORREC:  cpu time   30.6048: real time   30.7196
    CHARGE:  cpu time    1.8661: real time    1.8740
    --------------------------------------------
      LOOP:  cpu time   63.3417: real time   63.5808

 eigenvalue-minimisations  :     0
 total energy-change (2. order) :-0.1458287E-03  (-0.5381964E-04)
 number of electron      10.0000000 magnetization 
 augmentation part        0.0960616 magnetization 

 Free energy of the ion-electron system (eV)
  ---------------------------------------------------
  alpha Z        PSCENC =         0.01064011
  Ewald energy   TEWEN  =       295.26350922
  -Hartree energ DENC   =      -545.85532111
  -exchange      EXHF   =        99.90163268
  -V(xc)+E(xc)   XCENC  =         0.00000000
  PAW double counting   =       459.21390362     -459.52234111
  entropy T*S    EENTRO =        -0.00000000
  eigenvalues    EBANDS =      -179.47916601
  atomic energy  EATOM  =       289.47619815
  ---------------------------------------------------
  free energy    TOTEN  =       -40.99094445 eV

  energy without entropy =      -40.99094445  energy(sigma->0) =      -40.99094445
  exchange ACFDT corr.  =        -0.00000000  see jH, gK, PRB 81, 115126


--------------------------------------------------------------------------------------------------------




----------------------------------------- Iteration    1(  28)  ---------------------------------------


    POTLOK:  cpu time   16.1958: real time   16.2387
    SETDIJ:  cpu time    0.2534: real time    0.2540
    TRIAL :  cpu time   14.4061: real time   14.4770
    CORREC:  cpu time   30.5513: real time   30.6651
    CHARGE:  cpu time    1.8722: real time    1.8801
    --------------------------------------------
      LOOP:  cpu time   63.3222: real time   63.5614

 eigenvalue-minimisations  :     0
 total energy-change (2. order) :-0.5384280E-04  (-0.2073834E-04)
 number of electron      10.0000000 magnetization 
 augmentation part        0.0960323 magnetization 

 Free energy of the ion-electron system (eV)
  ---------------------------------------------------
  alpha Z        PSCENC =         0.01064011
  Ewald energy   TEWEN  =       295.26350922
  -Hartree energ DENC   =      -545.84446327
  -exchange      EXHF   =        99.89899316
  -V(xc)+E(xc)   XCENC  =         0.00000000
  PAW double counting   =       459.24435615     -459.55278830
  entropy T*S    EENTRO =        -0.00000000
  eigenvalues    EBANDS =      -179.48744351
  atomic energy  EATOM  =       289.47619815
  ---------------------------------------------------
  free energy    TOTEN  =       -40.99099829 eV

  energy without entropy =      -40.99099829  energy(sigma->0) =      -40.99099829
  exchange ACFDT corr.  =         0.00000000  see jH, gK, PRB 81, 115126


--------------------------------------------------------------------------------------------------------




----------------------------------------- Iteration    1(  29)  ---------------------------------------


    POTLOK:  cpu time   16.2016: real time   16.2446
    SETDIJ:  cpu time    0.2516: real time    0.2524
    TRIAL :  cpu time   14.4593: real time   14.5288
    CORREC:  cpu time   30.6503: real time   30.7651
    CHARGE:  cpu time    1.8752: real time    1.8830
    --------------------------------------------
      LOOP:  cpu time   63.4808: real time   63.7196

 eigenvalue-minimisations  :     0
 total energy-change (2. order) :-0.2075694E-04  (-0.9668960E-05)
 number of electron      10.0000000 magnetization 
 augmentation part        0.0960751 magnetization 

 Free energy of the ion-electron system (eV)
  ---------------------------------------------------
  alpha Z        PSCENC =         0.01064011
  Ewald energy   TEWEN  =       295.26350922
  -Hartree energ DENC   =      -545.83707033
  -exchange      EXHF   =        99.89855162
  -V(xc)+E(xc)   XCENC  =         0.00000000
  PAW double counting   =       459.21741449     -459.52584427
  entropy T*S    EENTRO =        -0.00000000
  eigenvalues    EBANDS =      -179.49441804
  atomic energy  EATOM  =       289.47619815
  ---------------------------------------------------
  free energy    TOTEN  =       -40.99101905 eV

  energy without entropy =      -40.99101905  energy(sigma->0) =      -40.99101905
  exchange ACFDT corr.  =         0.00000000  see jH, gK, PRB 81, 115126


--------------------------------------------------------------------------------------------------------




----------------------------------------- Iteration    1(  30)  ---------------------------------------


    POTLOK:  cpu time   16.1832: real time   16.2262
    SETDIJ:  cpu time    0.2510: real time    0.2516
    TRIAL :  cpu time   14.4622: real time   14.5334
    CORREC:  cpu time   30.6528: real time   30.7672
    CHARGE:  cpu time    1.8667: real time    1.8744
    --------------------------------------------
      LOOP:  cpu time   63.4547: real time   63.6938

 eigenvalue-minimisations  :     0
 total energy-change (2. order) :-0.9689668E-05  (-0.3887108E-05)
 number of electron      10.0000000 magnetization 
 augmentation part        0.0960936 magnetization 

 Free energy of the ion-electron system (eV)
  ---------------------------------------------------
  alpha Z        PSCENC =         0.01064011
  Ewald energy   TEWEN  =       295.26350922
  -Hartree energ DENC   =      -545.84542801
  -exchange      EXHF   =        99.90079249
  -V(xc)+E(xc)   XCENC  =         0.00000000
  PAW double counting   =       459.19820254     -459.50663268
  entropy T*S    EENTRO =        -0.00000000
  eigenvalues    EBANDS =      -179.48831057
  atomic energy  EATOM  =       289.47619815
  ---------------------------------------------------
  free energy    TOTEN  =       -40.99102874 eV

  energy without entropy =      -40.99102874  energy(sigma->0) =      -40.99102874
  exchange ACFDT corr.  =        -0.00000000  see jH, gK, PRB 81, 115126


--------------------------------------------------------------------------------------------------------




----------------------------------------- Iteration    1(  31)  ---------------------------------------


    POTLOK:  cpu time   16.2003: real time   16.2432
    SETDIJ:  cpu time    0.2513: real time    0.2519
    TRIAL :  cpu time   14.4630: real time   14.5336
    CORREC:  cpu time   30.5925: real time   30.7067
    CHARGE:  cpu time    1.8670: real time    1.8749
    --------------------------------------------
      LOOP:  cpu time   63.4188: real time   63.6581

 eigenvalue-minimisations  :     0
 total energy-change (2. order) :-0.3888391E-05  (-0.1334060E-05)
 number of electron      10.0000000 magnetization 
 augmentation part        0.0960882 magnetization 

 Free energy of the ion-electron system (eV)
  ---------------------------------------------------
  alpha Z        PSCENC =         0.01064011
  Ewald energy   TEWEN  =       295.26350922
  -Hartree energ DENC   =      -545.84404593
  -exchange      EXHF   =        99.90120641
  -V(xc)+E(xc)   XCENC  =         0.00000000
  PAW double counting   =       459.17365257     -459.48207635
  entropy T*S    EENTRO =        -0.00000000
  eigenvalues    EBANDS =      -179.49011681
  atomic energy  EATOM  =       289.47619815
  ---------------------------------------------------
  free energy    TOTEN  =       -40.99103263 eV

  energy without entropy =      -40.99103263  energy(sigma->0) =      -40.99103263
  exchange ACFDT corr.  =        -0.00000000  see jH, gK, PRB 81, 115126


--------------------------------------------------------------------------------------------------------




----------------------------------------- Iteration    1(  32)  ---------------------------------------


    POTLOK:  cpu time   16.2049: real time   16.2478
    SETDIJ:  cpu time    0.2507: real time    0.2515
    TRIAL :  cpu time   14.4643: real time   14.5340
    CORREC:  cpu time   30.6767: real time   30.7915
    CHARGE:  cpu time    1.8750: real time    1.8829
    --------------------------------------------
      LOOP:  cpu time   63.5147: real time   63.7537

 eigenvalue-minimisations  :     0
 total energy-change (2. order) :-0.1333699E-05  (-0.4347165E-06)
 number of electron      10.0000000 magnetization 
 augmentation part        0.0960892 magnetization 

 Free energy of the ion-electron system (eV)
  ---------------------------------------------------
  alpha Z        PSCENC =         0.01064011
  Ewald energy   TEWEN  =       295.26350922
  -Hartree energ DENC   =      -545.84097608
  -exchange      EXHF   =        99.90104356
  -V(xc)+E(xc)   XCENC  =         0.00000000
  PAW double counting   =       459.16158238     -459.47000525
  entropy T*S    EENTRO =        -0.00000000
  eigenvalues    EBANDS =      -179.49302604
  atomic energy  EATOM  =       289.47619815
  ---------------------------------------------------
  free energy    TOTEN  =       -40.99103396 eV

  energy without entropy =      -40.99103396  energy(sigma->0) =      -40.99103396
  exchange ACFDT corr.  =        -0.00000000  see jH, gK, PRB 81, 115126


--------------------------------------------------------------------------------------------------------




----------------------------------------- Iteration    1(  33)  ---------------------------------------


    POTLOK:  cpu time   16.2646: real time   16.3077
    SETDIJ:  cpu time    0.2538: real time    0.2544
    TRIAL :  cpu time   14.4307: real time   14.5010
    CORREC:  cpu time   30.7111: real time   30.8262
    CHARGE:  cpu time    1.8729: real time    1.8806
    --------------------------------------------
      LOOP:  cpu time   63.5627: real time   63.8018

 eigenvalue-minimisations  :     0
 total energy-change (2. order) :-0.4348424E-06  (-0.1954375E-06)
 number of electron      10.0000000 magnetization 
 augmentation part        0.0960867 magnetization 

 Free energy of the ion-electron system (eV)
  ---------------------------------------------------
  alpha Z        PSCENC =         0.01064011
  Ewald energy   TEWEN  =       295.26350922
  -Hartree energ DENC   =      -545.84190992
  -exchange      EXHF   =        99.90127905
  -V(xc)+E(xc)   XCENC  =         0.00000000
  PAW double counting   =       459.16323399     -459.47166027
  entropy T*S    EENTRO =        -0.00000000
  eigenvalues    EBANDS =      -179.49232473
  atomic energy  EATOM  =       289.47619815
  ---------------------------------------------------
  free energy    TOTEN  =       -40.99103439 eV

  energy without entropy =      -40.99103439  energy(sigma->0) =      -40.99103439
  exchange ACFDT corr.  =        -0.00000000  see jH, gK, PRB 81, 115126


--------------------------------------------------------------------------------------------------------




----------------------------------------- Iteration    1(  34)  ---------------------------------------


    POTLOK:  cpu time   16.2474: real time   16.2905
    SETDIJ:  cpu time    0.2528: real time    0.2534
    TRIAL :  cpu time   14.4346: real time   14.5054
    CORREC:  cpu time   30.6491: real time   30.7638
    CHARGE:  cpu time    1.8704: real time    1.8783
    --------------------------------------------
      LOOP:  cpu time   63.4784: real time   63.7181

 eigenvalue-minimisations  :     0
 total energy-change (2. order) :-0.1961648E-06  (-0.1155492E-06)
 number of electron      10.0000000 magnetization 
 augmentation part        0.0960871 magnetization 

 Free energy of the ion-electron system (eV)
  ---------------------------------------------------
  alpha Z        PSCENC =         0.01064011
  Ewald energy   TEWEN  =       295.26350922
  -Hartree energ DENC   =      -545.84217839
  -exchange      EXHF   =        99.90131390
  -V(xc)+E(xc)   XCENC  =         0.00000000
  PAW double counting   =       459.16515400     -459.47358211
  entropy T*S    EENTRO =        -0.00000000
  eigenvalues    EBANDS =      -179.49208947
  atomic energy  EATOM  =       289.47619815
  ---------------------------------------------------
  free energy    TOTEN  =       -40.99103459 eV

  energy without entropy =      -40.99103459  energy(sigma->0) =      -40.99103459
  exchange ACFDT corr.  =        -0.00000000  see jH, gK, PRB 81, 115126


--------------------------------------------------------------------------------------------------------




----------------------------------------- Iteration    1(  35)  ---------------------------------------


    POTLOK:  cpu time   16.2684: real time   16.3117
    SETDIJ:  cpu time    0.2523: real time    0.2529
    TRIAL :  cpu time   14.4753: real time   14.5466
    CORREC:  cpu time   30.6140: real time   30.7286
    CHARGE:  cpu time    1.8719: real time    1.8798
    --------------------------------------------
      LOOP:  cpu time   63.5103: real time   63.7509

 eigenvalue-minimisations  :     0
 total energy-change (2. order) :-0.1136987E-06  (-0.5613075E-07)
 number of electron      10.0000000 magnetization 
 augmentation part        0.0960864 magnetization 

 Free energy of the ion-electron system (eV)
  ---------------------------------------------------
  alpha Z        PSCENC =         0.01064011
  Ewald energy   TEWEN  =       295.26350922
  -Hartree energ DENC   =      -545.84209133
  -exchange      EXHF   =        99.90123272
  -V(xc)+E(xc)   XCENC  =         0.00000000
  PAW double counting   =       459.16598219     -459.47440939
  entropy T*S    EENTRO =        -0.00000000
  eigenvalues    EBANDS =      -179.49209638
  atomic energy  EATOM  =       289.47619815
  ---------------------------------------------------
  free energy    TOTEN  =       -40.99103470 eV

  energy without entropy =      -40.99103470  energy(sigma->0) =      -40.99103470
  exchange ACFDT corr.  =         0.00000000  see jH, gK, PRB 81, 115126


--------------------------------------------------------------------------------------------------------




----------------------------------------- Iteration    1(  36)  ---------------------------------------


    POTLOK:  cpu time   16.2297: real time   16.2727
    SETDIJ:  cpu time    0.2536: real time    0.2544
    TRIAL :  cpu time   14.4326: real time   14.5024
    CORREC:  cpu time   30.6137: real time   30.7283
    CHARGE:  cpu time    1.8778: real time    1.8858
    --------------------------------------------
      LOOP:  cpu time   63.4390: real time   63.6778

 eigenvalue-minimisations  :     0
 total energy-change (2. order) :-0.5578909E-07  (-0.2460702E-07)
 number of electron      10.0000000 magnetization 
 augmentation part        0.0960854 magnetization 

 Free energy of the ion-electron system (eV)
  ---------------------------------------------------
  alpha Z        PSCENC =         0.01064011
  Ewald energy   TEWEN  =       295.26350922
  -Hartree energ DENC   =      -545.84225029
  -exchange      EXHF   =        99.90120902
  -V(xc)+E(xc)   XCENC  =         0.00000000
  PAW double counting   =       459.16670628     -459.47513310
  entropy T*S    EENTRO =        -0.00000000
  eigenvalues    EBANDS =      -179.49191414
  atomic energy  EATOM  =       289.47619815
  ---------------------------------------------------
  free energy    TOTEN  =       -40.99103476 eV

  energy without entropy =      -40.99103476  energy(sigma->0) =      -40.99103476
  exchange ACFDT corr.  =         0.00000000  see jH, gK, PRB 81, 115126


--------------------------------------------------------------------------------------------------------


  average scaling for gradient   1.1689


 average (electrostatic) potential at core
  the test charge radii are     0.6991  0.5883
  (the norm of the test charge is              1.0000)
       1 -41.8937       2 -41.8937       3 -23.7005       4 -23.7005
 
 
 
 E-fermi : -11.0305     XC(G=0):   0.0000     alpha+bet : -0.0060


 k-point     1 :       0.0000    0.0000    0.0000
  band No.  band energies     occupation 
      1     -27.9908      2.00000
      2     -20.9287      2.00000
      3     -18.5343      2.00000
      4     -11.1461      2.00000
      5     -11.1461      2.00000
      6       0.0071      0.00000
      7       0.1322      0.00000
      8       0.1705      0.00000
      9       0.1488      0.00000
     10       0.1796      0.00000
     11       0.1872      0.00000
     12       1.1269      0.00000


--------------------------------------------------------------------------------------------------------


 soft charge-density along one line, spin component           1
         0         1         2         3         4         5         6         7         8         9
 total charge-density along one line
 
 pseudopotential strength for first ion, spin component:           1
  9.189 -14.019   0.000   0.000  -0.006   0.000   0.000  -0.027
-14.019  24.174  -0.000  -0.000   0.007  -0.000  -0.000   0.057
  0.000  -0.000  -3.541  -0.000  -0.000  -0.795   0.000   0.000
  0.000  -0.000  -0.000  -3.541  -0.000   0.000  -0.795   0.000
 -0.006   0.007  -0.000  -0.000  -3.535   0.000   0.000  -0.812
  0.000  -0.000  -0.795   0.000   0.000  51.774  -0.000  -0.000
  0.000  -0.000   0.000  -0.795   0.000  -0.000  51.774   0.000
 -0.027   0.057   0.000   0.000  -0.812  -0.000   0.000  51.904
 total augmentation occupancy for first ion, spin component:           1
  1.689   0.058  -0.000  -0.000   0.135  -0.000  -0.000   0.018
  0.058   0.002  -0.000   0.000   0.010  -0.000   0.000   0.001
 -0.000  -0.000   0.995  -0.000  -0.000   0.039  -0.000  -0.000
 -0.000   0.000  -0.000   0.995   0.002  -0.000   0.040   0.000
  0.135   0.010  -0.000   0.002   1.648  -0.000   0.000   0.099
 -0.000  -0.000   0.039  -0.000  -0.000   0.002   0.000  -0.000
 -0.000   0.000  -0.000   0.040   0.000   0.000   0.002   0.000
  0.018   0.001  -0.000   0.000   0.099  -0.000   0.000   0.006


------------------------ aborting loop because EDIFF is reached ----------------------------------------


    FORLOC:  cpu time    0.9235: real time    0.9259
    FORHF :  cpu time    9.1885: real time    9.2144
    FORNL :  cpu time    0.3217: real time    0.3225
    OFIELD:  cpu time    0.1690: real time    0.1696

 VOLUME and BASIS-vectors are now :
 -----------------------------------------------------------------------------
  energy-cutoff  :     1600.00
  volume of cell :    42875.00
      direct lattice vectors                 reciprocal lattice vectors
    35.000000000  0.000000000  0.000000000     0.028571429  0.000000000  0.000000000
     0.000000000 35.000000000  0.000000000     0.000000000  0.028571429  0.000000000
     0.000000000  0.000000000 35.000000000     0.000000000  0.000000000  0.028571429

  length of vectors
    35.000000000 35.000000000 35.000000000     0.028571429  0.028571429  0.028571429


 FORCES acting on ions:
    Electron-Ion                     Ewald-Force                    Non-Local-Force
 -----------------------------------------------------------------------------------------------
   0.117E+03 -.114E-01 0.129E+00   -.117E+03 0.111E-01 -.148E+00   0.356E+01 -.140E-03 0.164E-01
   -.117E+03 0.634E-02 -.494E+00   0.117E+03 -.655E-02 0.472E+00   -.356E+01 0.339E-03 -.186E-02
   0.571E+02 -.254E-02 0.302E+00   -.635E+02 0.287E-02 -.333E+00   0.615E+01 -.227E-03 0.363E-01
   -.571E+02 0.671E-02 -.490E-02   0.635E+02 -.742E-02 0.886E-02   -.615E+01 0.780E-03 0.315E-02
 -----------------------------------------------------------------------------------------------
   0.303E-04 -.930E-03 -.669E-01   -.142E-13 -.867E-18 0.468E-16   -.365E-04 0.753E-03 0.540E-01
 
 
 POSITION                                       TOTAL-FORCE (eV/Angst)
 -----------------------------------------------------------------------------------
     34.39827     34.97143      0.38493         3.534459     -0.000385      0.000938
      0.61011     34.97134      0.38816        -3.534243      0.000152     -0.017649
     33.33626     34.97147      0.37901         0.339079      0.000081      0.009308
      1.67214     34.97121      0.38797        -0.339295      0.000151      0.007403
 -----------------------------------------------------------------------------------
    total drift:                               -0.000028      0.000006      0.000190


--------------------------------------------------------------------------------------------------------



  FREE ENERGIE OF THE ION-ELECTRON SYSTEM (eV)
  ---------------------------------------------------
  free  energy   TOTEN  =       -40.99103476 eV

  energy  without entropy=      -40.99103476  energy(sigma->0) =      -40.99103476
 


--------------------------------------------------------------------------------------------------------


    POTLOK:  cpu time   16.5436: real time   16.5874


--------------------------------------------------------------------------------------------------------


     LOOP+:  cpu time 2595.2891: real time 2604.9570
    4ORBIT:  cpu time    0.0000: real time    0.0000

 total amount of memory used by VASP on root node  3691675. kBytes
========================================================================

   base      :      30000. kBytes
   nonl-proj :     105923. kBytes
   fftplans  :    1395487. kBytes
   grid      :    2104012. kBytes
   one-center:          4. kBytes
   HF        :         12. kBytes
   nonlr-proj:        161. kBytes
   wavefun   :      56076. kBytes
 
  
  
 General timing and accounting informations for this job:
 ========================================================
  
                  Total CPU time used (sec):     3338.509
                            User time (sec):     3023.957
                          System time (sec):      314.551
                         Elapsed time (sec):     3350.807
  
                   Maximum memory used (kb):     5390048.
                   Average memory used (kb):           0.
  
                          Minor page faults:       956210
                          Major page faults:            4
                 Voluntary context switches:       282171
 
 PROFILE, used timers:      39
 =============================
 
 index                 routine                    time                            calls level
----------------------------------------------------------------------------------------------
    1    total_time                         3350.808259                                1   1
    2      w1_copy                               0.658924                            493   2
    3      fftwav_mpi                           79.981738                            380   2
    4      fftext_mpi                            0.398989                              3   2
    5      overl                                 0.000253                            313   2
    6      orth1                                 0.569459                            239   2
    7      lincom                                0.609040                            192   2
    8      eccp                                 11.594135                            294   2
    9      hamiltmu                             12.331959                             38   2
   10        vhamil                                2.781633                           55   3
   11        overl1                                0.000045                           55   3
   12        kinhamil                              7.550523                           55   3
   13          fftext_mpi                            7.475622                         55   4
   14      pdssyex_zheevx                        0.492270                             67   2
   15      fock_acc                            364.138213                             62   2
   16        w1_copy                               0.471895                          221   3
   17        fftwav_mpi                           24.318577                          221   3
   18        fock_charge_mu                       16.973854                          128   3
   19          racc0mu_hf                            0.213547                        128   4
   20        rpromu_hf                             0.642389                          128   3
   21        overl1                                0.000072                           93   3
   22        fftext_mpi                            7.292723                           93   3
   23      hamilt_local                         19.582915                             93   2
   24        vhamil                                4.635267                           93   3
   25        kinhamil                             14.947435                           93   3
   26          fftext_mpi                           14.822468                         93   4
   27      w1_dscal                              2.234600                             93   2
   28      eddiag                              379.682532                             31   2
   29        fock_acc                            356.944652                           62   3
   30          w1_copy                               0.389735                        217   4
   31          fftwav_mpi                           23.226207                        217   4
   32          fock_charge_mu                       16.517490                        124   4
   33            racc0mu_hf                            0.205926                      124   5
   34          rpromu_hf                             0.727453                        124   4
   35          overl1                                0.000083                         93   4
   36          fftext_mpi                            7.284029                         93   4
   37        fftwav_mpi                           18.863749                           93   3
   38        eccp                                  3.399425                           93   3
   39      rpro1_hf                              0.138888                             96   2
 
 Flat profile
 ============
 
             routine name                   CPU           calls
 ---------------------------------------------------------------
 total_time                           2478.394345           1
 fock_acc                              623.238359         124
 fftwav_mpi                            146.390271         911
 fftext_mpi                             37.273831         337
 fock_charge_mu                         33.071871         252
 eccp                                   14.993559         387
 vhamil                                  7.416900         148
 w1_dscal                                2.234600          93
 hamiltmu                                1.999757          38
 w1_copy                                 1.520553         931
 rpromu_hf                               1.369841         252
 lincom                                  0.609040         192
 orth1                                   0.569459         239
 pdssyex_zheevx                          0.492270          67
 eddiag                                  0.474706          31
 racc0mu_hf                              0.419473         252
 kinhamil                                0.199868         148
 rpro1_hf                                0.138888          96
 overl                                   0.000253         313
 hamilt_local                            0.000214          93
 overl1                                  0.000200         241
 ---------------------------------------------------------------
  summed up times    3350.80825901031     
 
Profiling took   0.006599  0.003994  0.003266  0.003236 seconds
Profiling took   0.003278 seconds
