
     Program PWSCF v.7.2 starts on 13Oct2023 at 14:32:38 

     This program is part of the open-source Quantum ESPRESSO suite
     for quantum simulation of materials; please cite
         "P. Giannozzi et al., J. Phys.:Condens. Matter 21 395502 (2009);
         "P. Giannozzi et al., J. Phys.:Condens. Matter 29 465901 (2017);
         "P. Giannozzi et al., J. Chem. Phys. 152 154105 (2020);
          URL http://www.quantum-espresso.org", 
     in publications or presentations arising from this work. More details at
     http://www.quantum-espresso.org/quote

     Parallel version (MPI), running on    32 processors

     MPI processes distributed on     1 nodes
     252109 MiB available memory on the printing compute node when the environment starts

     Reading input from water_water_38_precision_dimer.in
Warning: card &CELL ignored
Warning: card / ignored

     Current dimensions of program PWSCF are:
     Max number of different atomic species (ntypx) = 10
     Max number of k-points (npk) =  40000
     Max angular momentum in pseudopotentials (lmaxx) =  4
     file O.pbe-n-kjpaw_psl.1.0.0.UPF: wavefunction(s)  2S 2P renormalized
     file H.pbe-kjpaw_psl.1.0.0.UPF: wavefunction(s)  1S renormalized

     IMPORTANT: XC functional enforced from input :
     Exchange-correlation= PBE
                           (   1   4   3   4   0   0   0)
     Any further DFT definition will be discarded
     Please, verify this is what you really want


     gamma-point specific algorithms are used

     R & G space division:  proc/nbgrp/npool/nimage =      32
     Subspace diagonalization in iterative solution of the eigenvalue problem:
     a serial algorithm will be used


     Parallelization info
     --------------------
     sticks:   dense  smooth     PW     G-vecs:    dense   smooth      PW
     Min        6395    6395   1598              2177048  2177048  272114
     Max        6398    6398   1600              2177062  2177062  272124
     Sum      204693  204693  51189             69665707 69665707 8707803

     Using Slab Decomposition



     bravais-lattice index     =            0
     lattice parameter (alat)  =      66.1404  a.u.
     unit-cell volume          =  289334.8415 (a.u.)^3
     number of atoms/cell      =            6
     number of atomic types    =            2
     number of electrons       =        16.00
     number of Kohn-Sham states=            8
     kinetic-energy cutoff     =     147.0000  Ry
     charge density cutoff     =     588.0000  Ry
     scf convergence threshold =      1.0E-08
     mixing beta               =       0.7000
     number of iterations used =            8  plain     mixing
     Exchange-correlation= PBE
                           (   1   4   3   4   0   0   0)

     celldm(1)=  66.140414  celldm(2)=   0.000000  celldm(3)=   0.000000
     celldm(4)=   0.000000  celldm(5)=   0.000000  celldm(6)=   0.000000

     crystal axes: (cart. coord. in units of alat)
               a(1) = (   1.000000   0.000000   0.000000 )  
               a(2) = (   0.000000   1.000000   0.000000 )  
               a(3) = (   0.000000   0.000000   1.000000 )  

     reciprocal axes: (cart. coord. in units 2 pi/alat)
               b(1) = (  1.000000  0.000000  0.000000 )  
               b(2) = (  0.000000  1.000000  0.000000 )  
               b(3) = (  0.000000  0.000000  1.000000 )  


     PseudoPot. # 1 for O  read from file:
     /home/users/klimj2am/src/pslibrary.1.0.0/pbe/PSEUDOPOTENTIALS/O.pbe-n-kjpaw_psl.1.0.0.UPF
     MD5 check sum: 48e285564fec6dca10ec424bc53b541b
     Pseudo is Projector augmented-wave + core cor, Zval =  6.0
     Generated using 'atomic' code by A. Dal Corso  v.7.2
     Shape of augmentation charge: PSQ
     Using radial grid of 1095 points,  4 beta functions with: 
                l(1) =   0
                l(2) =   0
                l(3) =   1
                l(4) =   1
     Q(r) pseudized with 0 coefficients 


     PseudoPot. # 2 for H  read from file:
     /home/users/klimj2am/src/pslibrary.1.0.0/pbe/PSEUDOPOTENTIALS/H.pbe-kjpaw_psl.1.0.0.UPF
     MD5 check sum: 220281c0717fd894cece6904c624ceaa
     Pseudo is Projector augmented-wave, Zval =  1.0
     Generated using 'atomic' code by A. Dal Corso  v.7.2
     Shape of augmentation charge: PSQ
     Using radial grid of  929 points,  2 beta functions with: 
                l(1) =   0
                l(2) =   0
     Q(r) pseudized with 0 coefficients 


     atomic species   valence    mass     pseudopotential
        O              6.00    15.99900     O ( 1.00)
        H              1.00     1.00800     H ( 1.00)

     No symmetry found



   Cartesian axes

     site n.     atom                  positions (alat units)
         1           O   tau(   1) = (   0.0000000  -0.0449370   0.0000000  )
         2           O   tau(   2) = (   0.0000000   0.0636345   0.0000000  )
         3           H   tau(   3) = (   0.0008487   0.0794679  -0.0224289  )
         4           H   tau(   4) = (   0.0003901   0.0815221   0.0208412  )
         5           H   tau(   5) = (   0.0005031  -0.0617010  -0.0217529  )
         6           H   tau(   6) = (  -0.0003822  -0.0619533   0.0215586  )

     number of k points=     1
                       cart. coord. in units 2pi/alat
        k(    1) = (   0.0000000   0.0000000   0.0000000), wk =   2.0000000

     Dense  grid: 34832854 G-vectors     FFT dimensions: ( 512, 512, 512)

     Estimated max dynamical RAM per process >       1.58 GB

     Estimated total dynamical RAM >      50.69 GB

     Initial potential from superposition of free atoms

     starting charge      16.0000, renormalised to      16.0000

     negative rho (up, down):  8.542E-04 0.000E+00
     Starting wfcs are   12 randomized atomic wfcs
     Checking if some PAW data can be deallocated... 

     total cpu time spent up to now is       40.2 secs

     Self-consistent Calculation

     iteration #  1     ecut=   147.00 Ry     beta= 0.70
     Davidson diagonalization with overlap
     ethr =  1.00E-02,  avg # of iterations =  3.0

     negative rho (up, down):  9.183E-04 0.000E+00

     total cpu time spent up to now is       51.6 secs

     total energy              =     -87.54798409 Ry
     estimated scf accuracy    <       1.01193645 Ry

     iteration #  2     ecut=   147.00 Ry     beta= 0.70
     Davidson diagonalization with overlap
     ethr =  6.32E-03,  avg # of iterations =  5.0

     negative rho (up, down):  1.012E-03 0.000E+00

     total cpu time spent up to now is       64.0 secs

     total energy              =     -87.93998579 Ry
     estimated scf accuracy    <       0.36444430 Ry

     iteration #  3     ecut=   147.00 Ry     beta= 0.70
     Davidson diagonalization with overlap
     ethr =  2.28E-03,  avg # of iterations =  3.0

     negative rho (up, down):  1.384E-03 0.000E+00

     total cpu time spent up to now is       75.1 secs

     total energy              =     -87.98972736 Ry
     estimated scf accuracy    <       0.07422283 Ry

     iteration #  4     ecut=   147.00 Ry     beta= 0.70
     Davidson diagonalization with overlap
     ethr =  4.64E-04,  avg # of iterations =  6.0

     negative rho (up, down):  1.577E-03 0.000E+00

     total cpu time spent up to now is       87.4 secs

     total energy              =     -88.06697914 Ry
     estimated scf accuracy    <       0.02199358 Ry

     iteration #  5     ecut=   147.00 Ry     beta= 0.70
     Davidson diagonalization with overlap
     ethr =  1.37E-04,  avg # of iterations =  4.0

     negative rho (up, down):  1.575E-03 0.000E+00

     total cpu time spent up to now is       98.2 secs

     total energy              =     -88.07155976 Ry
     estimated scf accuracy    <       0.00343199 Ry

     iteration #  6     ecut=   147.00 Ry     beta= 0.70
     Davidson diagonalization with overlap
     ethr =  2.14E-05,  avg # of iterations =  5.0

     negative rho (up, down):  1.612E-03 0.000E+00

     total cpu time spent up to now is      110.5 secs

     total energy              =     -88.07500087 Ry
     estimated scf accuracy    <       0.00402248 Ry

     iteration #  7     ecut=   147.00 Ry     beta= 0.70
     Davidson diagonalization with overlap
     ethr =  2.14E-05,  avg # of iterations =  2.0

     negative rho (up, down):  1.683E-03 0.000E+00

     total cpu time spent up to now is      120.6 secs

     total energy              =     -88.07378296 Ry
     estimated scf accuracy    <       0.00306103 Ry

     iteration #  8     ecut=   147.00 Ry     beta= 0.70
     Davidson diagonalization with overlap
     ethr =  1.91E-05,  avg # of iterations =  4.0

     negative rho (up, down):  1.683E-03 0.000E+00

     total cpu time spent up to now is      131.6 secs

     total energy              =     -88.07435505 Ry
     estimated scf accuracy    <       0.00023422 Ry

     iteration #  9     ecut=   147.00 Ry     beta= 0.70
     Davidson diagonalization with overlap
     ethr =  1.46E-06,  avg # of iterations =  6.0

     negative rho (up, down):  1.682E-03 0.000E+00

     total cpu time spent up to now is      144.2 secs

     total energy              =     -88.07471513 Ry
     estimated scf accuracy    <       0.00018643 Ry

     iteration # 10     ecut=   147.00 Ry     beta= 0.70
     Davidson diagonalization with overlap
     ethr =  1.17E-06,  avg # of iterations =  2.0

     negative rho (up, down):  1.681E-03 0.000E+00

     total cpu time spent up to now is      154.4 secs

     total energy              =     -88.07470937 Ry
     estimated scf accuracy    <       0.00014700 Ry

     iteration # 11     ecut=   147.00 Ry     beta= 0.70
     Davidson diagonalization with overlap
     ethr =  9.19E-07,  avg # of iterations =  1.0

     negative rho (up, down):  1.675E-03 0.000E+00

     total cpu time spent up to now is      164.3 secs

     total energy              =     -88.07468525 Ry
     estimated scf accuracy    <       0.00009533 Ry

     iteration # 12     ecut=   147.00 Ry     beta= 0.70
     Davidson diagonalization with overlap
     ethr =  5.96E-07,  avg # of iterations =  2.0

     negative rho (up, down):  1.678E-03 0.000E+00

     total cpu time spent up to now is      174.6 secs

     total energy              =     -88.07468685 Ry
     estimated scf accuracy    <       0.00004479 Ry

     iteration # 13     ecut=   147.00 Ry     beta= 0.70
     Davidson diagonalization with overlap
     ethr =  2.80E-07,  avg # of iterations =  5.0

     negative rho (up, down):  1.678E-03 0.000E+00

     total cpu time spent up to now is      186.2 secs

     total energy              =     -88.07469901 Ry
     estimated scf accuracy    <       0.00001614 Ry

     iteration # 14     ecut=   147.00 Ry     beta= 0.70
     Davidson diagonalization with overlap
     ethr =  1.01E-07,  avg # of iterations =  2.0

     negative rho (up, down):  1.678E-03 0.000E+00

     total cpu time spent up to now is      196.7 secs

     total energy              =     -88.07469768 Ry
     estimated scf accuracy    <       0.00001257 Ry

     iteration # 15     ecut=   147.00 Ry     beta= 0.70
     Davidson diagonalization with overlap
     ethr =  7.86E-08,  avg # of iterations =  2.0

     negative rho (up, down):  1.678E-03 0.000E+00

     total cpu time spent up to now is      206.9 secs

     total energy              =     -88.07469762 Ry
     estimated scf accuracy    <       0.00000573 Ry

     iteration # 16     ecut=   147.00 Ry     beta= 0.70
     Davidson diagonalization with overlap
     ethr =  3.58E-08,  avg # of iterations =  2.0

     negative rho (up, down):  1.678E-03 0.000E+00

     total cpu time spent up to now is      217.6 secs

     total energy              =     -88.07469765 Ry
     estimated scf accuracy    <       0.00000299 Ry

     iteration # 17     ecut=   147.00 Ry     beta= 0.70
     Davidson diagonalization with overlap
     ethr =  1.87E-08,  avg # of iterations =  5.0

     negative rho (up, down):  1.678E-03 0.000E+00

     total cpu time spent up to now is      229.5 secs

     total energy              =     -88.07469876 Ry
     estimated scf accuracy    <       0.00000134 Ry

     iteration # 18     ecut=   147.00 Ry     beta= 0.70
     Davidson diagonalization with overlap
     ethr =  8.35E-09,  avg # of iterations =  2.0

     negative rho (up, down):  1.678E-03 0.000E+00

     total cpu time spent up to now is      239.9 secs

     total energy              =     -88.07469857 Ry
     estimated scf accuracy    <       0.00000151 Ry

     iteration # 19     ecut=   147.00 Ry     beta= 0.70
     Davidson diagonalization with overlap
     ethr =  8.35E-09,  avg # of iterations =  5.0

     negative rho (up, down):  1.678E-03 0.000E+00

     total cpu time spent up to now is      251.5 secs

     total energy              =     -88.07469830 Ry
     estimated scf accuracy    <       0.00000179 Ry

     iteration # 20     ecut=   147.00 Ry     beta= 0.70
     Davidson diagonalization with overlap
     ethr =  8.35E-09,  avg # of iterations =  2.0

     negative rho (up, down):  1.678E-03 0.000E+00

     total cpu time spent up to now is      261.7 secs

     total energy              =     -88.07469820 Ry
     estimated scf accuracy    <       0.00000062 Ry

     iteration # 21     ecut=   147.00 Ry     beta= 0.70
     Davidson diagonalization with overlap
     ethr =  3.89E-09,  avg # of iterations =  6.0

     negative rho (up, down):  1.678E-03 0.000E+00

     total cpu time spent up to now is      274.7 secs

     total energy              =     -88.07469856 Ry
     estimated scf accuracy    <       0.00000068 Ry

     iteration # 22     ecut=   147.00 Ry     beta= 0.70
     Davidson diagonalization with overlap
     ethr =  3.89E-09,  avg # of iterations =  2.0

     negative rho (up, down):  1.678E-03 0.000E+00

     total cpu time spent up to now is      284.8 secs

     total energy              =     -88.07469847 Ry
     estimated scf accuracy    <       0.00000038 Ry

     iteration # 23     ecut=   147.00 Ry     beta= 0.70
     Davidson diagonalization with overlap
     ethr =  2.35E-09,  avg # of iterations =  2.0

     negative rho (up, down):  1.678E-03 0.000E+00

     total cpu time spent up to now is      295.6 secs

     total energy              =     -88.07469848 Ry
     estimated scf accuracy    <       0.00000010 Ry

     iteration # 24     ecut=   147.00 Ry     beta= 0.70
     Davidson diagonalization with overlap
     ethr =  6.15E-10,  avg # of iterations =  8.0

     negative rho (up, down):  1.678E-03 0.000E+00

     total cpu time spent up to now is      310.1 secs

     total energy              =     -88.07469858 Ry
     estimated scf accuracy    <       0.00000004 Ry

     iteration # 25     ecut=   147.00 Ry     beta= 0.70
     Davidson diagonalization with overlap
     ethr =  2.56E-10,  avg # of iterations =  2.0

     negative rho (up, down):  1.678E-03 0.000E+00

     total cpu time spent up to now is      320.6 secs

     total energy              =     -88.07469859 Ry
     estimated scf accuracy    <       0.00000004 Ry

     iteration # 26     ecut=   147.00 Ry     beta= 0.70
     Davidson diagonalization with overlap
     ethr =  2.56E-10,  avg # of iterations =  2.0

     negative rho (up, down):  1.678E-03 0.000E+00

     total cpu time spent up to now is      330.8 secs

     total energy              =     -88.07469857 Ry
     estimated scf accuracy    <       0.00000005 Ry

     iteration # 27     ecut=   147.00 Ry     beta= 0.70
     Davidson diagonalization with overlap
     ethr =  2.56E-10,  avg # of iterations =  2.0

     negative rho (up, down):  1.678E-03 0.000E+00

     total cpu time spent up to now is      340.9 secs

     total energy              =     -88.07469856 Ry
     estimated scf accuracy    <       0.00000002 Ry

     iteration # 28     ecut=   147.00 Ry     beta= 0.70
     Davidson diagonalization with overlap
     ethr =  1.18E-10,  avg # of iterations =  7.0

     negative rho (up, down):  1.678E-03 0.000E+00

     total cpu time spent up to now is      356.0 secs

     total energy              =     -88.07469857 Ry
     estimated scf accuracy    <       0.00000004 Ry

     iteration # 29     ecut=   147.00 Ry     beta= 0.70
     Davidson diagonalization with overlap
     ethr =  1.18E-10,  avg # of iterations =  2.0

     negative rho (up, down):  1.678E-03 0.000E+00

     total cpu time spent up to now is      366.2 secs

     total energy              =     -88.07469857 Ry
     estimated scf accuracy    <       0.00000002 Ry

     iteration # 30     ecut=   147.00 Ry     beta= 0.70
     Davidson diagonalization with overlap
     ethr =  1.18E-10,  avg # of iterations =  2.0

     negative rho (up, down):  1.678E-03 0.000E+00

     total cpu time spent up to now is      375.5 secs

     End of self-consistent calculation

          k = 0.0000 0.0000 0.0000 (****** PWs)   bands (ev):

   -25.1113 -25.1073 -12.8688 -12.8625  -9.0678  -8.9197  -6.9584  -6.9301

     highest occupied level (ev):    -6.9301

!    total energy              =     -88.07469857 Ry
     total all-electron energy =      -305.768462 Ry
     estimated scf accuracy    <          9.7E-09 Ry

     The total energy is the sum of the following terms:
     one-electron contribution =    -176.15585627 Ry
     hartree contribution      =      91.53991876 Ry
     xc contribution           =     -17.73871802 Ry
     ewald contribution        =      33.45355439 Ry
     one-center paw contrib.   =     -19.17359742 Ry

     charge density inside the Wigner-Seitz cell:   16.00000000

     reference position (x0):         0.00562023    0.61808458   -0.00736655 bohr

     Dipole moments (with respect to x0):
     Elect   0.0283  -0.0012  -0.0364 au (Ha),   0.0720  -0.0031  -0.0925 Debye
     Ionic  -0.0000  -0.0000   0.0000 au (Ha),  -0.0000  -0.0000   0.0000 Debye
     Total   0.0283  -0.0012  -0.0364 au (Ha),   0.0720  -0.0031  -0.0925 Debye

     Electrons quadrupole moment       -269.16780110 a.u. (Ha)
          Ions quadrupole moment        251.52526470 a.u. (Ha)
         Total quadrupole moment        -17.64253641 a.u. (Ha)

     *********    MAKOV-PAYNE CORRECTION    *********

     Makov-Payne correction with Madelung constant =   2.8373

     Makov-Payne correction     0.00000000 Ry =  0.000 eV (1st order, 1/a0)
                                0.00000003 Ry =  0.000 eV (2nd order, 1/a0^3)
                                0.00000003 Ry =  0.000 eV (total)

!    Total+Makov-Payne energy  =     -88.07469853 Ry
     Corrected vacuum level    =       0.00346086 eV

     convergence has been achieved in  30 iterations

     Writing all to output data dir ./pwscf.save/

     init_run     :     37.41s CPU     39.72s WALL (       1 calls)
     electrons    :    299.03s CPU    338.14s WALL (       1 calls)

     Called by init_run:
     wfcinit      :      1.67s CPU      1.87s WALL (       1 calls)
     potinit      :      3.82s CPU      4.68s WALL (       1 calls)
     hinit0       :      5.90s CPU      6.26s WALL (       1 calls)

     Called by electrons:
     c_bands      :    108.18s CPU    112.62s WALL (      30 calls)
     sum_band     :     69.00s CPU     79.62s WALL (      30 calls)
     v_of_rho     :     66.72s CPU     80.52s WALL (      31 calls)
     newd         :     29.26s CPU     37.96s WALL (      31 calls)
     PAW_pot      :      0.37s CPU      0.45s WALL (      31 calls)
     mix_rho      :     24.72s CPU     25.99s WALL (      30 calls)

     Called by c_bands:
     init_us_2    :      1.59s CPU      1.62s WALL (      61 calls)
     init_us_2:cp :      1.59s CPU      1.62s WALL (      61 calls)
     regterg      :    106.06s CPU    110.48s WALL (      30 calls)

     Called by *egterg:
     rdiaghg      :      0.02s CPU      0.03s WALL (     133 calls)
     h_psi        :     93.67s CPU     98.14s WALL (     134 calls)
     s_psi        :      2.46s CPU      2.47s WALL (     134 calls)
     g_psi        :      0.32s CPU      0.32s WALL (     103 calls)

     Called by h_psi:
     h_psi:calbec :      1.96s CPU      2.00s WALL (     134 calls)
     vloc_psi     :     88.63s CPU     93.03s WALL (     134 calls)
     add_vuspsi   :      2.43s CPU      2.43s WALL (     134 calls)

     General routines
     calbec       :      2.52s CPU      2.57s WALL (     164 calls)
     fft          :     55.48s CPU     65.95s WALL (     279 calls)
     ffts         :      5.31s CPU      6.07s WALL (      30 calls)
     fftw         :     82.19s CPU     87.21s WALL (     878 calls)

     Parallel routines

     PWSCF        :   5m38.67s CPU   6m22.58s WALL


   This run was terminated on:  14:39: 0  13Oct2023            

=------------------------------------------------------------------------------=
   JOB DONE.
=------------------------------------------------------------------------------=
