
     Program PWSCF v.7.2 starts on 13Oct2023 at 14:28:33 

     This program is part of the open-source Quantum ESPRESSO suite
     for quantum simulation of materials; please cite
         "P. Giannozzi et al., J. Phys.:Condens. Matter 21 395502 (2009);
         "P. Giannozzi et al., J. Phys.:Condens. Matter 29 465901 (2017);
         "P. Giannozzi et al., J. Chem. Phys. 152 154105 (2020);
          URL http://www.quantum-espresso.org", 
     in publications or presentations arising from this work. More details at
     http://www.quantum-espresso.org/quote

     Parallel version (MPI), running on    32 processors

     MPI processes distributed on     1 nodes
     248814 MiB available memory on the printing compute node when the environment starts

     Reading input from water_water_36_precision_dimer.in
Warning: card &CELL ignored
Warning: card / ignored

     Current dimensions of program PWSCF are:
     Max number of different atomic species (ntypx) = 10
     Max number of k-points (npk) =  40000
     Max angular momentum in pseudopotentials (lmaxx) =  4
     file O.pbe-n-kjpaw_psl.1.0.0.UPF: wavefunction(s)  2S 2P renormalized
     file H.pbe-kjpaw_psl.1.0.0.UPF: wavefunction(s)  1S renormalized

     IMPORTANT: XC functional enforced from input :
     Exchange-correlation= PBE
                           (   1   4   3   4   0   0   0)
     Any further DFT definition will be discarded
     Please, verify this is what you really want


     gamma-point specific algorithms are used

     R & G space division:  proc/nbgrp/npool/nimage =      32
     Subspace diagonalization in iterative solution of the eigenvalue problem:
     a serial algorithm will be used


     Parallelization info
     --------------------
     sticks:   dense  smooth     PW     G-vecs:    dense   smooth      PW
     Min        6395    6395   1598              2177048  2177048  272114
     Max        6398    6398   1600              2177062  2177062  272124
     Sum      204693  204693  51189             69665707 69665707 8707803

     Using Slab Decomposition



     bravais-lattice index     =            0
     lattice parameter (alat)  =      66.1404  a.u.
     unit-cell volume          =  289334.8415 (a.u.)^3
     number of atoms/cell      =            6
     number of atomic types    =            2
     number of electrons       =        16.00
     number of Kohn-Sham states=            8
     kinetic-energy cutoff     =     147.0000  Ry
     charge density cutoff     =     588.0000  Ry
     scf convergence threshold =      1.0E-08
     mixing beta               =       0.7000
     number of iterations used =            8  plain     mixing
     Exchange-correlation= PBE
                           (   1   4   3   4   0   0   0)

     celldm(1)=  66.140414  celldm(2)=   0.000000  celldm(3)=   0.000000
     celldm(4)=   0.000000  celldm(5)=   0.000000  celldm(6)=   0.000000

     crystal axes: (cart. coord. in units of alat)
               a(1) = (   1.000000   0.000000   0.000000 )  
               a(2) = (   0.000000   1.000000   0.000000 )  
               a(3) = (   0.000000   0.000000   1.000000 )  

     reciprocal axes: (cart. coord. in units 2 pi/alat)
               b(1) = (  1.000000  0.000000  0.000000 )  
               b(2) = (  0.000000  1.000000  0.000000 )  
               b(3) = (  0.000000  0.000000  1.000000 )  


     PseudoPot. # 1 for O  read from file:
     /home/users/klimj2am/src/pslibrary.1.0.0/pbe/PSEUDOPOTENTIALS/O.pbe-n-kjpaw_psl.1.0.0.UPF
     MD5 check sum: 48e285564fec6dca10ec424bc53b541b
     Pseudo is Projector augmented-wave + core cor, Zval =  6.0
     Generated using 'atomic' code by A. Dal Corso  v.7.2
     Shape of augmentation charge: PSQ
     Using radial grid of 1095 points,  4 beta functions with: 
                l(1) =   0
                l(2) =   0
                l(3) =   1
                l(4) =   1
     Q(r) pseudized with 0 coefficients 


     PseudoPot. # 2 for H  read from file:
     /home/users/klimj2am/src/pslibrary.1.0.0/pbe/PSEUDOPOTENTIALS/H.pbe-kjpaw_psl.1.0.0.UPF
     MD5 check sum: 220281c0717fd894cece6904c624ceaa
     Pseudo is Projector augmented-wave, Zval =  1.0
     Generated using 'atomic' code by A. Dal Corso  v.7.2
     Shape of augmentation charge: PSQ
     Using radial grid of  929 points,  2 beta functions with: 
                l(1) =   0
                l(2) =   0
     Q(r) pseudized with 0 coefficients 


     atomic species   valence    mass     pseudopotential
        O              6.00    15.99900     O ( 1.00)
        H              1.00     1.00800     H ( 1.00)

     No symmetry found



   Cartesian axes

     site n.     atom                  positions (alat units)
         1           O   tau(   1) = (   0.0000000  -0.0392227   0.0000000  )
         2           O   tau(   2) = (   0.0000000   0.0636345   0.0000000  )
         3           H   tau(   3) = (   0.0008487   0.0794679  -0.0224289  )
         4           H   tau(   4) = (   0.0003901   0.0815221   0.0208412  )
         5           H   tau(   5) = (   0.0005031  -0.0559867  -0.0217529  )
         6           H   tau(   6) = (  -0.0003822  -0.0562390   0.0215586  )

     number of k points=     1
                       cart. coord. in units 2pi/alat
        k(    1) = (   0.0000000   0.0000000   0.0000000), wk =   2.0000000

     Dense  grid: 34832854 G-vectors     FFT dimensions: ( 512, 512, 512)

     Estimated max dynamical RAM per process >       1.58 GB

     Estimated total dynamical RAM >      50.69 GB

     Initial potential from superposition of free atoms

     starting charge      16.0000, renormalised to      16.0000

     negative rho (up, down):  8.571E-04 0.000E+00
     Starting wfcs are   12 randomized atomic wfcs
     Checking if some PAW data can be deallocated... 

     total cpu time spent up to now is       40.3 secs

     Self-consistent Calculation

     iteration #  1     ecut=   147.00 Ry     beta= 0.70
     Davidson diagonalization with overlap
     ethr =  1.00E-02,  avg # of iterations =  3.0

     negative rho (up, down):  9.224E-04 0.000E+00

     total cpu time spent up to now is       51.6 secs

     total energy              =     -87.54604725 Ry
     estimated scf accuracy    <       1.01415490 Ry

     iteration #  2     ecut=   147.00 Ry     beta= 0.70
     Davidson diagonalization with overlap
     ethr =  6.34E-03,  avg # of iterations =  5.0

     negative rho (up, down):  1.015E-03 0.000E+00

     total cpu time spent up to now is       64.0 secs

     total energy              =     -87.93864790 Ry
     estimated scf accuracy    <       0.36675239 Ry

     iteration #  3     ecut=   147.00 Ry     beta= 0.70
     Davidson diagonalization with overlap
     ethr =  2.29E-03,  avg # of iterations =  3.0

     negative rho (up, down):  1.387E-03 0.000E+00

     total cpu time spent up to now is       75.0 secs

     total energy              =     -87.98865999 Ry
     estimated scf accuracy    <       0.07465493 Ry

     iteration #  4     ecut=   147.00 Ry     beta= 0.70
     Davidson diagonalization with overlap
     ethr =  4.67E-04,  avg # of iterations =  5.0

     negative rho (up, down):  1.581E-03 0.000E+00

     total cpu time spent up to now is       86.7 secs

     total energy              =     -88.06798680 Ry
     estimated scf accuracy    <       0.02203228 Ry

     iteration #  5     ecut=   147.00 Ry     beta= 0.70
     Davidson diagonalization with overlap
     ethr =  1.38E-04,  avg # of iterations =  2.0

     negative rho (up, down):  1.677E-03 0.000E+00

     total cpu time spent up to now is       96.7 secs

     total energy              =     -88.06626394 Ry
     estimated scf accuracy    <       0.00593411 Ry

     iteration #  6     ecut=   147.00 Ry     beta= 0.70
     Davidson diagonalization with overlap
     ethr =  3.71E-05,  avg # of iterations =  7.0

     negative rho (up, down):  1.690E-03 0.000E+00

     total cpu time spent up to now is      111.6 secs

     total energy              =     -88.07935087 Ry
     estimated scf accuracy    <       0.01330163 Ry

     iteration #  7     ecut=   147.00 Ry     beta= 0.70
     Davidson diagonalization with overlap
     ethr =  3.71E-05,  avg # of iterations =  2.0

     negative rho (up, down):  1.690E-03 0.000E+00

     total cpu time spent up to now is      121.9 secs

     total energy              =     -88.08011829 Ry
     estimated scf accuracy    <       0.01916733 Ry

     iteration #  8     ecut=   147.00 Ry     beta= 0.70
     Davidson diagonalization with overlap
     ethr =  3.71E-05,  avg # of iterations =  1.0

     negative rho (up, down):  1.684E-03 0.000E+00

     total cpu time spent up to now is      131.6 secs

     total energy              =     -88.08031621 Ry
     estimated scf accuracy    <       0.01968065 Ry

     iteration #  9     ecut=   147.00 Ry     beta= 0.70
     Davidson diagonalization with overlap
     ethr =  3.71E-05,  avg # of iterations =  2.0

     negative rho (up, down):  1.684E-03 0.000E+00

     total cpu time spent up to now is      141.8 secs

     total energy              =     -88.08040129 Ry
     estimated scf accuracy    <       0.02126564 Ry

     iteration # 10     ecut=   147.00 Ry     beta= 0.70
     Davidson diagonalization with overlap
     ethr =  3.71E-05,  avg # of iterations =  1.0

     negative rho (up, down):  1.703E-03 0.000E+00

     total cpu time spent up to now is      151.6 secs

     total energy              =     -88.08156359 Ry
     estimated scf accuracy    <       0.02169705 Ry

     iteration # 11     ecut=   147.00 Ry     beta= 0.70
     Davidson diagonalization with overlap
     ethr =  3.71E-05,  avg # of iterations =  1.0

     negative rho (up, down):  1.727E-03 0.000E+00

     total cpu time spent up to now is      161.4 secs

     total energy              =     -88.07689230 Ry
     estimated scf accuracy    <       0.02459230 Ry

     iteration # 12     ecut=   147.00 Ry     beta= 0.70
     Davidson diagonalization with overlap
     ethr =  3.71E-05,  avg # of iterations =  1.0

     negative rho (up, down):  1.738E-03 0.000E+00

     total cpu time spent up to now is      171.3 secs

     total energy              =     -88.07399529 Ry
     estimated scf accuracy    <       0.01642195 Ry

     iteration # 13     ecut=   147.00 Ry     beta= 0.70
     Davidson diagonalization with overlap
     ethr =  3.71E-05,  avg # of iterations =  2.0

     negative rho (up, down):  1.769E-03 0.000E+00

     total cpu time spent up to now is      181.5 secs

     total energy              =     -88.07309127 Ry
     estimated scf accuracy    <       0.00923827 Ry

     iteration # 14     ecut=   147.00 Ry     beta= 0.70
     Davidson diagonalization with overlap
     ethr =  3.71E-05,  avg # of iterations =  2.0

     negative rho (up, down):  1.806E-03 0.000E+00

     total cpu time spent up to now is      191.7 secs

     total energy              =     -88.07386217 Ry
     estimated scf accuracy    <       0.00586883 Ry

     iteration # 15     ecut=   147.00 Ry     beta= 0.70
     Davidson diagonalization with overlap
     ethr =  3.67E-05,  avg # of iterations =  1.0

     negative rho (up, down):  1.966E-03 0.000E+00

     total cpu time spent up to now is      201.6 secs

     total energy              =     -88.07439612 Ry
     estimated scf accuracy    <       0.00583417 Ry

     iteration # 16     ecut=   147.00 Ry     beta= 0.70
     Davidson diagonalization with overlap
     ethr =  3.65E-05,  avg # of iterations =  1.0

     negative rho (up, down):  1.737E-03 0.000E+00

     total cpu time spent up to now is      211.5 secs

     total energy              =     -88.07342569 Ry
     estimated scf accuracy    <       0.00591456 Ry

     iteration # 17     ecut=   147.00 Ry     beta= 0.70
     Davidson diagonalization with overlap
     ethr =  3.65E-05,  avg # of iterations =  2.0

     negative rho (up, down):  1.712E-03 0.000E+00

     total cpu time spent up to now is      221.8 secs

     total energy              =     -88.07360289 Ry
     estimated scf accuracy    <       0.00329890 Ry

     iteration # 18     ecut=   147.00 Ry     beta= 0.70
     Davidson diagonalization with overlap
     ethr =  2.06E-05,  avg # of iterations =  2.0

     negative rho (up, down):  1.689E-03 0.000E+00

     total cpu time spent up to now is      232.1 secs

     total energy              =     -88.07332467 Ry
     estimated scf accuracy    <       0.00237699 Ry

     iteration # 19     ecut=   147.00 Ry     beta= 0.70
     Davidson diagonalization with overlap
     ethr =  1.49E-05,  avg # of iterations =  2.0

     negative rho (up, down):  1.677E-03 0.000E+00

     total cpu time spent up to now is      242.9 secs

     total energy              =     -88.07317955 Ry
     estimated scf accuracy    <       0.00087765 Ry

     iteration # 20     ecut=   147.00 Ry     beta= 0.70
     Davidson diagonalization with overlap
     ethr =  5.49E-06,  avg # of iterations =  6.0

     negative rho (up, down):  1.681E-03 0.000E+00

     total cpu time spent up to now is      256.8 secs

     total energy              =     -88.07417280 Ry
     estimated scf accuracy    <       0.00095691 Ry

     iteration # 21     ecut=   147.00 Ry     beta= 0.70
     Davidson diagonalization with overlap
     ethr =  5.49E-06,  avg # of iterations =  2.0

     negative rho (up, down):  1.686E-03 0.000E+00

     total cpu time spent up to now is      267.2 secs

     total energy              =     -88.07388531 Ry
     estimated scf accuracy    <       0.00065577 Ry

     iteration # 22     ecut=   147.00 Ry     beta= 0.70
     Davidson diagonalization with overlap
     ethr =  4.10E-06,  avg # of iterations =  2.0

     negative rho (up, down):  1.689E-03 0.000E+00

     total cpu time spent up to now is      277.4 secs

     total energy              =     -88.07386708 Ry
     estimated scf accuracy    <       0.00010198 Ry

     iteration # 23     ecut=   147.00 Ry     beta= 0.70
     Davidson diagonalization with overlap
     ethr =  6.37E-07,  avg # of iterations =  8.0

     negative rho (up, down):  1.686E-03 0.000E+00

     total cpu time spent up to now is      293.4 secs

     total energy              =     -88.07407765 Ry
     estimated scf accuracy    <       0.00040495 Ry

     iteration # 24     ecut=   147.00 Ry     beta= 0.70
     Davidson diagonalization with overlap
     ethr =  6.37E-07,  avg # of iterations =  2.0

     negative rho (up, down):  1.684E-03 0.000E+00

     total cpu time spent up to now is      303.6 secs

     total energy              =     -88.07400644 Ry
     estimated scf accuracy    <       0.00022262 Ry

     iteration # 25     ecut=   147.00 Ry     beta= 0.70
     Davidson diagonalization with overlap
     ethr =  6.37E-07,  avg # of iterations =  5.0

     negative rho (up, down):  1.683E-03 0.000E+00

     total cpu time spent up to now is      315.3 secs

     total energy              =     -88.07402945 Ry
     estimated scf accuracy    <       0.00003538 Ry

     iteration # 26     ecut=   147.00 Ry     beta= 0.70
     Davidson diagonalization with overlap
     ethr =  2.21E-07,  avg # of iterations =  5.0

     negative rho (up, down):  1.683E-03 0.000E+00

     total cpu time spent up to now is      328.0 secs

     total energy              =     -88.07405666 Ry
     estimated scf accuracy    <       0.00000158 Ry

     iteration # 27     ecut=   147.00 Ry     beta= 0.70
     Davidson diagonalization with overlap
     ethr =  9.90E-09,  avg # of iterations =  9.0

     negative rho (up, down):  1.683E-03 0.000E+00

     total cpu time spent up to now is      342.7 secs

     total energy              =     -88.07406128 Ry
     estimated scf accuracy    <       0.00000498 Ry

     iteration # 28     ecut=   147.00 Ry     beta= 0.70
     Davidson diagonalization with overlap
     ethr =  9.90E-09,  avg # of iterations =  1.0

     negative rho (up, down):  1.684E-03 0.000E+00

     total cpu time spent up to now is      352.6 secs

     total energy              =     -88.07405914 Ry
     estimated scf accuracy    <       0.00000498 Ry

     iteration # 29     ecut=   147.00 Ry     beta= 0.70
     Davidson diagonalization with overlap
     ethr =  9.90E-09,  avg # of iterations =  3.0

     negative rho (up, down):  1.684E-03 0.000E+00

     total cpu time spent up to now is      363.6 secs

     total energy              =     -88.07405892 Ry
     estimated scf accuracy    <       0.00000130 Ry

     iteration # 30     ecut=   147.00 Ry     beta= 0.70
     Davidson diagonalization with overlap
     ethr =  8.15E-09,  avg # of iterations =  7.0

     negative rho (up, down):  1.684E-03 0.000E+00

     total cpu time spent up to now is      376.4 secs

     total energy              =     -88.07405968 Ry
     estimated scf accuracy    <       0.00000020 Ry

     iteration # 31     ecut=   147.00 Ry     beta= 0.70
     Davidson diagonalization with overlap
     ethr =  1.27E-09,  avg # of iterations =  7.0

     negative rho (up, down):  1.684E-03 0.000E+00

     total cpu time spent up to now is      389.2 secs

     total energy              =     -88.07405974 Ry
     estimated scf accuracy    <       0.00000058 Ry

     iteration # 32     ecut=   147.00 Ry     beta= 0.70
     Davidson diagonalization with overlap
     ethr =  1.27E-09,  avg # of iterations =  4.0

     negative rho (up, down):  1.684E-03 0.000E+00

     total cpu time spent up to now is      400.8 secs

     total energy              =     -88.07405973 Ry
     estimated scf accuracy    <       0.00000013 Ry

     iteration # 33     ecut=   147.00 Ry     beta= 0.70
     Davidson diagonalization with overlap
     ethr =  7.93E-10,  avg # of iterations =  7.0

     negative rho (up, down):  1.684E-03 0.000E+00

     total cpu time spent up to now is      415.8 secs

     total energy              =     -88.07405989 Ry
     estimated scf accuracy    <       0.00000024 Ry

     iteration # 34     ecut=   147.00 Ry     beta= 0.70
     Davidson diagonalization with overlap
     ethr =  7.93E-10,  avg # of iterations =  1.0

     negative rho (up, down):  1.684E-03 0.000E+00

     total cpu time spent up to now is      425.7 secs

     total energy              =     -88.07405977 Ry
     estimated scf accuracy    <       0.00000022 Ry

     iteration # 35     ecut=   147.00 Ry     beta= 0.70
     Davidson diagonalization with overlap
     ethr =  7.93E-10,  avg # of iterations =  3.0

     negative rho (up, down):  1.684E-03 0.000E+00

     total cpu time spent up to now is      436.5 secs

     total energy              =     -88.07405978 Ry
     estimated scf accuracy    <       0.00000003 Ry

     iteration # 36     ecut=   147.00 Ry     beta= 0.70
     Davidson diagonalization with overlap
     ethr =  2.18E-10,  avg # of iterations =  7.0

     negative rho (up, down):  1.684E-03 0.000E+00

     total cpu time spent up to now is      450.5 secs

     total energy              =     -88.07405982 Ry
     estimated scf accuracy    <       0.00000002 Ry

     iteration # 37     ecut=   147.00 Ry     beta= 0.70
     Davidson diagonalization with overlap
     ethr =  1.26E-10,  avg # of iterations =  2.0

     negative rho (up, down):  1.684E-03 0.000E+00

     total cpu time spent up to now is      460.3 secs

     End of self-consistent calculation

          k = 0.0000 0.0000 0.0000 (****** PWs)   bands (ev):

   -25.0860 -25.0790 -12.8445 -12.8347  -9.0655  -8.8546  -6.9369  -6.8961

     highest occupied level (ev):    -6.8961

!    total energy              =     -88.07405983 Ry
     total all-electron energy =      -305.767823 Ry
     estimated scf accuracy    <          9.5E-10 Ry

     The total energy is the sum of the following terms:
     one-electron contribution =    -177.88550954 Ry
     hartree contribution      =      92.42193567 Ry
     xc contribution           =     -17.73878543 Ry
     ewald contribution        =      34.30200256 Ry
     one-center paw contrib.   =     -19.17370308 Ry

     charge density inside the Wigner-Seitz cell:   16.00000000

     reference position (x0):         0.00562023    0.80705719   -0.00736655 bohr

     Dipole moments (with respect to x0):
     Elect   0.0283  -0.0013  -0.0362 au (Ha),   0.0719  -0.0033  -0.0919 Debye
     Ionic  -0.0000   0.0000   0.0000 au (Ha),  -0.0000   0.0000   0.0000 Debye
     Total   0.0283  -0.0013  -0.0362 au (Ha),   0.0719  -0.0033  -0.0919 Debye

     Electrons quadrupole moment       -246.93072094 a.u. (Ha)
          Ions quadrupole moment        228.69719454 a.u. (Ha)
         Total quadrupole moment        -18.23352639 a.u. (Ha)

     *********    MAKOV-PAYNE CORRECTION    *********

     Makov-Payne correction with Madelung constant =   2.8373

     Makov-Payne correction     0.00000000 Ry =  0.000 eV (1st order, 1/a0)
                                0.00000003 Ry =  0.000 eV (2nd order, 1/a0^3)
                                0.00000003 Ry =  0.000 eV (total)

!    Total+Makov-Payne energy  =     -88.07405980 Ry
     Corrected vacuum level    =       0.00358013 eV

     convergence has been achieved in  37 iterations

     Writing all to output data dir ./pwscf.save/

     init_run     :     37.45s CPU     39.90s WALL (       1 calls)
     electrons    :    371.54s CPU    422.83s WALL (       1 calls)

     Called by init_run:
     wfcinit      :      1.68s CPU      1.88s WALL (       1 calls)
     potinit      :      3.86s CPU      4.70s WALL (       1 calls)
     hinit0       :      4.60s CPU      4.98s WALL (       1 calls)

     Called by electrons:
     c_bands      :    136.35s CPU    143.82s WALL (      37 calls)
     sum_band     :     85.27s CPU     98.67s WALL (      37 calls)
     v_of_rho     :     81.15s CPU     98.76s WALL (      38 calls)
     newd         :     35.79s CPU     46.81s WALL (      38 calls)
     PAW_pot      :      0.44s CPU      0.48s WALL (      38 calls)
     mix_rho      :     31.28s CPU     32.74s WALL (      37 calls)

     Called by c_bands:
     init_us_2    :      1.87s CPU      1.94s WALL (      75 calls)
     init_us_2:cp :      1.87s CPU      1.94s WALL (      75 calls)
     regterg      :    133.76s CPU    141.18s WALL (      37 calls)

     Called by *egterg:
     rdiaghg      :      0.02s CPU      0.03s WALL (     163 calls)
     h_psi        :    117.56s CPU    124.91s WALL (     164 calls)
     s_psi        :      3.08s CPU      3.11s WALL (     164 calls)
     g_psi        :      0.42s CPU      0.42s WALL (     126 calls)

     Called by h_psi:
     h_psi:calbec :      2.33s CPU      2.41s WALL (     164 calls)
     vloc_psi     :    111.27s CPU    118.51s WALL (     164 calls)
     add_vuspsi   :      3.09s CPU      3.11s WALL (     164 calls)

     General routines
     calbec       :      2.92s CPU      3.00s WALL (     201 calls)
     fft          :     67.61s CPU     80.69s WALL (     342 calls)
     ffts         :      6.25s CPU      7.59s WALL (      37 calls)
     fftw         :    101.53s CPU    109.79s WALL (    1120 calls)

     Parallel routines

     PWSCF        :   6m51.19s CPU   7m47.07s WALL


   This run was terminated on:  14:36:20  13Oct2023            

=------------------------------------------------------------------------------=
   JOB DONE.
=------------------------------------------------------------------------------=
