
     Program PWSCF v.7.2 starts on 13Oct2023 at 14:34:36 

     This program is part of the open-source Quantum ESPRESSO suite
     for quantum simulation of materials; please cite
         "P. Giannozzi et al., J. Phys.:Condens. Matter 21 395502 (2009);
         "P. Giannozzi et al., J. Phys.:Condens. Matter 29 465901 (2017);
         "P. Giannozzi et al., J. Chem. Phys. 152 154105 (2020);
          URL http://www.quantum-espresso.org", 
     in publications or presentations arising from this work. More details at
     http://www.quantum-espresso.org/quote

     Parallel version (MPI), running on    32 processors

     MPI processes distributed on     1 nodes
     507801 MiB available memory on the printing compute node when the environment starts

     Reading input from water_water_45_precision_dimer.in
Warning: card &CELL ignored
Warning: card / ignored

     Current dimensions of program PWSCF are:
     Max number of different atomic species (ntypx) = 10
     Max number of k-points (npk) =  40000
     Max angular momentum in pseudopotentials (lmaxx) =  4
     file O.pbe-n-kjpaw_psl.1.0.0.UPF: wavefunction(s)  2S 2P renormalized
     file H.pbe-kjpaw_psl.1.0.0.UPF: wavefunction(s)  1S renormalized

     IMPORTANT: XC functional enforced from input :
     Exchange-correlation= PBE
                           (   1   4   3   4   0   0   0)
     Any further DFT definition will be discarded
     Please, verify this is what you really want


     gamma-point specific algorithms are used

     R & G space division:  proc/nbgrp/npool/nimage =      32
     Subspace diagonalization in iterative solution of the eigenvalue problem:
     a serial algorithm will be used


     Parallelization info
     --------------------
     sticks:   dense  smooth     PW     G-vecs:    dense   smooth      PW
     Min        6395    6395   1598              2177048  2177048  272114
     Max        6398    6398   1600              2177062  2177062  272124
     Sum      204693  204693  51189             69665707 69665707 8707803

     Using Slab Decomposition



     bravais-lattice index     =            0
     lattice parameter (alat)  =      66.1404  a.u.
     unit-cell volume          =  289334.8415 (a.u.)^3
     number of atoms/cell      =            6
     number of atomic types    =            2
     number of electrons       =        16.00
     number of Kohn-Sham states=            8
     kinetic-energy cutoff     =     147.0000  Ry
     charge density cutoff     =     588.0000  Ry
     scf convergence threshold =      1.0E-08
     mixing beta               =       0.7000
     number of iterations used =            8  plain     mixing
     Exchange-correlation= PBE
                           (   1   4   3   4   0   0   0)

     celldm(1)=  66.140414  celldm(2)=   0.000000  celldm(3)=   0.000000
     celldm(4)=   0.000000  celldm(5)=   0.000000  celldm(6)=   0.000000

     crystal axes: (cart. coord. in units of alat)
               a(1) = (   1.000000   0.000000   0.000000 )  
               a(2) = (   0.000000   1.000000   0.000000 )  
               a(3) = (   0.000000   0.000000   1.000000 )  

     reciprocal axes: (cart. coord. in units 2 pi/alat)
               b(1) = (  1.000000  0.000000  0.000000 )  
               b(2) = (  0.000000  1.000000  0.000000 )  
               b(3) = (  0.000000  0.000000  1.000000 )  


     PseudoPot. # 1 for O  read from file:
     /home/users/klimj2am/src/pslibrary.1.0.0/pbe/PSEUDOPOTENTIALS/O.pbe-n-kjpaw_psl.1.0.0.UPF
     MD5 check sum: 48e285564fec6dca10ec424bc53b541b
     Pseudo is Projector augmented-wave + core cor, Zval =  6.0
     Generated using 'atomic' code by A. Dal Corso  v.7.2
     Shape of augmentation charge: PSQ
     Using radial grid of 1095 points,  4 beta functions with: 
                l(1) =   0
                l(2) =   0
                l(3) =   1
                l(4) =   1
     Q(r) pseudized with 0 coefficients 


     PseudoPot. # 2 for H  read from file:
     /home/users/klimj2am/src/pslibrary.1.0.0/pbe/PSEUDOPOTENTIALS/H.pbe-kjpaw_psl.1.0.0.UPF
     MD5 check sum: 220281c0717fd894cece6904c624ceaa
     Pseudo is Projector augmented-wave, Zval =  1.0
     Generated using 'atomic' code by A. Dal Corso  v.7.2
     Shape of augmentation charge: PSQ
     Using radial grid of  929 points,  2 beta functions with: 
                l(1) =   0
                l(2) =   0
     Q(r) pseudized with 0 coefficients 


     atomic species   valence    mass     pseudopotential
        O              6.00    15.99900     O ( 1.00)
        H              1.00     1.00800     H ( 1.00)

     No symmetry found



   Cartesian axes

     site n.     atom                  positions (alat units)
         1           O   tau(   1) = (   0.0000000  -0.0649370   0.0000000  )
         2           O   tau(   2) = (   0.0000000   0.0636345   0.0000000  )
         3           H   tau(   3) = (   0.0008487   0.0794679  -0.0224289  )
         4           H   tau(   4) = (   0.0003901   0.0815221   0.0208412  )
         5           H   tau(   5) = (   0.0005031  -0.0817010  -0.0217529  )
         6           H   tau(   6) = (  -0.0003822  -0.0819533   0.0215586  )

     number of k points=     1
                       cart. coord. in units 2pi/alat
        k(    1) = (   0.0000000   0.0000000   0.0000000), wk =   2.0000000

     Dense  grid: 34832854 G-vectors     FFT dimensions: ( 512, 512, 512)

     Estimated max dynamical RAM per process >       1.58 GB

     Estimated total dynamical RAM >      50.69 GB

     Initial potential from superposition of free atoms

     starting charge      16.0000, renormalised to      16.0000

     negative rho (up, down):  8.570E-04 0.000E+00
     Starting wfcs are   12 randomized atomic wfcs
     Checking if some PAW data can be deallocated... 

     total cpu time spent up to now is       37.3 secs

     Self-consistent Calculation

     iteration #  1     ecut=   147.00 Ry     beta= 0.70
     Davidson diagonalization with overlap
     ethr =  1.00E-02,  avg # of iterations =  3.0

     negative rho (up, down):  9.255E-04 0.000E+00

     total cpu time spent up to now is       48.1 secs

     total energy              =     -87.55231397 Ry
     estimated scf accuracy    <       1.00699732 Ry

     iteration #  2     ecut=   147.00 Ry     beta= 0.70
     Davidson diagonalization with overlap
     ethr =  6.29E-03,  avg # of iterations =  5.0

     negative rho (up, down):  1.022E-03 0.000E+00

     total cpu time spent up to now is       59.9 secs

     total energy              =     -87.94271435 Ry
     estimated scf accuracy    <       0.35903323 Ry

     iteration #  3     ecut=   147.00 Ry     beta= 0.70
     Davidson diagonalization with overlap
     ethr =  2.24E-03,  avg # of iterations =  3.0

     negative rho (up, down):  1.396E-03 0.000E+00

     total cpu time spent up to now is       70.6 secs

     total energy              =     -87.99244465 Ry
     estimated scf accuracy    <       0.07318925 Ry

     iteration #  4     ecut=   147.00 Ry     beta= 0.70
     Davidson diagonalization with overlap
     ethr =  4.57E-04,  avg # of iterations =  6.0

     negative rho (up, down):  1.595E-03 0.000E+00

     total cpu time spent up to now is       82.3 secs

     total energy              =     -88.06824239 Ry
     estimated scf accuracy    <       0.02108757 Ry

     iteration #  5     ecut=   147.00 Ry     beta= 0.70
     Davidson diagonalization with overlap
     ethr =  1.32E-04,  avg # of iterations =  4.0

     negative rho (up, down):  1.560E-03 0.000E+00

     total cpu time spent up to now is       92.7 secs

     total energy              =     -88.07379936 Ry
     estimated scf accuracy    <       0.00301186 Ry

     iteration #  6     ecut=   147.00 Ry     beta= 0.70
     Davidson diagonalization with overlap
     ethr =  1.88E-05,  avg # of iterations =  6.0

     negative rho (up, down):  1.619E-03 0.000E+00

     total cpu time spent up to now is      104.4 secs

     total energy              =     -88.07621611 Ry
     estimated scf accuracy    <       0.00198050 Ry

     iteration #  7     ecut=   147.00 Ry     beta= 0.70
     Davidson diagonalization with overlap
     ethr =  1.24E-05,  avg # of iterations =  1.0

     negative rho (up, down):  1.693E-03 0.000E+00

     total cpu time spent up to now is      113.6 secs

     total energy              =     -88.07587447 Ry
     estimated scf accuracy    <       0.00118689 Ry

     iteration #  8     ecut=   147.00 Ry     beta= 0.70
     Davidson diagonalization with overlap
     ethr =  7.42E-06,  avg # of iterations =  2.0

     negative rho (up, down):  1.694E-03 0.000E+00

     total cpu time spent up to now is      123.5 secs

     total energy              =     -88.07596684 Ry
     estimated scf accuracy    <       0.00022113 Ry

     iteration #  9     ecut=   147.00 Ry     beta= 0.70
     Davidson diagonalization with overlap
     ethr =  1.38E-06,  avg # of iterations =  5.0

     negative rho (up, down):  1.695E-03 0.000E+00

     total cpu time spent up to now is      135.2 secs

     total energy              =     -88.07611434 Ry
     estimated scf accuracy    <       0.00002963 Ry

     iteration # 10     ecut=   147.00 Ry     beta= 0.70
     Davidson diagonalization with overlap
     ethr =  1.85E-07,  avg # of iterations =  3.0

     negative rho (up, down):  1.693E-03 0.000E+00

     total cpu time spent up to now is      146.2 secs

     total energy              =     -88.07613210 Ry
     estimated scf accuracy    <       0.00005373 Ry

     iteration # 11     ecut=   147.00 Ry     beta= 0.70
     Davidson diagonalization with overlap
     ethr =  1.85E-07,  avg # of iterations =  2.0

     negative rho (up, down):  1.691E-03 0.000E+00

     total cpu time spent up to now is      156.2 secs

     total energy              =     -88.07612983 Ry
     estimated scf accuracy    <       0.00007111 Ry

     iteration # 12     ecut=   147.00 Ry     beta= 0.70
     Davidson diagonalization with overlap
     ethr =  1.85E-07,  avg # of iterations =  2.0

     negative rho (up, down):  1.690E-03 0.000E+00

     total cpu time spent up to now is      165.9 secs

     total energy              =     -88.07612409 Ry
     estimated scf accuracy    <       0.00006549 Ry

     iteration # 13     ecut=   147.00 Ry     beta= 0.70
     Davidson diagonalization with overlap
     ethr =  1.85E-07,  avg # of iterations =  1.0

     negative rho (up, down):  1.690E-03 0.000E+00

     total cpu time spent up to now is      175.4 secs

     total energy              =     -88.07611597 Ry
     estimated scf accuracy    <       0.00005374 Ry

     iteration # 14     ecut=   147.00 Ry     beta= 0.70
     Davidson diagonalization with overlap
     ethr =  1.85E-07,  avg # of iterations =  2.0

     negative rho (up, down):  1.690E-03 0.000E+00

     total cpu time spent up to now is      185.1 secs

     total energy              =     -88.07611919 Ry
     estimated scf accuracy    <       0.00003139 Ry

     iteration # 15     ecut=   147.00 Ry     beta= 0.70
     Davidson diagonalization with overlap
     ethr =  1.85E-07,  avg # of iterations =  1.0

     negative rho (up, down):  1.690E-03 0.000E+00

     total cpu time spent up to now is      194.5 secs

     total energy              =     -88.07611737 Ry
     estimated scf accuracy    <       0.00003311 Ry

     iteration # 16     ecut=   147.00 Ry     beta= 0.70
     Davidson diagonalization with overlap
     ethr =  1.85E-07,  avg # of iterations =  1.0

     negative rho (up, down):  1.689E-03 0.000E+00

     total cpu time spent up to now is      203.9 secs

     total energy              =     -88.07611487 Ry
     estimated scf accuracy    <       0.00002657 Ry

     iteration # 17     ecut=   147.00 Ry     beta= 0.70
     Davidson diagonalization with overlap
     ethr =  1.66E-07,  avg # of iterations =  1.0

     negative rho (up, down):  1.689E-03 0.000E+00

     total cpu time spent up to now is      213.3 secs

     total energy              =     -88.07610481 Ry
     estimated scf accuracy    <       0.00001912 Ry

     iteration # 18     ecut=   147.00 Ry     beta= 0.70
     Davidson diagonalization with overlap
     ethr =  1.19E-07,  avg # of iterations =  4.0

     negative rho (up, down):  1.689E-03 0.000E+00

     total cpu time spent up to now is      223.8 secs

     total energy              =     -88.07611159 Ry
     estimated scf accuracy    <       0.00000150 Ry

     iteration # 19     ecut=   147.00 Ry     beta= 0.70
     Davidson diagonalization with overlap
     ethr =  9.40E-09,  avg # of iterations = 10.0

     negative rho (up, down):  1.689E-03 0.000E+00

     total cpu time spent up to now is      240.5 secs

     total energy              =     -88.07611595 Ry
     estimated scf accuracy    <       0.00001157 Ry

     iteration # 20     ecut=   147.00 Ry     beta= 0.70
     Davidson diagonalization with overlap
     ethr =  9.40E-09,  avg # of iterations =  2.0

     negative rho (up, down):  1.689E-03 0.000E+00

     total cpu time spent up to now is      250.3 secs

     total energy              =     -88.07611520 Ry
     estimated scf accuracy    <       0.00001114 Ry

     iteration # 21     ecut=   147.00 Ry     beta= 0.70
     Davidson diagonalization with overlap
     ethr =  9.40E-09,  avg # of iterations =  1.0

     negative rho (up, down):  1.689E-03 0.000E+00

     total cpu time spent up to now is      259.7 secs

     total energy              =     -88.07611347 Ry
     estimated scf accuracy    <       0.00000939 Ry

     iteration # 22     ecut=   147.00 Ry     beta= 0.70
     Davidson diagonalization with overlap
     ethr =  9.40E-09,  avg # of iterations =  2.0

     negative rho (up, down):  1.688E-03 0.000E+00

     total cpu time spent up to now is      269.5 secs

     total energy              =     -88.07611114 Ry
     estimated scf accuracy    <       0.00000574 Ry

     iteration # 23     ecut=   147.00 Ry     beta= 0.70
     Davidson diagonalization with overlap
     ethr =  9.40E-09,  avg # of iterations =  5.0

     negative rho (up, down):  1.688E-03 0.000E+00

     total cpu time spent up to now is      281.3 secs

     total energy              =     -88.07611259 Ry
     estimated scf accuracy    <       0.00000060 Ry

     iteration # 24     ecut=   147.00 Ry     beta= 0.70
     Davidson diagonalization with overlap
     ethr =  3.77E-09,  avg # of iterations =  4.0

     negative rho (up, down):  1.688E-03 0.000E+00

     total cpu time spent up to now is      292.5 secs

     total energy              =     -88.07611284 Ry
     estimated scf accuracy    <       0.00000012 Ry

     iteration # 25     ecut=   147.00 Ry     beta= 0.70
     Davidson diagonalization with overlap
     ethr =  7.52E-10,  avg # of iterations =  6.0

     negative rho (up, down):  1.688E-03 0.000E+00

     total cpu time spent up to now is      304.6 secs

     total energy              =     -88.07611292 Ry
     estimated scf accuracy    <       0.00000014 Ry

     iteration # 26     ecut=   147.00 Ry     beta= 0.70
     Davidson diagonalization with overlap
     ethr =  7.52E-10,  avg # of iterations =  1.0

     negative rho (up, down):  1.688E-03 0.000E+00

     total cpu time spent up to now is      314.0 secs

     total energy              =     -88.07611292 Ry
     estimated scf accuracy    <       0.00000012 Ry

     iteration # 27     ecut=   147.00 Ry     beta= 0.70
     Davidson diagonalization with overlap
     ethr =  7.44E-10,  avg # of iterations =  1.0

     negative rho (up, down):  1.688E-03 0.000E+00

     total cpu time spent up to now is      323.3 secs

     total energy              =     -88.07611293 Ry
     estimated scf accuracy    <       0.00000008 Ry

     iteration # 28     ecut=   147.00 Ry     beta= 0.70
     Davidson diagonalization with overlap
     ethr =  5.21E-10,  avg # of iterations =  1.0

     negative rho (up, down):  1.688E-03 0.000E+00

     total cpu time spent up to now is      332.7 secs

     total energy              =     -88.07611292 Ry
     estimated scf accuracy    <       0.00000008 Ry

     iteration # 29     ecut=   147.00 Ry     beta= 0.70
     Davidson diagonalization with overlap
     ethr =  5.21E-10,  avg # of iterations =  2.0

     negative rho (up, down):  1.688E-03 0.000E+00

     total cpu time spent up to now is      342.7 secs

     total energy              =     -88.07611292 Ry
     estimated scf accuracy    <       0.00000006 Ry

     iteration # 30     ecut=   147.00 Ry     beta= 0.70
     Davidson diagonalization with overlap
     ethr =  3.63E-10,  avg # of iterations =  2.0

     negative rho (up, down):  1.688E-03 0.000E+00

     total cpu time spent up to now is      352.4 secs

     total energy              =     -88.07611290 Ry
     estimated scf accuracy    <       0.00000004 Ry

     iteration # 31     ecut=   147.00 Ry     beta= 0.70
     Davidson diagonalization with overlap
     ethr =  2.75E-10,  avg # of iterations =  2.0

     negative rho (up, down):  1.688E-03 0.000E+00

     total cpu time spent up to now is      361.7 secs

     End of self-consistent calculation

          k = 0.0000 0.0000 0.0000 (****** PWs)   bands (ev):

   -25.1826 -25.1816 -12.9373 -12.9358  -9.1041  -9.0605  -7.0237  -7.0155

     highest occupied level (ev):    -7.0155

!    total energy              =     -88.07611290 Ry
     total all-electron energy =      -305.769876 Ry
     estimated scf accuracy    <          8.8E-09 Ry

     The total energy is the sum of the following terms:
     one-electron contribution =    -171.26338939 Ry
     hartree contribution      =      89.04912986 Ry
     xc contribution           =     -17.73941996 Ry
     ewald contribution        =      31.05094692 Ry
     one-center paw contrib.   =     -19.17338034 Ry

     charge density inside the Wigner-Seitz cell:   16.00000000

     reference position (x0):         0.00562023   -0.04331956   -0.00736655 bohr

     Dipole moments (with respect to x0):
     Elect   0.0285  -0.0014  -0.0369 au (Ha),   0.0724  -0.0034  -0.0938 Debye
     Ionic  -0.0000  -0.0000   0.0000 au (Ha),  -0.0000  -0.0000   0.0000 Debye
     Total   0.0285  -0.0014  -0.0369 au (Ha),   0.0724  -0.0034  -0.0938 Debye

     Electrons quadrupole moment       -356.04625524 a.u. (Ha)
          Ions quadrupole moment        340.42259360 a.u. (Ha)
         Total quadrupole moment        -15.62366164 a.u. (Ha)

     *********    MAKOV-PAYNE CORRECTION    *********

     Makov-Payne correction with Madelung constant =   2.8373

     Makov-Payne correction     0.00000000 Ry =  0.000 eV (1st order, 1/a0)
                                0.00000003 Ry =  0.000 eV (2nd order, 1/a0^3)
                                0.00000003 Ry =  0.000 eV (total)

!    Total+Makov-Payne energy  =     -88.07611287 Ry
     Corrected vacuum level    =       0.00305200 eV

     convergence has been achieved in  31 iterations

     Writing all to output data dir ./pwscf.save/

     init_run     :     34.38s CPU     36.80s WALL (       1 calls)
     electrons    :    284.93s CPU    327.27s WALL (       1 calls)

     Called by init_run:
     wfcinit      :      1.52s CPU      1.78s WALL (       1 calls)
     potinit      :      3.60s CPU      4.52s WALL (       1 calls)
     hinit0       :      4.95s CPU      5.26s WALL (       1 calls)

     Called by electrons:
     c_bands      :     97.87s CPU    104.13s WALL (      31 calls)
     sum_band     :     66.97s CPU     78.30s WALL (      31 calls)
     v_of_rho     :     64.76s CPU     79.62s WALL (      32 calls)
     newd         :     29.88s CPU     38.23s WALL (      32 calls)
     PAW_pot      :      0.38s CPU      0.43s WALL (      32 calls)
     mix_rho      :     24.11s CPU     25.41s WALL (      31 calls)

     Called by c_bands:
     init_us_2    :      1.54s CPU      1.59s WALL (      63 calls)
     init_us_2:cp :      1.54s CPU      1.59s WALL (      63 calls)
     regterg      :     95.71s CPU    101.93s WALL (      31 calls)

     Called by *egterg:
     rdiaghg      :      0.02s CPU      0.03s WALL (     122 calls)
     h_psi        :     84.59s CPU     90.89s WALL (     123 calls)
     s_psi        :      2.16s CPU      2.18s WALL (     123 calls)
     g_psi        :      0.30s CPU      0.30s WALL (      91 calls)

     Called by h_psi:
     h_psi:calbec :      1.88s CPU      1.95s WALL (     123 calls)
     vloc_psi     :     79.91s CPU     86.12s WALL (     123 calls)
     add_vuspsi   :      2.17s CPU      2.19s WALL (     123 calls)

     General routines
     calbec       :      2.34s CPU      2.41s WALL (     154 calls)
     fft          :     53.37s CPU     64.45s WALL (     288 calls)
     ffts         :      4.93s CPU      5.95s WALL (      31 calls)
     fftw         :     74.24s CPU     81.17s WALL (     868 calls)

     Parallel routines

     PWSCF        :   5m21.25s CPU   6m 8.26s WALL


   This run was terminated on:  14:40:44  13Oct2023            

=------------------------------------------------------------------------------=
   JOB DONE.
=------------------------------------------------------------------------------=
