
     Program PWSCF v.7.2 starts on 13Oct2023 at 14:34: 9 

     This program is part of the open-source Quantum ESPRESSO suite
     for quantum simulation of materials; please cite
         "P. Giannozzi et al., J. Phys.:Condens. Matter 21 395502 (2009);
         "P. Giannozzi et al., J. Phys.:Condens. Matter 29 465901 (2017);
         "P. Giannozzi et al., J. Chem. Phys. 152 154105 (2020);
          URL http://www.quantum-espresso.org", 
     in publications or presentations arising from this work. More details at
     http://www.quantum-espresso.org/quote

     Parallel version (MPI), running on    32 processors

     MPI processes distributed on     1 nodes
     249737 MiB available memory on the printing compute node when the environment starts

     Reading input from water_water_43_precision_dimer.in
Warning: card &CELL ignored
Warning: card / ignored

     Current dimensions of program PWSCF are:
     Max number of different atomic species (ntypx) = 10
     Max number of k-points (npk) =  40000
     Max angular momentum in pseudopotentials (lmaxx) =  4
     file O.pbe-n-kjpaw_psl.1.0.0.UPF: wavefunction(s)  2S 2P renormalized
     file H.pbe-kjpaw_psl.1.0.0.UPF: wavefunction(s)  1S renormalized

     IMPORTANT: XC functional enforced from input :
     Exchange-correlation= PBE
                           (   1   4   3   4   0   0   0)
     Any further DFT definition will be discarded
     Please, verify this is what you really want


     gamma-point specific algorithms are used

     R & G space division:  proc/nbgrp/npool/nimage =      32
     Subspace diagonalization in iterative solution of the eigenvalue problem:
     a serial algorithm will be used


     Parallelization info
     --------------------
     sticks:   dense  smooth     PW     G-vecs:    dense   smooth      PW
     Min        6395    6395   1598              2177048  2177048  272114
     Max        6398    6398   1600              2177062  2177062  272124
     Sum      204693  204693  51189             69665707 69665707 8707803

     Using Slab Decomposition



     bravais-lattice index     =            0
     lattice parameter (alat)  =      66.1404  a.u.
     unit-cell volume          =  289334.8415 (a.u.)^3
     number of atoms/cell      =            6
     number of atomic types    =            2
     number of electrons       =        16.00
     number of Kohn-Sham states=            8
     kinetic-energy cutoff     =     147.0000  Ry
     charge density cutoff     =     588.0000  Ry
     scf convergence threshold =      1.0E-08
     mixing beta               =       0.7000
     number of iterations used =            8  plain     mixing
     Exchange-correlation= PBE
                           (   1   4   3   4   0   0   0)

     celldm(1)=  66.140414  celldm(2)=   0.000000  celldm(3)=   0.000000
     celldm(4)=   0.000000  celldm(5)=   0.000000  celldm(6)=   0.000000

     crystal axes: (cart. coord. in units of alat)
               a(1) = (   1.000000   0.000000   0.000000 )  
               a(2) = (   0.000000   1.000000   0.000000 )  
               a(3) = (   0.000000   0.000000   1.000000 )  

     reciprocal axes: (cart. coord. in units 2 pi/alat)
               b(1) = (  1.000000  0.000000  0.000000 )  
               b(2) = (  0.000000  1.000000  0.000000 )  
               b(3) = (  0.000000  0.000000  1.000000 )  


     PseudoPot. # 1 for O  read from file:
     /home/users/klimj2am/src/pslibrary.1.0.0/pbe/PSEUDOPOTENTIALS/O.pbe-n-kjpaw_psl.1.0.0.UPF
     MD5 check sum: 48e285564fec6dca10ec424bc53b541b
     Pseudo is Projector augmented-wave + core cor, Zval =  6.0
     Generated using 'atomic' code by A. Dal Corso  v.7.2
     Shape of augmentation charge: PSQ
     Using radial grid of 1095 points,  4 beta functions with: 
                l(1) =   0
                l(2) =   0
                l(3) =   1
                l(4) =   1
     Q(r) pseudized with 0 coefficients 


     PseudoPot. # 2 for H  read from file:
     /home/users/klimj2am/src/pslibrary.1.0.0/pbe/PSEUDOPOTENTIALS/H.pbe-kjpaw_psl.1.0.0.UPF
     MD5 check sum: 220281c0717fd894cece6904c624ceaa
     Pseudo is Projector augmented-wave, Zval =  1.0
     Generated using 'atomic' code by A. Dal Corso  v.7.2
     Shape of augmentation charge: PSQ
     Using radial grid of  929 points,  2 beta functions with: 
                l(1) =   0
                l(2) =   0
     Q(r) pseudized with 0 coefficients 


     atomic species   valence    mass     pseudopotential
        O              6.00    15.99900     O ( 1.00)
        H              1.00     1.00800     H ( 1.00)

     No symmetry found



   Cartesian axes

     site n.     atom                  positions (alat units)
         1           O   tau(   1) = (   0.0000000  -0.0592227   0.0000000  )
         2           O   tau(   2) = (   0.0000000   0.0636345   0.0000000  )
         3           H   tau(   3) = (   0.0008487   0.0794679  -0.0224289  )
         4           H   tau(   4) = (   0.0003901   0.0815221   0.0208412  )
         5           H   tau(   5) = (   0.0005031  -0.0759867  -0.0217529  )
         6           H   tau(   6) = (  -0.0003822  -0.0762390   0.0215586  )

     number of k points=     1
                       cart. coord. in units 2pi/alat
        k(    1) = (   0.0000000   0.0000000   0.0000000), wk =   2.0000000

     Dense  grid: 34832854 G-vectors     FFT dimensions: ( 512, 512, 512)

     Estimated max dynamical RAM per process >       1.58 GB

     Estimated total dynamical RAM >      50.69 GB

     Initial potential from superposition of free atoms

     starting charge      16.0000, renormalised to      16.0000

     negative rho (up, down):  8.583E-04 0.000E+00
     Starting wfcs are   12 randomized atomic wfcs
     Checking if some PAW data can be deallocated... 

     total cpu time spent up to now is       40.3 secs

     Self-consistent Calculation

     iteration #  1     ecut=   147.00 Ry     beta= 0.70
     Davidson diagonalization with overlap
     ethr =  1.00E-02,  avg # of iterations =  3.0

     negative rho (up, down):  9.264E-04 0.000E+00

     total cpu time spent up to now is       51.7 secs

     total energy              =     -87.55133592 Ry
     estimated scf accuracy    <       1.00810219 Ry

     iteration #  2     ecut=   147.00 Ry     beta= 0.70
     Davidson diagonalization with overlap
     ethr =  6.30E-03,  avg # of iterations =  5.0

     negative rho (up, down):  1.023E-03 0.000E+00

     total cpu time spent up to now is       64.1 secs

     total energy              =     -87.94215459 Ry
     estimated scf accuracy    <       0.36023401 Ry

     iteration #  3     ecut=   147.00 Ry     beta= 0.70
     Davidson diagonalization with overlap
     ethr =  2.25E-03,  avg # of iterations =  3.0

     negative rho (up, down):  1.397E-03 0.000E+00

     total cpu time spent up to now is       75.1 secs

     total energy              =     -87.99179048 Ry
     estimated scf accuracy    <       0.07340807 Ry

     iteration #  4     ecut=   147.00 Ry     beta= 0.70
     Davidson diagonalization with overlap
     ethr =  4.59E-04,  avg # of iterations =  5.0

     negative rho (up, down):  1.582E-03 0.000E+00

     total cpu time spent up to now is       86.9 secs

     total energy              =     -88.06599967 Ry
     estimated scf accuracy    <       0.02352610 Ry

     iteration #  5     ecut=   147.00 Ry     beta= 0.70
     Davidson diagonalization with overlap
     ethr =  1.47E-04,  avg # of iterations =  5.0

     negative rho (up, down):  1.642E-03 0.000E+00

     total cpu time spent up to now is       98.0 secs

     total energy              =     -88.06949866 Ry
     estimated scf accuracy    <       0.00537009 Ry

     iteration #  6     ecut=   147.00 Ry     beta= 0.70
     Davidson diagonalization with overlap
     ethr =  3.36E-05,  avg # of iterations =  7.0

     negative rho (up, down):  1.661E-03 0.000E+00

     total cpu time spent up to now is      112.1 secs

     total energy              =     -88.07769700 Ry
     estimated scf accuracy    <       0.01180837 Ry

     iteration #  7     ecut=   147.00 Ry     beta= 0.70
     Davidson diagonalization with overlap
     ethr =  3.36E-05,  avg # of iterations =  2.0

     negative rho (up, down):  1.688E-03 0.000E+00

     total cpu time spent up to now is      122.1 secs

     total energy              =     -88.07399352 Ry
     estimated scf accuracy    <       0.00995707 Ry

     iteration #  8     ecut=   147.00 Ry     beta= 0.70
     Davidson diagonalization with overlap
     ethr =  3.36E-05,  avg # of iterations =  4.0

     negative rho (up, down):  1.689E-03 0.000E+00

     total cpu time spent up to now is      133.2 secs

     total energy              =     -88.07487395 Ry
     estimated scf accuracy    <       0.00177056 Ry

     iteration #  9     ecut=   147.00 Ry     beta= 0.70
     Davidson diagonalization with overlap
     ethr =  1.11E-05,  avg # of iterations =  5.0

     negative rho (up, down):  1.687E-03 0.000E+00

     total cpu time spent up to now is      144.6 secs

     total energy              =     -88.07564112 Ry
     estimated scf accuracy    <       0.00037163 Ry

     iteration # 10     ecut=   147.00 Ry     beta= 0.70
     Davidson diagonalization with overlap
     ethr =  2.32E-06,  avg # of iterations =  5.0

     negative rho (up, down):  1.692E-03 0.000E+00

     total cpu time spent up to now is      156.2 secs

     total energy              =     -88.07577835 Ry
     estimated scf accuracy    <       0.00024812 Ry

     iteration # 11     ecut=   147.00 Ry     beta= 0.70
     Davidson diagonalization with overlap
     ethr =  1.55E-06,  avg # of iterations =  2.0

     negative rho (up, down):  1.689E-03 0.000E+00

     total cpu time spent up to now is      166.8 secs

     total energy              =     -88.07577634 Ry
     estimated scf accuracy    <       0.00015909 Ry

     iteration # 12     ecut=   147.00 Ry     beta= 0.70
     Davidson diagonalization with overlap
     ethr =  9.94E-07,  avg # of iterations =  2.0

     negative rho (up, down):  1.688E-03 0.000E+00

     total cpu time spent up to now is      177.1 secs

     total energy              =     -88.07576522 Ry
     estimated scf accuracy    <       0.00009999 Ry

     iteration # 13     ecut=   147.00 Ry     beta= 0.70
     Davidson diagonalization with overlap
     ethr =  6.25E-07,  avg # of iterations =  2.0

     negative rho (up, down):  1.689E-03 0.000E+00

     total cpu time spent up to now is      187.7 secs

     total energy              =     -88.07577234 Ry
     estimated scf accuracy    <       0.00005101 Ry

     iteration # 14     ecut=   147.00 Ry     beta= 0.70
     Davidson diagonalization with overlap
     ethr =  3.19E-07,  avg # of iterations =  4.0

     negative rho (up, down):  1.689E-03 0.000E+00

     total cpu time spent up to now is      199.5 secs

     total energy              =     -88.07579674 Ry
     estimated scf accuracy    <       0.00004271 Ry

     iteration # 15     ecut=   147.00 Ry     beta= 0.70
     Davidson diagonalization with overlap
     ethr =  2.67E-07,  avg # of iterations =  1.0

     negative rho (up, down):  1.688E-03 0.000E+00

     total cpu time spent up to now is      209.4 secs

     total energy              =     -88.07579617 Ry
     estimated scf accuracy    <       0.00003656 Ry

     iteration # 16     ecut=   147.00 Ry     beta= 0.70
     Davidson diagonalization with overlap
     ethr =  2.28E-07,  avg # of iterations =  1.0

     negative rho (up, down):  1.688E-03 0.000E+00

     total cpu time spent up to now is      219.3 secs

     total energy              =     -88.07579362 Ry
     estimated scf accuracy    <       0.00003245 Ry

     iteration # 17     ecut=   147.00 Ry     beta= 0.70
     Davidson diagonalization with overlap
     ethr =  2.03E-07,  avg # of iterations =  1.0

     negative rho (up, down):  1.688E-03 0.000E+00

     total cpu time spent up to now is      229.2 secs

     total energy              =     -88.07579101 Ry
     estimated scf accuracy    <       0.00002455 Ry

     iteration # 18     ecut=   147.00 Ry     beta= 0.70
     Davidson diagonalization with overlap
     ethr =  1.53E-07,  avg # of iterations =  1.0

     negative rho (up, down):  1.689E-03 0.000E+00

     total cpu time spent up to now is      239.1 secs

     total energy              =     -88.07578340 Ry
     estimated scf accuracy    <       0.00001589 Ry

     iteration # 19     ecut=   147.00 Ry     beta= 0.70
     Davidson diagonalization with overlap
     ethr =  9.93E-08,  avg # of iterations =  4.0

     negative rho (up, down):  1.688E-03 0.000E+00

     total cpu time spent up to now is      250.9 secs

     total energy              =     -88.07578833 Ry
     estimated scf accuracy    <       0.00000087 Ry

     iteration # 20     ecut=   147.00 Ry     beta= 0.70
     Davidson diagonalization with overlap
     ethr =  5.43E-09,  avg # of iterations =  9.0

     negative rho (up, down):  1.688E-03 0.000E+00

     total cpu time spent up to now is      268.6 secs

     total energy              =     -88.07579035 Ry
     estimated scf accuracy    <       0.00000426 Ry

     iteration # 21     ecut=   147.00 Ry     beta= 0.70
     Davidson diagonalization with overlap
     ethr =  5.43E-09,  avg # of iterations =  1.0

     negative rho (up, down):  1.689E-03 0.000E+00

     total cpu time spent up to now is      278.5 secs

     total energy              =     -88.07578851 Ry
     estimated scf accuracy    <       0.00000276 Ry

     iteration # 22     ecut=   147.00 Ry     beta= 0.70
     Davidson diagonalization with overlap
     ethr =  5.43E-09,  avg # of iterations =  8.0

     negative rho (up, down):  1.688E-03 0.000E+00

     total cpu time spent up to now is      294.8 secs

     total energy              =     -88.07578928 Ry
     estimated scf accuracy    <       0.00000245 Ry

     iteration # 23     ecut=   147.00 Ry     beta= 0.70
     Davidson diagonalization with overlap
     ethr =  5.43E-09,  avg # of iterations =  6.0

     negative rho (up, down):  1.688E-03 0.000E+00

     total cpu time spent up to now is      308.2 secs

     total energy              =     -88.07578997 Ry
     estimated scf accuracy    <       0.00000008 Ry

     iteration # 24     ecut=   147.00 Ry     beta= 0.70
     Davidson diagonalization with overlap
     ethr =  5.26E-10,  avg # of iterations =  9.0

     negative rho (up, down):  1.688E-03 0.000E+00

     total cpu time spent up to now is      323.9 secs

     total energy              =     -88.07579008 Ry
     estimated scf accuracy    <       0.00000116 Ry

     iteration # 25     ecut=   147.00 Ry     beta= 0.70
     Davidson diagonalization with overlap
     ethr =  5.26E-10,  avg # of iterations =  3.0

     negative rho (up, down):  1.688E-03 0.000E+00

     total cpu time spent up to now is      335.4 secs

     total energy              =     -88.07578999 Ry
     estimated scf accuracy    <       0.00000058 Ry

     iteration # 26     ecut=   147.00 Ry     beta= 0.70
     Davidson diagonalization with overlap
     ethr =  5.26E-10,  avg # of iterations =  4.0

     negative rho (up, down):  1.689E-03 0.000E+00

     total cpu time spent up to now is      347.3 secs

     total energy              =     -88.07579004 Ry
     estimated scf accuracy    <       0.00000016 Ry

     iteration # 27     ecut=   147.00 Ry     beta= 0.70
     Davidson diagonalization with overlap
     ethr =  5.26E-10,  avg # of iterations =  2.0

     negative rho (up, down):  1.689E-03 0.000E+00

     total cpu time spent up to now is      357.6 secs

     total energy              =     -88.07579001 Ry
     estimated scf accuracy    <       0.00000011 Ry

     iteration # 28     ecut=   147.00 Ry     beta= 0.70
     Davidson diagonalization with overlap
     ethr =  5.26E-10,  avg # of iterations =  2.0

     negative rho (up, down):  1.689E-03 0.000E+00

     total cpu time spent up to now is      367.9 secs

     total energy              =     -88.07579000 Ry
     estimated scf accuracy    <       0.00000005 Ry

     iteration # 29     ecut=   147.00 Ry     beta= 0.70
     Davidson diagonalization with overlap
     ethr =  3.14E-10,  avg # of iterations =  4.0

     negative rho (up, down):  1.689E-03 0.000E+00

     total cpu time spent up to now is      378.5 secs

     End of self-consistent calculation

          k = 0.0000 0.0000 0.0000 (****** PWs)   bands (ev):

   -25.1646 -25.1634 -12.9200 -12.9178  -9.0915  -9.0297  -7.0066  -6.9950

     highest occupied level (ev):    -6.9950

!    total energy              =     -88.07579001 Ry
     total all-electron energy =      -305.769553 Ry
     estimated scf accuracy    <          3.5E-09 Ry

     The total energy is the sum of the following terms:
     one-electron contribution =    -172.50647132 Ry
     hartree contribution      =      89.68232901 Ry
     xc contribution           =     -17.73941893 Ry
     ewald contribution        =      31.66120603 Ry
     one-center paw contrib.   =     -19.17343480 Ry

     charge density inside the Wigner-Seitz cell:   16.00000000

     reference position (x0):         0.00562023    0.14565305   -0.00736655 bohr

     Dipole moments (with respect to x0):
     Elect   0.0284  -0.0013  -0.0368 au (Ha),   0.0723  -0.0033  -0.0936 Debye
     Ionic  -0.0000   0.0000   0.0000 au (Ha),  -0.0000   0.0000   0.0000 Debye
     Total   0.0284  -0.0013  -0.0368 au (Ha),   0.0723  -0.0033  -0.0936 Debye

     Electrons quadrupole moment       -329.78517159 a.u. (Ha)
          Ions quadrupole moment        313.59493084 a.u. (Ha)
         Total quadrupole moment        -16.19024075 a.u. (Ha)

     *********    MAKOV-PAYNE CORRECTION    *********

     Makov-Payne correction with Madelung constant =   2.8373

     Makov-Payne correction     0.00000000 Ry =  0.000 eV (1st order, 1/a0)
                                0.00000003 Ry =  0.000 eV (2nd order, 1/a0^3)
                                0.00000003 Ry =  0.000 eV (total)

!    Total+Makov-Payne energy  =     -88.07578998 Ry
     Corrected vacuum level    =       0.00316701 eV

     convergence has been achieved in  29 iterations

     Writing all to output data dir ./pwscf.save/

     init_run     :     37.47s CPU     39.90s WALL (       1 calls)
     electrons    :    299.69s CPU    341.07s WALL (       1 calls)

     Called by init_run:
     wfcinit      :      1.66s CPU      1.88s WALL (       1 calls)
     potinit      :      3.91s CPU      4.74s WALL (       1 calls)
     hinit0       :      1.64s CPU      1.94s WALL (       1 calls)

     Called by electrons:
     c_bands      :    115.13s CPU    121.11s WALL (      29 calls)
     sum_band     :     66.76s CPU     77.56s WALL (      29 calls)
     v_of_rho     :     64.59s CPU     79.03s WALL (      30 calls)
     newd         :     28.26s CPU     36.98s WALL (      30 calls)
     PAW_pot      :      0.38s CPU      0.46s WALL (      30 calls)
     mix_rho      :     23.97s CPU     25.15s WALL (      29 calls)

     Called by c_bands:
     init_us_2    :      1.49s CPU      1.55s WALL (      59 calls)
     init_us_2:cp :      1.49s CPU      1.55s WALL (      59 calls)
     regterg      :    113.12s CPU    119.03s WALL (      29 calls)

     Called by *egterg:
     rdiaghg      :      0.02s CPU      0.03s WALL (     139 calls)
     h_psi        :     99.32s CPU    105.29s WALL (     140 calls)
     s_psi        :      2.72s CPU      2.73s WALL (     140 calls)
     g_psi        :      0.37s CPU      0.37s WALL (     110 calls)

     Called by h_psi:
     h_psi:calbec :      2.19s CPU      2.21s WALL (     140 calls)
     vloc_psi     :     93.68s CPU     99.61s WALL (     140 calls)
     add_vuspsi   :      2.72s CPU      2.73s WALL (     140 calls)

     General routines
     calbec       :      2.67s CPU      2.68s WALL (     169 calls)
     fft          :     54.24s CPU     65.38s WALL (     270 calls)
     ffts         :      4.81s CPU      5.66s WALL (      29 calls)
     fftw         :     84.06s CPU     90.76s WALL (     934 calls)

     Parallel routines

     PWSCF        :   5m39.22s CPU   6m25.37s WALL


   This run was terminated on:  14:40:34  13Oct2023            

=------------------------------------------------------------------------------=
   JOB DONE.
=------------------------------------------------------------------------------=
