
 Primary working directories    : /scratch/sirous/753875/molpro.9v1wB0s0JS
 Secondary working directories  : /scratch/sirous/753875/molpro.9v1wB0s0JS
 Wavefunction directory         : /scratch/sirous/753875/
 Main file repository           : /scratch/sirous/753875/molpro.9v1wB0s0JS/

 id        : karlovklimes

 Nodes                      nprocs
 nc-21.cc.karlov.mff.cuni.cz    4

 Using customized tuning parameters: mindgm=1; mindgv=20; mindgc=4; mindgr=1; noblas=0; minvec=7
 default implementation of scratch files=sf  


 Variables initialized (934), CPU time= 0.01 sec
 ***,CH3C6H4CN+CF3CN+BF3
 memory,1000,m
 gdirect
 gthresh,energy=1.d-8,twoint=1.d-19,oneint=1.d-19,zero=1.d-15,orbital=1.d-8,grid=1.d-8,THROVL=1.d-8
 symmetry,nosym
 geomtyp=xyz
                                                                                 ! Geometry
 geometry={
 H1        0.02970387    5.38137746     -0.78501207
 H2        0.01365177    5.45327352     0.72944182
 C1        0.00000000    0.08825600     0.00000000
 O1        0.00000000    1.22720600     0.00000000
 O2        0.00000000    4.82720600     0.00000000
 }
 
 
 
 basis=avdz
 
 
 
                                                                                 ! Dimer Calculation
 {rks,pbe,accu=1.d-8;orbital,2101.2}
 eab_PBE=energy
 
 
                                                                                 !monomer A
 dummy,3,4;                                                                      ! NOW MONOMER B IS DUMMY
 {rks,pbe,accu=1.d-8;orbital,2201.2}
 ea_PBE=energy
                                                                                 !monomer B
 dummy,1,2,5;                                                                    !NOW MONOMER A IS DUMMY
 {rks,pbe,accu=1.d-8;orbital,2301.2}
 eb_PBE=energy
 
 E_AB_int=eab_PBE-ea_PBE-eb_PBE
 
 
 text,results in hartree
 show,E_AB_int
 
 Commands  initialized (763), CPU time= 0.02 sec, 617 directives.
 Default parameters read. Elapsed time= 0.21 sec

 Checking input...
 Passed
1


                                         ***  PROGRAM SYSTEM MOLPRO  ***
                                       Copyright, TTI GmbH Stuttgart, 2015
                                    Version 2019.2 linked Jun  8 2019 11:26:33


 **********************************************************************************************************************************
 LABEL *   CH3C6H4CN+CF3CN+BF3                                                           
  64 bit mpp version                                                                     DATE: 23-Jul-20          TIME: 10:09:55  
 **********************************************************************************************************************************

 SHA1:             8135a10abc80eafa5b3ae28ffc55be4890dc4c84
 **********************************************************************************************************************************

 THRESHOLDS:

 ZERO    =  1.00D-15  ONEINT  =  1.00D-19  TWOINT  =  1.00D-19  PREFAC  =  1.00D-14  XXXXXX  =  1.00D-09  EORDER  =  1.00D-04
 ENERGY  =  1.00D-08  ETEST   =  0.00D+00  EDENS   =  0.00D+00  THRDEDEF=  1.00D-06  GRADIENT=  1.00D-02  STEP    =  1.00D-03
 ORBITAL =  1.00D-08  CIVEC   =  1.00D-05  COEFF   =  1.00D-04  PRINTCI =  5.00D-02  PUNCHCI =  9.90D+01  OPTGRAD =  3.00D-04
 OPTENERG=  1.00D-06  OPTSTEP =  3.00D-04  THRGRAD =  1.00D-10  COMPRESS=  1.00D-11  VARMIN  =  1.00D-07  VARMAX  =  1.00D-03
 THRDOUB =  0.00D+00  THRDIV  =  1.00D-05  THRRED  =  1.00D-07  THRPSP  =  1.00D+00  THRDC   =  1.00D-10  THRCS   =  1.00D-10
 THRNRM  =  1.00D-08  THREQ   =  0.00D+00  THRDE   =  1.00D+00  THRREF  =  1.00D-05  SPARFAC =  1.00D+00  THRDLP  =  1.00D-07
 THRDIA  =  1.00D-10  THRDLS  =  1.00D-07  THRGPS  =  0.00D+00  THRKEX  =  0.00D+00  THRDIS  =  2.00D-01  THRVAR  =  1.00D-10
 THRLOC  =  1.00D-06  THRGAP  =  1.00D-06  THRLOCT = -1.00D+00  THRGAPT = -1.00D+00  THRORB  =  1.00D-06  THRMLTP =  0.00D+00
 THRCPQCI=  1.00D-10  KEXTA   =  0.00D+00  THRCOARS=  0.00D+00  SYMTOL  =  1.00D-06  GRADTOL =  1.00D-06  THROVL  =  1.00D-08
 THRORTH =  1.00D-08  GRID    =  1.00D-08  GRIDMAX =  1.00D-03  DTMAX   =  0.00D+00  THROCCDE=  1.00D-01  THROCCDE=  1.00D-01
 THRPRINT=  2.50D-01


 Variable memory set to 1000000000 words,  buffer space 

 SETTING GEOMTYP        =    XYZ
 ZSYMEL=NOSYM

 SETTING BASIS          =    AVDZ


 Recomputing integrals since basis changed


 Using spherical harmonics

 Library entry H      S aug-cc-pVDZ          selected for orbital group  1
 Library entry H      P aug-cc-pVDZ          selected for orbital group  1
 Library entry C      S aug-cc-pVDZ          selected for orbital group  2
 Library entry C      P aug-cc-pVDZ          selected for orbital group  2
 Library entry C      D aug-cc-pVDZ          selected for orbital group  2
 Library entry O      S aug-cc-pVDZ          selected for orbital group  3
 Library entry O      P aug-cc-pVDZ          selected for orbital group  3
 Library entry O      D aug-cc-pVDZ          selected for orbital group  3


 PROGRAM * SEWARD (Integral evaluation for generally contracted gaussian basis sets)     Author: Roland Lindh, 1990

 Geometry written to block  1 of record 700


 Point group  C1  



 ATOMIC COORDINATES

 NR  ATOM    CHARGE       X              Y              Z

   1  H1      1.00    0.056132179   10.169329572   -1.483457817
   2  H2      1.00    0.025798106   10.305193435    1.378445264
   3  C1      6.00    0.000000000    0.166779669    0.000000000
   4  O1      8.00    0.000000000    2.319083238    0.000000000
   5  O2      8.00    0.000000000    9.122097287    0.000000000

 Bond lengths in Bohr (Angstrom)

 1-5  1.816726004  2-5  1.816726007  3-4  2.152303570
     ( 0.961370000)     ( 0.961370001)     ( 1.138950000)

 Bond angles

  1-5-2  104.10700007

 NUCLEAR CHARGE:                   24
 NUMBER OF PRIMITIVE AOS:         133
 NUMBER OF SYMMETRY AOS:          127
 NUMBER OF CONTRACTIONS:           87   (   87A   )
 NUMBER OF CORE ORBITALS:           3   (    3A   )
 NUMBER OF VALENCE ORBITALS:       14   (   14A   )


 NUCLEAR REPULSION ENERGY   49.39350858


 Eigenvalues of metric

         1 0.203E-02 0.274E-02 0.276E-02 0.651E-02 0.106E-01 0.120E-01 0.162E-01 0.205E-01


 OPERATOR DM      FOR CENTER  0  COORDINATES:    0.000000    0.000000    0.000000


 **********************************************************************************************************************************
 DATASETS  * FILE   NREC   LENGTH (MB)   RECORD NAMES
              1      18       30.31       500      610      700      900      950      970     1000      129      960     1100   
                                          VAR    BASINP    GEOM    SYMINP    ZMAT    AOBASIS   BASIS     P2S    ABASIS      S 
                                         1400     1410     1200     1210     1080     1600     1650     1700   
                                           T        V       H0       H01     AOSYM     SMH    MOLCAS    OPER   

 PROGRAMS   *        TOTAL       INT
 CPU TIMES  *         0.55      0.38
 REAL TIME  *         1.66 SEC
 DISK USED  *        30.66 MB (local),      122.65 MB (total)
 GA USED    *         0.00 MB       (max)       0.00 MB       (current)
 **********************************************************************************************************************************

 Density functional group PBE=PBEX+PBEC
 Functional: PBEX(Automatically generated (new) PBEX)                          Gradient terms: 1
 Functional: PBEC(Automatically generated (new) PBEC)                          Gradient terms: 1
 Use libxcgrid:  F
 Use grid at  1800.2

 Functional: PBEX                      Factor:  1.0000
 Functional: PBEC                      Factor:  1.0000

 Generated new metagrid on record  1800.2 with target accuracy 1.0D-08 and 51764 points in CPU time    0.2
 Computed new grid on record 1800.1 in CPU time    0.2
   73211 words reserved for DFT integration

 PROGRAM * RKS-SCF (Restricted closed shell Kohn-Sham)     Authors: W. Meyer, H.-J. Werner, P.J. Knowles, 1993

 NUMBER OF ELECTRONS:      12+   12-    SPACE SYMMETRY=1    SPIN SYMMETRY: Singlet 
 CONVERGENCE THRESHOLDS:    1.00E-04 (Density)    1.00E-08 (Energy)
 INTEGRAL THRESHOLDS:       1.00E-11 (Initial)    1.00E-11 (Final)
 MAX. NUMBER OF ITERATIONS:       60
 INTERPOLATION TYPE:            DIIS
 INTERPOLATION STEPS:              2 (START)      1 (STEP)
 LEVEL SHIFTS:                  0.00 (CLOSED)  0.00 (OPEN) 



 Use fine grid record 1800.2 for energy threshold  1.0D-08
 Orbital guess generated from atomic densities. Full valence occupancy:   17

 Molecular orbital dump at record        2101.2

 Initial occupancy:  12

 Direct Fock-matrix evaluation.        Authors: Roland Lindh & Martin Schuetz (1993/96)

 Integral Threshold:                  0.1D-10
 Threshold for writing integrals:     0.1D-06
 Prescreening on density matrix:        ON 
 Calculation will be performed fully direct        

 ITERATION   DDIFF            GRAD            ENERGY        2-EL.EN.            DIPOLE MOMENTS         DIIS   CPU(IT)  CPU(TOT)
    1      0.000D+00      0.000D+00      -189.47348327    288.232112    0.04000    1.05189   -0.05123    0      7.8     13.3     start
    2      0.000D+00      0.113D-01      -189.07609398    266.647043   -0.01141    0.63813    0.01577    1      3.9     17.2     diag
    3      0.330D-01      0.261D-01      -189.55369267    281.776264    0.02604    0.53282   -0.03245    2      3.8     21.0     diag
    4      0.231D-01      0.339D-02      -189.55907442    281.121061    0.02716    1.01126   -0.03418    3      3.9     24.9     diag
    5      0.520D-02      0.240D-02      -189.56286350    281.382288    0.02585    0.83798   -0.03259    4      3.9     28.7     diag
    6      0.205D-02      0.300D-03      -189.56294751    281.296152    0.02586    0.82439   -0.03250    5      3.9     32.6     diag
    7      0.495D-03      0.480D-04      -189.56294915    281.320619    0.02588    0.82202   -0.03255    6      3.9     36.4     diag
    8      0.418D-04      0.703D-05      -189.56294918    281.322799    0.02590    0.82238   -0.03256    7      3.9     40.3     diag
    9      0.597D-05      0.576D-06      -189.56294918    281.323138    0.02590    0.82244   -0.03257    0      3.8     44.1     orth

 Final occupancy:  12

 !RKS STATE  1.1 Energy              -189.562949182906
 Nuclear energy                        49.39350858
 One-electron energy                 -356.64850719
 Two-electron energy                  140.66156876
 Density functional                   -22.96951933     PBEX=-22.19476025 PBEC= -0.77475909
 Virial quotient                       -1.00537191
 !RKS STATE  1.1 Dipole moment          0.02589870     0.82244051    -0.03256575
 Dipole moment /Debye                   0.06582363     2.09029835    -0.08276845

 Orbital energies:

         1.1          2.1          3.1          4.1          5.1          6.1          7.1          8.1          9.1         10.1
    -18.870347   -18.779204   -10.005049    -1.066958    -0.933811    -0.508947    -0.484064    -0.421567    -0.421478    -0.343620

        11.1         12.1         13.1         14.1
     -0.323251    -0.265206    -0.067528    -0.067430


 HOMO     12.1    -0.265206 =      -7.2166eV
 LUMO     13.1    -0.067528 =      -1.8375eV
 LUMO-HOMO         0.197678 =       5.3791eV


 **********************************************************************************************************************************
 DATASETS  * FILE   NREC   LENGTH (MB)   RECORD NAMES
              1      19       30.31       500      610      700      900      950      970     1000      129      960     1100   
                                          VAR    BASINP    GEOM    SYMINP    ZMAT    AOBASIS   BASIS     P2S    ABASIS      S 
                                         1400     1410     1200     1210     1080     1600     1650     1700     1800   
                                           T        V       H0       H01     AOSYM     SMH    MOLCAS    OPER     GRID   

              2       5        2.98       700     1000      520     1800     2101   
                                         GEOM     BASIS   MCVARS    GRID      RKS  

 PROGRAMS   *        TOTAL   RKS-SCF       INT
 CPU TIMES  *        44.89     44.34      0.38
 REAL TIME  *        49.59 SEC
 DISK USED  *        33.83 MB (local),      135.32 MB (total)
 SF USED    *         0.09 MB
 GA USED    *         1.72 MB       (max)       1.72 MB       (current)
 **********************************************************************************************************************************
 SETTING EAB_PBE        =      -189.56294918  AU                              

 Dummy atoms: C1  O1


 Recomputing one-electron integrals since nuclear charges changed


 PROGRAM * SEWARD (Integral evaluation for generally contracted gaussian basis sets)     Author: Roland Lindh, 1990

 Geometry written to block  1 of record 700


 Point group  C1  



 ATOMIC COORDINATES

 NR  ATOM    CHARGE       X              Y              Z

   1  H1      1.00    0.056132179   10.169329572   -1.483457817
   2  H2      1.00    0.025798106   10.305193435    1.378445264
   3  C1      0.00    0.000000000    0.166779669    0.000000000
   4  O1      0.00    0.000000000    2.319083238    0.000000000
   5  O2      8.00    0.000000000    9.122097287    0.000000000

 Bond lengths in Bohr (Angstrom)

 1-5  1.816726004  2-5  1.816726007  3-4  2.152303570
     ( 0.961370000)     ( 0.961370001)     ( 1.138950000)

 Bond angles

  1-5-2  104.10700007

 NUCLEAR CHARGE:                   10
 NUMBER OF PRIMITIVE AOS:         133
 NUMBER OF SYMMETRY AOS:          127
 NUMBER OF CONTRACTIONS:           87   (   87A   )
 NUMBER OF CORE ORBITALS:           1   (    1A   )
 NUMBER OF VALENCE ORBITALS:        6   (    6A   )

 MOLECULE CHANGED: INITIALIZING OCCUPATION AND DUMP RECORDS


 NUCLEAR REPULSION ENERGY    9.15605698


 Eigenvalues of metric

         1 0.203E-02 0.274E-02 0.276E-02 0.651E-02 0.106E-01 0.120E-01 0.162E-01 0.205E-01


 OPERATOR DM      FOR CENTER  0  COORDINATES:    0.000000    0.000000    0.000000


 **********************************************************************************************************************************
 DATASETS  * FILE   NREC   LENGTH (MB)   RECORD NAMES
              1      19       30.31       500      610      700      900      950      970     1000      129      960     1100   
                                          VAR    BASINP    GEOM    SYMINP    ZMAT    AOBASIS   BASIS     P2S    ABASIS      S 
                                         1400     1410     1200     1210     1080     1600     1650     1700     1800   
                                           T        V       H0       H01     AOSYM     SMH    MOLCAS    OPER     GRID   

              2       5        2.98       700     1000      520     1800     2101   
                                         GEOM     BASIS   MCVARS    GRID      RKS  

 PROGRAMS   *        TOTAL       INT   RKS-SCF       INT
 CPU TIMES  *        44.95      0.06     44.34      0.38
 REAL TIME  *        49.66 SEC
 DISK USED  *        33.83 MB (local),      135.32 MB (total)
 SF USED    *         0.09 MB
 GA USED    *         1.72 MB       (max)       1.72 MB       (current)
 **********************************************************************************************************************************

 Density functional group PBE=PBEX+PBEC
 Functional: PBEX(Automatically generated (new) PBEX)                          Gradient terms: 1
 Functional: PBEC(Automatically generated (new) PBEC)                          Gradient terms: 1
 Use libxcgrid:  F
 Use grid at  1800.2

 Functional: PBEX                      Factor:  1.0000
 Functional: PBEC                      Factor:  1.0000

 Generated new metagrid on record  1800.2 with target accuracy 1.0D-08 and 51764 points in CPU time    0.1
 Computed new grid on record 1800.1 in CPU time    0.2
   73211 words reserved for DFT integration

 PROGRAM * RKS-SCF (Restricted closed shell Kohn-Sham)     Authors: W. Meyer, H.-J. Werner, P.J. Knowles, 1993

 NUMBER OF ELECTRONS:       5+    5-    SPACE SYMMETRY=1    SPIN SYMMETRY: Singlet 
 CONVERGENCE THRESHOLDS:    1.00E-04 (Density)    1.00E-08 (Energy)
 INTEGRAL THRESHOLDS:       1.00E-11 (Initial)    1.00E-11 (Final)
 MAX. NUMBER OF ITERATIONS:       60
 INTERPOLATION TYPE:            DIIS
 INTERPOLATION STEPS:              2 (START)      1 (STEP)
 LEVEL SHIFTS:                  0.00 (CLOSED)  0.00 (OPEN) 



 Use fine grid record 1800.2 for energy threshold  1.0D-08
 Orbital guess generated from atomic densities. Full valence occupancy:    7

 Molecular orbital dump at record        2201.2

 Initial occupancy:   5

 Direct Fock-matrix evaluation.        Authors: Roland Lindh & Martin Schuetz (1993/96)

 Integral Threshold:                  0.1D-10
 Threshold for writing integrals:     0.1D-06
 Prescreening on density matrix:        ON 
 Calculation will be performed fully direct        

 ITERATION   DDIFF            GRAD            ENERGY        2-EL.EN.            DIPOLE MOMENTS         DIIS   CPU(IT)  CPU(TOT)
    1      0.000D+00      0.000D+00       -76.28420165     97.670903    0.04000    1.08710   -0.05123    0      7.8     15.6     start
    2      0.000D+00      0.153D-01       -75.96806643     82.757176   -0.01045   -0.28928    0.01339    1      3.9     19.4     diag
    3      0.300D-01      0.344D-01       -76.35896301     93.306607    0.02669    0.72350   -0.03415    2      3.9     23.4     diag
    4      0.203D-01      0.650D-03       -76.35915091     93.041160    0.02621    0.70974   -0.03353    3      4.0     27.3     diag
    5      0.600D-03      0.169D-03       -76.35915894     93.071704    0.02608    0.70645   -0.03336    4      4.0     31.3     diag
    6      0.100D-03      0.442D-04       -76.35915959     93.083229    0.02615    0.70818   -0.03345    5      4.0     35.3     diag
    7      0.284D-04      0.154D-05       -76.35915959     93.083646    0.02615    0.70818   -0.03345    6      4.0     39.3     diag
    8      0.101D-05      0.909D-07       -76.35915959     93.083723    0.02615    0.70819   -0.03345    0      3.9     43.3     orth

 Final occupancy:   5

 !RKS STATE  1.1 Energy               -76.359159585819
 Nuclear energy                         9.15605698
 One-electron energy                 -122.82876943
 Two-electron energy                   46.54186128
 Density functional                    -9.22830842     PBEX=-8.90285984 PBEC=-0.32544858
 Virial quotient                       -1.00566129
 !RKS STATE  1.1 Dipole moment          0.02614561     0.70819090    -0.03344762
 Dipole moment /Debye                   0.06645116     1.79992382    -0.08500981

 Orbital energies:

         1.1          2.1          3.1          4.1          5.1          6.1          7.1
    -18.779547    -0.934130    -0.484365    -0.344059    -0.265526    -0.034684     0.019002


 HOMO      5.1    -0.265526 =      -7.2253eV
 LUMO      6.1    -0.034684 =      -0.9438eV
 LUMO-HOMO         0.230841 =       6.2815eV


 **********************************************************************************************************************************
 DATASETS  * FILE   NREC   LENGTH (MB)   RECORD NAMES
              1      19       30.31       500      610      700      900      950      970     1000      129      960     1100   
                                          VAR    BASINP    GEOM    SYMINP    ZMAT    AOBASIS   BASIS     P2S    ABASIS      S 
                                         1400     1410     1200     1210     1080     1600     1650     1700     1800   
                                           T        V       H0       H01     AOSYM     SMH    MOLCAS    OPER     GRID   

              2       6        5.78       700     1000      520     1800     2101     2201   
                                         GEOM     BASIS   MCVARS    GRID      RKS      RKS  

 PROGRAMS   *        TOTAL   RKS-SCF       INT   RKS-SCF       INT
 CPU TIMES  *        88.40     43.45      0.06     44.34      0.38
 REAL TIME  *        93.98 SEC
 DISK USED  *        36.59 MB (local),      146.38 MB (total)
 SF USED    *         0.09 MB
 GA USED    *         1.72 MB       (max)       1.72 MB       (current)
 **********************************************************************************************************************************
 SETTING EA_PBE         =       -76.35915959  AU                              

 Dummy atoms: H1  H2  O2


 Recomputing one-electron integrals since nuclear charges changed


 PROGRAM * SEWARD (Integral evaluation for generally contracted gaussian basis sets)     Author: Roland Lindh, 1990

 Geometry written to block  1 of record 700


 Point group  C1  



 ATOMIC COORDINATES

 NR  ATOM    CHARGE       X              Y              Z

   1  H1      0.00    0.056132179   10.169329572   -1.483457817
   2  H2      0.00    0.025798106   10.305193435    1.378445264
   3  C1      6.00    0.000000000    0.166779669    0.000000000
   4  O1      8.00    0.000000000    2.319083238    0.000000000
   5  O2      0.00    0.000000000    9.122097287    0.000000000

 Bond lengths in Bohr (Angstrom)

 1-5  1.816726004  2-5  1.816726007  3-4  2.152303570
     ( 0.961370000)     ( 0.961370001)     ( 1.138950000)

 Bond angles

  1-5-2  104.10700007

 NUCLEAR CHARGE:                   14
 NUMBER OF PRIMITIVE AOS:         133
 NUMBER OF SYMMETRY AOS:          127
 NUMBER OF CONTRACTIONS:           87   (   87A   )
 NUMBER OF CORE ORBITALS:           2   (    2A   )
 NUMBER OF VALENCE ORBITALS:        8   (    8A   )

 MOLECULE CHANGED: INITIALIZING OCCUPATION AND DUMP RECORDS


 NUCLEAR REPULSION ENERGY   22.30168675


 Eigenvalues of metric

         1 0.203E-02 0.274E-02 0.276E-02 0.651E-02 0.106E-01 0.120E-01 0.162E-01 0.205E-01


 OPERATOR DM      FOR CENTER  0  COORDINATES:    0.000000    0.000000    0.000000


 **********************************************************************************************************************************
 DATASETS  * FILE   NREC   LENGTH (MB)   RECORD NAMES
              1      19       30.31       500      610      700      900      950      970     1000      129      960     1100   
                                          VAR    BASINP    GEOM    SYMINP    ZMAT    AOBASIS   BASIS     P2S    ABASIS      S 
                                         1400     1410     1200     1210     1080     1600     1650     1700     1800   
                                           T        V       H0       H01     AOSYM     SMH    MOLCAS    OPER     GRID   

              2       6        5.78       700     1000      520     1800     2101     2201   
                                         GEOM     BASIS   MCVARS    GRID      RKS      RKS  

 PROGRAMS   *        TOTAL       INT   RKS-SCF       INT   RKS-SCF       INT
 CPU TIMES  *        88.43      0.03     43.45      0.06     44.34      0.38
 REAL TIME  *        94.03 SEC
 DISK USED  *        36.59 MB (local),      146.38 MB (total)
 SF USED    *         0.09 MB
 GA USED    *         1.72 MB       (max)       1.72 MB       (current)
 **********************************************************************************************************************************

 Density functional group PBE=PBEX+PBEC
 Functional: PBEX(Automatically generated (new) PBEX)                          Gradient terms: 1
 Functional: PBEC(Automatically generated (new) PBEC)                          Gradient terms: 1
 Use libxcgrid:  F
 Use grid at  1800.2

 Functional: PBEX                      Factor:  1.0000
 Functional: PBEC                      Factor:  1.0000

 Generated new metagrid on record  1800.2 with target accuracy 1.0D-08 and 51764 points in CPU time    0.2
 Computed new grid on record 1800.1 in CPU time    0.2
   73211 words reserved for DFT integration

 PROGRAM * RKS-SCF (Restricted closed shell Kohn-Sham)     Authors: W. Meyer, H.-J. Werner, P.J. Knowles, 1993

 NUMBER OF ELECTRONS:       7+    7-    SPACE SYMMETRY=1    SPIN SYMMETRY: Singlet 
 CONVERGENCE THRESHOLDS:    1.00E-04 (Density)    1.00E-08 (Energy)
 INTEGRAL THRESHOLDS:       1.00E-11 (Initial)    1.00E-11 (Final)
 MAX. NUMBER OF ITERATIONS:       60
 INTERPOLATION TYPE:            DIIS
 INTERPOLATION STEPS:              2 (START)      1 (STEP)
 LEVEL SHIFTS:                  0.00 (CLOSED)  0.00 (OPEN) 



 Use fine grid record 1800.2 for energy threshold  1.0D-08
 Orbital guess generated from atomic densities. Full valence occupancy:   10

 Molecular orbital dump at record        2301.2

 Initial occupancy:   7

 Direct Fock-matrix evaluation.        Authors: Roland Lindh & Martin Schuetz (1993/96)

 Integral Threshold:                  0.1D-10
 Threshold for writing integrals:     0.1D-06
 Prescreening on density matrix:        ON 
 Calculation will be performed fully direct        

 ITERATION   DDIFF            GRAD            ENERGY        2-EL.EN.            DIPOLE MOMENTS         DIIS   CPU(IT)  CPU(TOT)
    1      0.000D+00      0.000D+00      -113.19014064    154.121840   -0.00000   -0.03532    0.00000    0      7.8     15.6     start
    2      0.000D+00      0.570D-02      -113.13053554    148.645069   -0.00000    0.79315    0.00000    1      3.9     19.5     diag
    3      0.131D-01      0.133D-01      -113.19883062    152.086267   -0.00000   -0.14455    0.00000    2      3.9     23.3     diag
    4      0.101D-01      0.309D-02      -113.20389561    152.098219   -0.00000    0.08140    0.00000    3      3.9     27.2     diag
    5      0.303D-02      0.160D-03      -113.20390991    152.044094   -0.00000    0.08021    0.00000    4      3.8     31.0     diag
    6      0.185D-03      0.481D-04      -113.20391102    152.049331   -0.00000    0.07741    0.00000    5      3.8     34.9     diag
    7      0.317D-04      0.760D-05      -113.20391105    152.050980   -0.00000    0.07696    0.00000    6      3.9     38.7     diag
    8      0.448D-05      0.590D-06      -113.20391104    152.051465   -0.00000    0.07680    0.00000    0      3.8     42.6     orth

 Final occupancy:   7

 !RKS STATE  1.1 Energy              -113.203911043605
 Nuclear energy                        22.30168675
 One-electron energy                 -197.78932712
 Two-electron energy                   76.02573259
 Density functional                   -13.74200326     PBEX=-13.29276666 PBEC= -0.44923661
 Virial quotient                       -1.00515991
 !RKS STATE  1.1 Dipole moment         -0.00000118     0.07680357     0.00000337
 Dipole moment /Debye                  -0.00000300     0.19520243     0.00000857

 Orbital energies:

         1.1          2.1          3.1          4.1          5.1          6.1          7.1          8.1          9.1
    -18.881161   -10.016015    -1.078100    -0.521815    -0.432621    -0.432620    -0.332875    -0.077312    -0.077306


 HOMO      7.1    -0.332875 =      -9.0580eV
 LUMO      8.1    -0.077312 =      -2.1038eV
 LUMO-HOMO         0.255564 =       6.9542eV


 **********************************************************************************************************************************
 DATASETS  * FILE   NREC   LENGTH (MB)   RECORD NAMES
              1      19       30.31       500      610      700      900      950      970     1000      129      960     1100   
                                          VAR    BASINP    GEOM    SYMINP    ZMAT    AOBASIS   BASIS     P2S    ABASIS      S 
                                         1400     1410     1200     1210     1080     1600     1650     1700     1800   
                                           T        V       H0       H01     AOSYM     SMH    MOLCAS    OPER     GRID   

              2       7        8.57       700     1000      520     1800     2101     2201     2301   
                                         GEOM     BASIS   MCVARS    GRID      RKS      RKS      RKS  

 PROGRAMS   *        TOTAL   RKS-SCF       INT   RKS-SCF       INT   RKS-SCF       INT
 CPU TIMES  *       131.26     42.82      0.03     43.45      0.06     44.34      0.38
 REAL TIME  *       137.67 SEC
 DISK USED  *        39.39 MB (local),      157.56 MB (total)
 SF USED    *         0.09 MB
 GA USED    *         1.72 MB       (max)       1.72 MB       (current)
 **********************************************************************************************************************************
 SETTING EB_PBE         =      -113.20391104  AU                              
 SETTING E_AB_INT       =         0.00012145  AU                              

 *** results in hartree
 E_AB_INT         =         0.00012145 AU
 Molecular orbitals read from record     2301.2  Type=RKS/CANONICAL (state 1.1)
 Occupation numbers read from record     2301.2  Type=RKS/RHF (state 1.1)
 Orbital energies read from record       2301.2  Type=RKS/CANONICAL (state 1.1)
 Redundancy group numbers read from rec  2301.2  Type=RKS/RHF (state 1.1)

 RPBE/aug-cc-pVDZ energy=   -113.203911043605

         RKS-SCF         RKS-SCF         RKS-SCF
   -113.20391104    -76.35915959   -189.56294918
 **********************************************************************************************************************************
 Molpro calculation terminated
