
 Primary working directories    : /scratch/sirous/753868/molpro.A1zDlKStQo
 Secondary working directories  : /scratch/sirous/753868/molpro.A1zDlKStQo
 Wavefunction directory         : /scratch/sirous/753868/
 Main file repository           : /scratch/sirous/753868/molpro.A1zDlKStQo/

 id        : karlovklimes

 Nodes                      nprocs
 nc-21.cc.karlov.mff.cuni.cz    4

 Using customized tuning parameters: mindgm=1; mindgv=20; mindgc=4; mindgr=1; noblas=0; minvec=7
 default implementation of scratch files=sf  


 Variables initialized (934), CPU time= 0.01 sec
 ***,CH3C6H4CN+CF3CN+BF3
 memory,1000,m
 gdirect
 gthresh,energy=1.d-8,twoint=1.d-19,oneint=1.d-19,zero=1.d-15,orbital=1.d-8,grid=1.d-8,THROVL=1.d-8
 symmetry,nosym
 geomtyp=xyz
                                                                                 ! Geometry
 geometry={
 H1        0.02970387    4.68137746     -0.78501207
 H2        0.01365177    4.75327352     0.72944182
 C1        0.00000000    0.08825600     0.00000000
 O1        0.00000000    1.22720600     0.00000000
 O2        0.00000000    4.12720600     0.00000000
 }
 
 
 
 basis=avdz
 
 
 
                                                                                 ! Dimer Calculation
 {rks,pbe,accu=1.d-8;orbital,2101.2}
 eab_PBE=energy
 
 
                                                                                 !monomer A
 dummy,3,4;                                                                      ! NOW MONOMER B IS DUMMY
 {rks,pbe,accu=1.d-8;orbital,2201.2}
 ea_PBE=energy
                                                                                 !monomer B
 dummy,1,2,5;                                                                    !NOW MONOMER A IS DUMMY
 {rks,pbe,accu=1.d-8;orbital,2301.2}
 eb_PBE=energy
 
 E_AB_int=eab_PBE-ea_PBE-eb_PBE
 
 
 text,results in hartree
 show,E_AB_int
 
 Commands  initialized (763), CPU time= 0.02 sec, 617 directives.
 Default parameters read. Elapsed time= 0.29 sec

 Checking input...
 Passed
1


                                         ***  PROGRAM SYSTEM MOLPRO  ***
                                       Copyright, TTI GmbH Stuttgart, 2015
                                    Version 2019.2 linked Jun  8 2019 11:26:33


 **********************************************************************************************************************************
 LABEL *   CH3C6H4CN+CF3CN+BF3                                                           
  64 bit mpp version                                                                     DATE: 23-Jul-20          TIME: 10:09:55  
 **********************************************************************************************************************************

 SHA1:             8135a10abc80eafa5b3ae28ffc55be4890dc4c84
 **********************************************************************************************************************************

 THRESHOLDS:

 ZERO    =  1.00D-15  ONEINT  =  1.00D-19  TWOINT  =  1.00D-19  PREFAC  =  1.00D-14  XXXXXX  =  1.00D-09  EORDER  =  1.00D-04
 ENERGY  =  1.00D-08  ETEST   =  0.00D+00  EDENS   =  0.00D+00  THRDEDEF=  1.00D-06  GRADIENT=  1.00D-02  STEP    =  1.00D-03
 ORBITAL =  1.00D-08  CIVEC   =  1.00D-05  COEFF   =  1.00D-04  PRINTCI =  5.00D-02  PUNCHCI =  9.90D+01  OPTGRAD =  3.00D-04
 OPTENERG=  1.00D-06  OPTSTEP =  3.00D-04  THRGRAD =  1.00D-10  COMPRESS=  1.00D-11  VARMIN  =  1.00D-07  VARMAX  =  1.00D-03
 THRDOUB =  0.00D+00  THRDIV  =  1.00D-05  THRRED  =  1.00D-07  THRPSP  =  1.00D+00  THRDC   =  1.00D-10  THRCS   =  1.00D-10
 THRNRM  =  1.00D-08  THREQ   =  0.00D+00  THRDE   =  1.00D+00  THRREF  =  1.00D-05  SPARFAC =  1.00D+00  THRDLP  =  1.00D-07
 THRDIA  =  1.00D-10  THRDLS  =  1.00D-07  THRGPS  =  0.00D+00  THRKEX  =  0.00D+00  THRDIS  =  2.00D-01  THRVAR  =  1.00D-10
 THRLOC  =  1.00D-06  THRGAP  =  1.00D-06  THRLOCT = -1.00D+00  THRGAPT = -1.00D+00  THRORB  =  1.00D-06  THRMLTP =  0.00D+00
 THRCPQCI=  1.00D-10  KEXTA   =  0.00D+00  THRCOARS=  0.00D+00  SYMTOL  =  1.00D-06  GRADTOL =  1.00D-06  THROVL  =  1.00D-08
 THRORTH =  1.00D-08  GRID    =  1.00D-08  GRIDMAX =  1.00D-03  DTMAX   =  0.00D+00  THROCCDE=  1.00D-01  THROCCDE=  1.00D-01
 THRPRINT=  2.50D-01


 Variable memory set to 1000000000 words,  buffer space 

 SETTING GEOMTYP        =    XYZ
 ZSYMEL=NOSYM

 SETTING BASIS          =    AVDZ


 Recomputing integrals since basis changed


 Using spherical harmonics

 Library entry H      S aug-cc-pVDZ          selected for orbital group  1
 Library entry H      P aug-cc-pVDZ          selected for orbital group  1
 Library entry C      S aug-cc-pVDZ          selected for orbital group  2
 Library entry C      P aug-cc-pVDZ          selected for orbital group  2
 Library entry C      D aug-cc-pVDZ          selected for orbital group  2
 Library entry O      S aug-cc-pVDZ          selected for orbital group  3
 Library entry O      P aug-cc-pVDZ          selected for orbital group  3
 Library entry O      D aug-cc-pVDZ          selected for orbital group  3


 PROGRAM * SEWARD (Integral evaluation for generally contracted gaussian basis sets)     Author: Roland Lindh, 1990

 Geometry written to block  1 of record 700


 Point group  C1  



 ATOMIC COORDINATES

 NR  ATOM    CHARGE       X              Y              Z

   1  H1      1.00    0.056132179    8.846521285   -1.483457817
   2  H2      1.00    0.025798106    8.982385148    1.378445264
   3  C1      6.00    0.000000000    0.166779669    0.000000000
   4  O1      8.00    0.000000000    2.319083238    0.000000000
   5  O2      8.00    0.000000000    7.799289000    0.000000000

 Bond lengths in Bohr (Angstrom)

 1-5  1.816726004  2-5  1.816726007  3-4  2.152303570
     ( 0.961370000)     ( 0.961370001)     ( 1.138950000)

 Bond angles

  1-5-2  104.10700007

 NUCLEAR CHARGE:                   24
 NUMBER OF PRIMITIVE AOS:         133
 NUMBER OF SYMMETRY AOS:          127
 NUMBER OF CONTRACTIONS:           87   (   87A   )
 NUMBER OF CORE ORBITALS:           3   (    3A   )
 NUMBER OF VALENCE ORBITALS:       14   (   14A   )


 NUCLEAR REPULSION ENERGY   53.14961623


 Eigenvalues of metric

         1 0.200E-02 0.235E-02 0.258E-02 0.491E-02 0.101E-01 0.116E-01 0.126E-01 0.158E-01


 OPERATOR DM      FOR CENTER  0  COORDINATES:    0.000000    0.000000    0.000000


 **********************************************************************************************************************************
 DATASETS  * FILE   NREC   LENGTH (MB)   RECORD NAMES
              1      18       30.31       500      610      700      900      950      970     1000      129      960     1100   
                                          VAR    BASINP    GEOM    SYMINP    ZMAT    AOBASIS   BASIS     P2S    ABASIS      S 
                                         1400     1410     1200     1210     1080     1600     1650     1700   
                                           T        V       H0       H01     AOSYM     SMH    MOLCAS    OPER   

 PROGRAMS   *        TOTAL       INT
 CPU TIMES  *         0.55      0.38
 REAL TIME  *         1.82 SEC
 DISK USED  *        30.66 MB (local),      122.65 MB (total)
 GA USED    *         0.00 MB       (max)       0.00 MB       (current)
 **********************************************************************************************************************************

 Density functional group PBE=PBEX+PBEC
 Functional: PBEX(Automatically generated (new) PBEX)                          Gradient terms: 1
 Functional: PBEC(Automatically generated (new) PBEC)                          Gradient terms: 1
 Use libxcgrid:  F
 Use grid at  1800.2

 Functional: PBEX                      Factor:  1.0000
 Functional: PBEC                      Factor:  1.0000

 Generated new metagrid on record  1800.2 with target accuracy 1.0D-08 and 51764 points in CPU time    0.2
 Computed new grid on record 1800.1 in CPU time    0.2
   73211 words reserved for DFT integration

 PROGRAM * RKS-SCF (Restricted closed shell Kohn-Sham)     Authors: W. Meyer, H.-J. Werner, P.J. Knowles, 1993

 NUMBER OF ELECTRONS:      12+   12-    SPACE SYMMETRY=1    SPIN SYMMETRY: Singlet 
 CONVERGENCE THRESHOLDS:    1.00E-04 (Density)    1.00E-08 (Energy)
 INTEGRAL THRESHOLDS:       1.00E-11 (Initial)    1.00E-11 (Final)
 MAX. NUMBER OF ITERATIONS:       60
 INTERPOLATION TYPE:            DIIS
 INTERPOLATION STEPS:              2 (START)      1 (STEP)
 LEVEL SHIFTS:                  0.00 (CLOSED)  0.00 (OPEN) 



 Use fine grid record 1800.2 for energy threshold  1.0D-08
 Orbital guess generated from atomic densities. Full valence occupancy:   17

 Molecular orbital dump at record        2101.2

 Initial occupancy:  12

 Direct Fock-matrix evaluation.        Authors: Roland Lindh & Martin Schuetz (1993/96)

 Integral Threshold:                  0.1D-10
 Threshold for writing integrals:     0.1D-06
 Prescreening on density matrix:        ON 
 Calculation will be performed fully direct        

 ITERATION   DDIFF            GRAD            ENERGY        2-EL.EN.            DIPOLE MOMENTS         DIIS   CPU(IT)  CPU(TOT)
    1      0.000D+00      0.000D+00      -189.47126024    296.057675    0.03999    1.05122   -0.05122    0      7.9     13.6     start
    2      0.000D+00      0.114D-01      -189.05135400    273.681788   -0.01181    0.70174    0.01844    1      4.0     17.5     diag
    3      0.336D-01      0.268D-01      -189.55094286    289.492112    0.02586    0.52528   -0.03132    2      3.9     21.5     diag
    4      0.238D-01      0.371D-02      -189.55804706    288.774425    0.02717    1.02674   -0.03353    3      4.0     25.5     diag
    5      0.548D-02      0.240D-02      -189.56182496    289.037416    0.02578    0.85871   -0.03193    4      3.9     29.4     diag
    6      0.207D-02      0.318D-03      -189.56191947    288.953924    0.02580    0.84379   -0.03177    5      4.0     33.4     diag
    7      0.517D-03      0.524D-04      -189.56192144    288.980979    0.02582    0.84100   -0.03184    6      4.0     37.3     diag
    8      0.454D-04      0.708D-05      -189.56192147    288.983220    0.02584    0.84136   -0.03184    7      4.0     41.3     diag
    9      0.602D-05      0.616D-06      -189.56192147    288.983445    0.02584    0.84144   -0.03185    0      3.7     45.0     orth

 Final occupancy:  12

 !RKS STATE  1.1 Energy              -189.561921473601
 Nuclear energy                        53.14961623
 One-electron energy                 -364.23111557
 Two-electron energy                  144.49172248
 Density functional                   -22.97214462     PBEX=-22.19654738 PBEC= -0.77559724
 Virial quotient                       -1.00530188
 !RKS STATE  1.1 Dipole moment          0.02583550     0.84144371    -0.03184826
 Dipole moment /Debye                   0.06566299     2.13859650    -0.08094489

 Orbital energies:

         1.1          2.1          3.1          4.1          5.1          6.1          7.1          8.1          9.1         10.1
    -18.865207   -18.778430   -10.000088    -1.062070    -0.933504    -0.503371    -0.483794    -0.416856    -0.416662    -0.343265

        11.1         12.1         13.1         14.1
     -0.318174    -0.264976    -0.063606    -0.063340


 HOMO     12.1    -0.264976 =      -7.2104eV
 LUMO     13.1    -0.063606 =      -1.7308eV
 LUMO-HOMO         0.201371 =       5.4796eV


 **********************************************************************************************************************************
 DATASETS  * FILE   NREC   LENGTH (MB)   RECORD NAMES
              1      19       30.31       500      610      700      900      950      970     1000      129      960     1100   
                                          VAR    BASINP    GEOM    SYMINP    ZMAT    AOBASIS   BASIS     P2S    ABASIS      S 
                                         1400     1410     1200     1210     1080     1600     1650     1700     1800   
                                           T        V       H0       H01     AOSYM     SMH    MOLCAS    OPER     GRID   

              2       5        2.98       700     1000      520     1800     2101   
                                         GEOM     BASIS   MCVARS    GRID      RKS  

 PROGRAMS   *        TOTAL   RKS-SCF       INT
 CPU TIMES  *        45.78     45.22      0.38
 REAL TIME  *        50.51 SEC
 DISK USED  *        33.83 MB (local),      135.32 MB (total)
 SF USED    *         0.09 MB
 GA USED    *         1.72 MB       (max)       1.72 MB       (current)
 **********************************************************************************************************************************
 SETTING EAB_PBE        =      -189.56192147  AU                              

 Dummy atoms: C1  O1


 Recomputing one-electron integrals since nuclear charges changed


 PROGRAM * SEWARD (Integral evaluation for generally contracted gaussian basis sets)     Author: Roland Lindh, 1990

 Geometry written to block  1 of record 700


 Point group  C1  



 ATOMIC COORDINATES

 NR  ATOM    CHARGE       X              Y              Z

   1  H1      1.00    0.056132179    8.846521285   -1.483457817
   2  H2      1.00    0.025798106    8.982385148    1.378445264
   3  C1      0.00    0.000000000    0.166779669    0.000000000
   4  O1      0.00    0.000000000    2.319083238    0.000000000
   5  O2      8.00    0.000000000    7.799289000    0.000000000

 Bond lengths in Bohr (Angstrom)

 1-5  1.816726004  2-5  1.816726007  3-4  2.152303570
     ( 0.961370000)     ( 0.961370001)     ( 1.138950000)

 Bond angles

  1-5-2  104.10700007

 NUCLEAR CHARGE:                   10
 NUMBER OF PRIMITIVE AOS:         133
 NUMBER OF SYMMETRY AOS:          127
 NUMBER OF CONTRACTIONS:           87   (   87A   )
 NUMBER OF CORE ORBITALS:           1   (    1A   )
 NUMBER OF VALENCE ORBITALS:        6   (    6A   )

 MOLECULE CHANGED: INITIALIZING OCCUPATION AND DUMP RECORDS


 NUCLEAR REPULSION ENERGY    9.15605698


 Eigenvalues of metric

         1 0.200E-02 0.235E-02 0.258E-02 0.491E-02 0.101E-01 0.116E-01 0.126E-01 0.158E-01


 OPERATOR DM      FOR CENTER  0  COORDINATES:    0.000000    0.000000    0.000000


 **********************************************************************************************************************************
 DATASETS  * FILE   NREC   LENGTH (MB)   RECORD NAMES
              1      19       30.31       500      610      700      900      950      970     1000      129      960     1100   
                                          VAR    BASINP    GEOM    SYMINP    ZMAT    AOBASIS   BASIS     P2S    ABASIS      S 
                                         1400     1410     1200     1210     1080     1600     1650     1700     1800   
                                           T        V       H0       H01     AOSYM     SMH    MOLCAS    OPER     GRID   

              2       5        2.98       700     1000      520     1800     2101   
                                         GEOM     BASIS   MCVARS    GRID      RKS  

 PROGRAMS   *        TOTAL       INT   RKS-SCF       INT
 CPU TIMES  *        45.82      0.03     45.22      0.38
 REAL TIME  *        50.57 SEC
 DISK USED  *        33.83 MB (local),      135.32 MB (total)
 SF USED    *         0.09 MB
 GA USED    *         1.72 MB       (max)       1.72 MB       (current)
 **********************************************************************************************************************************

 Density functional group PBE=PBEX+PBEC
 Functional: PBEX(Automatically generated (new) PBEX)                          Gradient terms: 1
 Functional: PBEC(Automatically generated (new) PBEC)                          Gradient terms: 1
 Use libxcgrid:  F
 Use grid at  1800.2

 Functional: PBEX                      Factor:  1.0000
 Functional: PBEC                      Factor:  1.0000

 Generated new metagrid on record  1800.2 with target accuracy 1.0D-08 and 51764 points in CPU time    0.2
 Computed new grid on record 1800.1 in CPU time    0.2
   73211 words reserved for DFT integration

 PROGRAM * RKS-SCF (Restricted closed shell Kohn-Sham)     Authors: W. Meyer, H.-J. Werner, P.J. Knowles, 1993

 NUMBER OF ELECTRONS:       5+    5-    SPACE SYMMETRY=1    SPIN SYMMETRY: Singlet 
 CONVERGENCE THRESHOLDS:    1.00E-04 (Density)    1.00E-08 (Energy)
 INTEGRAL THRESHOLDS:       1.00E-11 (Initial)    1.00E-11 (Final)
 MAX. NUMBER OF ITERATIONS:       60
 INTERPOLATION TYPE:            DIIS
 INTERPOLATION STEPS:              2 (START)      1 (STEP)
 LEVEL SHIFTS:                  0.00 (CLOSED)  0.00 (OPEN) 



 Use fine grid record 1800.2 for energy threshold  1.0D-08
 Orbital guess generated from atomic densities. Full valence occupancy:    7

 Molecular orbital dump at record        2201.2

 Initial occupancy:   5

 Direct Fock-matrix evaluation.        Authors: Roland Lindh & Martin Schuetz (1993/96)

 Integral Threshold:                  0.1D-10
 Threshold for writing integrals:     0.1D-06
 Prescreening on density matrix:        ON 
 Calculation will be performed fully direct        

 ITERATION   DDIFF            GRAD            ENERGY        2-EL.EN.            DIPOLE MOMENTS         DIIS   CPU(IT)  CPU(TOT)
    1      0.000D+00      0.000D+00       -76.28423985     97.671020    0.03999    1.08716   -0.05126    0      7.9     15.7     start
    2      0.000D+00      0.153D-01       -75.96754941     82.748091   -0.01090   -0.29687    0.01339    1      4.0     19.6     diag
    3      0.302D-01      0.345D-01       -76.35900415     93.307269    0.02670    0.72357   -0.03418    2      4.0     23.6     diag
    4      0.205D-01      0.651D-03       -76.35919298     93.041082    0.02620    0.70948   -0.03356    3      4.0     27.6     diag
    5      0.610D-03      0.169D-03       -76.35920101     93.071820    0.02608    0.70621   -0.03339    4      3.9     31.5     diag
    6      0.101D-03      0.443D-04       -76.35920167     93.083317    0.02614    0.70795   -0.03348    5      4.0     35.5     diag
    7      0.286D-04      0.156D-05       -76.35920167     93.083739    0.02614    0.70796   -0.03347    6      4.0     39.5     diag
    8      0.102D-05      0.923D-07       -76.35920167     93.083817    0.02614    0.70796   -0.03348    0      3.7     43.2     orth

 Final occupancy:   5

 !RKS STATE  1.1 Energy               -76.359201665969
 Nuclear energy                         9.15605698
 One-electron energy                 -122.82884012
 Two-electron energy                   46.54190854
 Density functional                    -9.22832707     PBEX=-8.90287823 PBEC=-0.32544884
 Virial quotient                       -1.00566488
 !RKS STATE  1.1 Dipole moment          0.02614064     0.70796428    -0.03347601
 Dipole moment /Debye                   0.06643852     1.79934785    -0.08508195

 Orbital energies:

         1.1          2.1          3.1          4.1          5.1          6.1          7.1
    -18.779571    -0.934123    -0.484359    -0.344052    -0.265519    -0.034711     0.019141


 HOMO      5.1    -0.265519 =      -7.2251eV
 LUMO      6.1    -0.034711 =      -0.9445eV
 LUMO-HOMO         0.230807 =       6.2806eV


 **********************************************************************************************************************************
 DATASETS  * FILE   NREC   LENGTH (MB)   RECORD NAMES
              1      19       30.31       500      610      700      900      950      970     1000      129      960     1100   
                                          VAR    BASINP    GEOM    SYMINP    ZMAT    AOBASIS   BASIS     P2S    ABASIS      S 
                                         1400     1410     1200     1210     1080     1600     1650     1700     1800   
                                           T        V       H0       H01     AOSYM     SMH    MOLCAS    OPER     GRID   

              2       6        5.78       700     1000      520     1800     2101     2201   
                                         GEOM     BASIS   MCVARS    GRID      RKS      RKS  

 PROGRAMS   *        TOTAL   RKS-SCF       INT   RKS-SCF       INT
 CPU TIMES  *        89.21     43.39      0.03     45.22      0.38
 REAL TIME  *        94.78 SEC
 DISK USED  *        36.59 MB (local),      146.38 MB (total)
 SF USED    *         0.09 MB
 GA USED    *         1.72 MB       (max)       1.72 MB       (current)
 **********************************************************************************************************************************
 SETTING EA_PBE         =       -76.35920167  AU                              

 Dummy atoms: H1  H2  O2


 Recomputing one-electron integrals since nuclear charges changed


 PROGRAM * SEWARD (Integral evaluation for generally contracted gaussian basis sets)     Author: Roland Lindh, 1990

 Geometry written to block  1 of record 700


 Point group  C1  



 ATOMIC COORDINATES

 NR  ATOM    CHARGE       X              Y              Z

   1  H1      0.00    0.056132179    8.846521285   -1.483457817
   2  H2      0.00    0.025798106    8.982385148    1.378445264
   3  C1      6.00    0.000000000    0.166779669    0.000000000
   4  O1      8.00    0.000000000    2.319083238    0.000000000
   5  O2      0.00    0.000000000    7.799289000    0.000000000

 Bond lengths in Bohr (Angstrom)

 1-5  1.816726004  2-5  1.816726007  3-4  2.152303570
     ( 0.961370000)     ( 0.961370001)     ( 1.138950000)

 Bond angles

  1-5-2  104.10700007

 NUCLEAR CHARGE:                   14
 NUMBER OF PRIMITIVE AOS:         133
 NUMBER OF SYMMETRY AOS:          127
 NUMBER OF CONTRACTIONS:           87   (   87A   )
 NUMBER OF CORE ORBITALS:           2   (    2A   )
 NUMBER OF VALENCE ORBITALS:        8   (    8A   )

 MOLECULE CHANGED: INITIALIZING OCCUPATION AND DUMP RECORDS


 NUCLEAR REPULSION ENERGY   22.30168675


 Eigenvalues of metric

         1 0.200E-02 0.235E-02 0.258E-02 0.491E-02 0.101E-01 0.116E-01 0.126E-01 0.158E-01


 OPERATOR DM      FOR CENTER  0  COORDINATES:    0.000000    0.000000    0.000000


 **********************************************************************************************************************************
 DATASETS  * FILE   NREC   LENGTH (MB)   RECORD NAMES
              1      19       30.31       500      610      700      900      950      970     1000      129      960     1100   
                                          VAR    BASINP    GEOM    SYMINP    ZMAT    AOBASIS   BASIS     P2S    ABASIS      S 
                                         1400     1410     1200     1210     1080     1600     1650     1700     1800   
                                           T        V       H0       H01     AOSYM     SMH    MOLCAS    OPER     GRID   

              2       6        5.78       700     1000      520     1800     2101     2201   
                                         GEOM     BASIS   MCVARS    GRID      RKS      RKS  

 PROGRAMS   *        TOTAL       INT   RKS-SCF       INT   RKS-SCF       INT
 CPU TIMES  *        89.25      0.03     43.39      0.03     45.22      0.38
 REAL TIME  *        94.84 SEC
 DISK USED  *        36.59 MB (local),      146.38 MB (total)
 SF USED    *         0.09 MB
 GA USED    *         1.72 MB       (max)       1.72 MB       (current)
 **********************************************************************************************************************************

 Density functional group PBE=PBEX+PBEC
 Functional: PBEX(Automatically generated (new) PBEX)                          Gradient terms: 1
 Functional: PBEC(Automatically generated (new) PBEC)                          Gradient terms: 1
 Use libxcgrid:  F
 Use grid at  1800.2

 Functional: PBEX                      Factor:  1.0000
 Functional: PBEC                      Factor:  1.0000

 Generated new metagrid on record  1800.2 with target accuracy 1.0D-08 and 51764 points in CPU time    0.2
 Computed new grid on record 1800.1 in CPU time    0.2
   73211 words reserved for DFT integration

 PROGRAM * RKS-SCF (Restricted closed shell Kohn-Sham)     Authors: W. Meyer, H.-J. Werner, P.J. Knowles, 1993

 NUMBER OF ELECTRONS:       7+    7-    SPACE SYMMETRY=1    SPIN SYMMETRY: Singlet 
 CONVERGENCE THRESHOLDS:    1.00E-04 (Density)    1.00E-08 (Energy)
 INTEGRAL THRESHOLDS:       1.00E-11 (Initial)    1.00E-11 (Final)
 MAX. NUMBER OF ITERATIONS:       60
 INTERPOLATION TYPE:            DIIS
 INTERPOLATION STEPS:              2 (START)      1 (STEP)
 LEVEL SHIFTS:                  0.00 (CLOSED)  0.00 (OPEN) 



 Use fine grid record 1800.2 for energy threshold  1.0D-08
 Orbital guess generated from atomic densities. Full valence occupancy:   10

 Molecular orbital dump at record        2301.2

 Initial occupancy:   7

 Direct Fock-matrix evaluation.        Authors: Roland Lindh & Martin Schuetz (1993/96)

 Integral Threshold:                  0.1D-10
 Threshold for writing integrals:     0.1D-06
 Prescreening on density matrix:        ON 
 Calculation will be performed fully direct        

 ITERATION   DDIFF            GRAD            ENERGY        2-EL.EN.            DIPOLE MOMENTS         DIIS   CPU(IT)  CPU(TOT)
    1      0.000D+00      0.000D+00      -113.19019931    154.122780   -0.00001   -0.03496    0.00001    0      7.9     15.7     start
    2      0.000D+00      0.571D-02      -113.13059206    148.644226   -0.00001    0.79355    0.00001    1      3.9     19.6     diag
    3      0.131D-01      0.133D-01      -113.19888889    152.086540   -0.00001   -0.14416    0.00001    2      4.0     23.6     diag
    4      0.101D-01      0.309D-02      -113.20396036    152.098504   -0.00001    0.08187    0.00001    3      3.9     27.5     diag
    5      0.302D-02      0.160D-03      -113.20397471    152.044297   -0.00001    0.08067    0.00001    4      4.0     31.5     diag
    6      0.185D-03      0.481D-04      -113.20397583    152.049544   -0.00001    0.07786    0.00001    5      4.0     35.5     diag
    7      0.318D-04      0.761D-05      -113.20397586    152.051194   -0.00001    0.07741    0.00001    6      4.0     39.5     diag
    8      0.448D-05      0.590D-06      -113.20397585    152.051679   -0.00001    0.07726    0.00001    0      2.7     42.1     orth

 Final occupancy:   7

 !RKS STATE  1.1 Energy              -113.203975854418
 Nuclear energy                        22.30168675
 One-electron energy                 -197.78948601
 Two-electron energy                   76.02583974
 Density functional                   -13.74201633     PBEX=-13.29278235 PBEC= -0.44923399
 Virial quotient                       -1.00515885
 !RKS STATE  1.1 Dipole moment         -0.00000550     0.07725648     0.00001067
 Dipole moment /Debye                  -0.00001398     0.19635353     0.00002713

 Orbital energies:

         1.1          2.1          3.1          4.1          5.1          6.1          7.1          8.1          9.1
    -18.881189   -10.015989    -1.078102    -0.521812    -0.432614    -0.432613    -0.332869    -0.077320    -0.077309


 HOMO      7.1    -0.332869 =      -9.0578eV
 LUMO      8.1    -0.077320 =      -2.1040eV
 LUMO-HOMO         0.255549 =       6.9539eV


 **********************************************************************************************************************************
 DATASETS  * FILE   NREC   LENGTH (MB)   RECORD NAMES
              1      19       30.31       500      610      700      900      950      970     1000      129      960     1100   
                                          VAR    BASINP    GEOM    SYMINP    ZMAT    AOBASIS   BASIS     P2S    ABASIS      S 
                                         1400     1410     1200     1210     1080     1600     1650     1700     1800   
                                           T        V       H0       H01     AOSYM     SMH    MOLCAS    OPER     GRID   

              2       7        8.57       700     1000      520     1800     2101     2201     2301   
                                         GEOM     BASIS   MCVARS    GRID      RKS      RKS      RKS  

 PROGRAMS   *        TOTAL   RKS-SCF       INT   RKS-SCF       INT   RKS-SCF       INT
 CPU TIMES  *       131.58     42.33      0.03     43.39      0.03     45.22      0.38
 REAL TIME  *       137.98 SEC
 DISK USED  *        39.39 MB (local),      157.56 MB (total)
 SF USED    *         0.09 MB
 GA USED    *         1.72 MB       (max)       1.72 MB       (current)
 **********************************************************************************************************************************
 SETTING EB_PBE         =      -113.20397585  AU                              
 SETTING E_AB_INT       =         0.00125605  AU                              

 *** results in hartree
 E_AB_INT         =         0.00125605 AU
 Molecular orbitals read from record     2301.2  Type=RKS/CANONICAL (state 1.1)
 Occupation numbers read from record     2301.2  Type=RKS/RHF (state 1.1)
 Orbital energies read from record       2301.2  Type=RKS/CANONICAL (state 1.1)
 Redundancy group numbers read from rec  2301.2  Type=RKS/RHF (state 1.1)

 RPBE/aug-cc-pVDZ energy=   -113.203975854418

         RKS-SCF         RKS-SCF         RKS-SCF
   -113.20397585    -76.35920167   -189.56192147
 **********************************************************************************************************************************
 Molpro calculation terminated
