
 Primary working directories    : /scratch/sirous/753871/molpro.lgQkwksIjy
 Secondary working directories  : /scratch/sirous/753871/molpro.lgQkwksIjy
 Wavefunction directory         : /scratch/sirous/753871/
 Main file repository           : /scratch/sirous/753871/molpro.lgQkwksIjy/

 id        : karlovklimes

 Nodes                      nprocs
 nc-21.cc.karlov.mff.cuni.cz    4

 Using customized tuning parameters: mindgm=1; mindgv=20; mindgc=4; mindgr=1; noblas=0; minvec=7
 default implementation of scratch files=sf  


 Variables initialized (934), CPU time= 0.00 sec
 ***,CH3C6H4CN+CF3CN+BF3
 memory,1000,m
 gdirect
 gthresh,energy=1.d-8,twoint=1.d-19,oneint=1.d-19,zero=1.d-15,orbital=1.d-8,grid=1.d-8,THROVL=1.d-8
 symmetry,nosym
 geomtyp=xyz
                                                                                 ! Geometry
 geometry={
 H1        0.02970387    4.98137746     -0.78501207
 H2        0.01365177    5.05327352     0.72944182
 C1        0.00000000    0.08825600     0.00000000
 O1        0.00000000    1.22720600     0.00000000
 O2        0.00000000    4.42720600     0.00000000
 }
 
 
 
 basis=avdz
 
 
 
                                                                                 ! Dimer Calculation
 {rks,pbe,accu=1.d-8;orbital,2101.2}
 eab_PBE=energy
 
 
                                                                                 !monomer A
 dummy,3,4;                                                                      ! NOW MONOMER B IS DUMMY
 {rks,pbe,accu=1.d-8;orbital,2201.2}
 ea_PBE=energy
                                                                                 !monomer B
 dummy,1,2,5;                                                                    !NOW MONOMER A IS DUMMY
 {rks,pbe,accu=1.d-8;orbital,2301.2}
 eb_PBE=energy
 
 E_AB_int=eab_PBE-ea_PBE-eb_PBE
 
 
 text,results in hartree
 show,E_AB_int
 
 Commands  initialized (763), CPU time= 0.02 sec, 617 directives.
 Default parameters read. Elapsed time= 0.31 sec

 Checking input...
 Passed
1


                                         ***  PROGRAM SYSTEM MOLPRO  ***
                                       Copyright, TTI GmbH Stuttgart, 2015
                                    Version 2019.2 linked Jun  8 2019 11:26:33


 **********************************************************************************************************************************
 LABEL *   CH3C6H4CN+CF3CN+BF3                                                           
  64 bit mpp version                                                                     DATE: 23-Jul-20          TIME: 10:09:55  
 **********************************************************************************************************************************

 SHA1:             8135a10abc80eafa5b3ae28ffc55be4890dc4c84
 **********************************************************************************************************************************

 THRESHOLDS:

 ZERO    =  1.00D-15  ONEINT  =  1.00D-19  TWOINT  =  1.00D-19  PREFAC  =  1.00D-14  XXXXXX  =  1.00D-09  EORDER  =  1.00D-04
 ENERGY  =  1.00D-08  ETEST   =  0.00D+00  EDENS   =  0.00D+00  THRDEDEF=  1.00D-06  GRADIENT=  1.00D-02  STEP    =  1.00D-03
 ORBITAL =  1.00D-08  CIVEC   =  1.00D-05  COEFF   =  1.00D-04  PRINTCI =  5.00D-02  PUNCHCI =  9.90D+01  OPTGRAD =  3.00D-04
 OPTENERG=  1.00D-06  OPTSTEP =  3.00D-04  THRGRAD =  1.00D-10  COMPRESS=  1.00D-11  VARMIN  =  1.00D-07  VARMAX  =  1.00D-03
 THRDOUB =  0.00D+00  THRDIV  =  1.00D-05  THRRED  =  1.00D-07  THRPSP  =  1.00D+00  THRDC   =  1.00D-10  THRCS   =  1.00D-10
 THRNRM  =  1.00D-08  THREQ   =  0.00D+00  THRDE   =  1.00D+00  THRREF  =  1.00D-05  SPARFAC =  1.00D+00  THRDLP  =  1.00D-07
 THRDIA  =  1.00D-10  THRDLS  =  1.00D-07  THRGPS  =  0.00D+00  THRKEX  =  0.00D+00  THRDIS  =  2.00D-01  THRVAR  =  1.00D-10
 THRLOC  =  1.00D-06  THRGAP  =  1.00D-06  THRLOCT = -1.00D+00  THRGAPT = -1.00D+00  THRORB  =  1.00D-06  THRMLTP =  0.00D+00
 THRCPQCI=  1.00D-10  KEXTA   =  0.00D+00  THRCOARS=  0.00D+00  SYMTOL  =  1.00D-06  GRADTOL =  1.00D-06  THROVL  =  1.00D-08
 THRORTH =  1.00D-08  GRID    =  1.00D-08  GRIDMAX =  1.00D-03  DTMAX   =  0.00D+00  THROCCDE=  1.00D-01  THROCCDE=  1.00D-01
 THRPRINT=  2.50D-01


 Variable memory set to 1000000000 words,  buffer space 

 SETTING GEOMTYP        =    XYZ
 ZSYMEL=NOSYM

 SETTING BASIS          =    AVDZ


 Recomputing integrals since basis changed


 Using spherical harmonics

 Library entry H      S aug-cc-pVDZ          selected for orbital group  1
 Library entry H      P aug-cc-pVDZ          selected for orbital group  1
 Library entry C      S aug-cc-pVDZ          selected for orbital group  2
 Library entry C      P aug-cc-pVDZ          selected for orbital group  2
 Library entry C      D aug-cc-pVDZ          selected for orbital group  2
 Library entry O      S aug-cc-pVDZ          selected for orbital group  3
 Library entry O      P aug-cc-pVDZ          selected for orbital group  3
 Library entry O      D aug-cc-pVDZ          selected for orbital group  3


 PROGRAM * SEWARD (Integral evaluation for generally contracted gaussian basis sets)     Author: Roland Lindh, 1990

 Geometry written to block  1 of record 700


 Point group  C1  



 ATOMIC COORDINATES

 NR  ATOM    CHARGE       X              Y              Z

   1  H1      1.00    0.056132179    9.413439122   -1.483457817
   2  H2      1.00    0.025798106    9.549302985    1.378445264
   3  C1      6.00    0.000000000    0.166779669    0.000000000
   4  O1      8.00    0.000000000    2.319083238    0.000000000
   5  O2      8.00    0.000000000    8.366206837    0.000000000

 Bond lengths in Bohr (Angstrom)

 1-5  1.816726004  2-5  1.816726007  3-4  2.152303570
     ( 0.961370000)     ( 0.961370001)     ( 1.138950000)

 Bond angles

  1-5-2  104.10700007

 NUCLEAR CHARGE:                   24
 NUMBER OF PRIMITIVE AOS:         133
 NUMBER OF SYMMETRY AOS:          127
 NUMBER OF CONTRACTIONS:           87   (   87A   )
 NUMBER OF CORE ORBITALS:           3   (    3A   )
 NUMBER OF VALENCE ORBITALS:       14   (   14A   )


 NUCLEAR REPULSION ENERGY   51.35936153


 Eigenvalues of metric

         1 0.202E-02 0.259E-02 0.266E-02 0.560E-02 0.104E-01 0.120E-01 0.153E-01 0.162E-01


 OPERATOR DM      FOR CENTER  0  COORDINATES:    0.000000    0.000000    0.000000


 **********************************************************************************************************************************
 DATASETS  * FILE   NREC   LENGTH (MB)   RECORD NAMES
              1      18       30.31       500      610      700      900      950      970     1000      129      960     1100   
                                          VAR    BASINP    GEOM    SYMINP    ZMAT    AOBASIS   BASIS     P2S    ABASIS      S 
                                         1400     1410     1200     1210     1080     1600     1650     1700   
                                           T        V       H0       H01     AOSYM     SMH    MOLCAS    OPER   

 PROGRAMS   *        TOTAL       INT
 CPU TIMES  *         0.53      0.33
 REAL TIME  *         1.83 SEC
 DISK USED  *        30.66 MB (local),      122.65 MB (total)
 GA USED    *         0.00 MB       (max)       0.00 MB       (current)
 **********************************************************************************************************************************

 Density functional group PBE=PBEX+PBEC
 Functional: PBEX(Automatically generated (new) PBEX)                          Gradient terms: 1
 Functional: PBEC(Automatically generated (new) PBEC)                          Gradient terms: 1
 Use libxcgrid:  F
 Use grid at  1800.2

 Functional: PBEX                      Factor:  1.0000
 Functional: PBEC                      Factor:  1.0000

 Generated new metagrid on record  1800.2 with target accuracy 1.0D-08 and 51764 points in CPU time    0.2
 Computed new grid on record 1800.1 in CPU time    0.2
   73211 words reserved for DFT integration

 PROGRAM * RKS-SCF (Restricted closed shell Kohn-Sham)     Authors: W. Meyer, H.-J. Werner, P.J. Knowles, 1993

 NUMBER OF ELECTRONS:      12+   12-    SPACE SYMMETRY=1    SPIN SYMMETRY: Singlet 
 CONVERGENCE THRESHOLDS:    1.00E-04 (Density)    1.00E-08 (Energy)
 INTEGRAL THRESHOLDS:       1.00E-11 (Initial)    1.00E-11 (Final)
 MAX. NUMBER OF ITERATIONS:       60
 INTERPOLATION TYPE:            DIIS
 INTERPOLATION STEPS:              2 (START)      1 (STEP)
 LEVEL SHIFTS:                  0.00 (CLOSED)  0.00 (OPEN) 



 Use fine grid record 1800.2 for energy threshold  1.0D-08
 Orbital guess generated from atomic densities. Full valence occupancy:   17

 Molecular orbital dump at record        2101.2

 Initial occupancy:  12

 Direct Fock-matrix evaluation.        Authors: Roland Lindh & Martin Schuetz (1993/96)

 Integral Threshold:                  0.1D-10
 Threshold for writing integrals:     0.1D-06
 Prescreening on density matrix:        ON 
 Calculation will be performed fully direct        

 ITERATION   DDIFF            GRAD            ENERGY        2-EL.EN.            DIPOLE MOMENTS         DIIS   CPU(IT)  CPU(TOT)
    1      0.000D+00      0.000D+00      -189.47277482    292.312583    0.04000    1.05165   -0.05123    0      7.8     13.4     start
    2      0.000D+00      0.114D-01      -189.06570914    270.366513   -0.01163    0.67067    0.01691    1      3.9     17.2     diag
    3      0.332D-01      0.264D-01      -189.55266867    285.807934    0.02595    0.53041   -0.03192    2      3.9     21.1     diag
    4      0.234D-01      0.354D-02      -189.55886268    285.122672    0.02716    1.01893   -0.03388    3      3.9     25.0     diag
    5      0.532D-02      0.239D-02      -189.56262414    285.384879    0.02581    0.84879   -0.03229    4      3.9     28.9     diag
    6      0.205D-02      0.308D-03      -189.56271253    285.300368    0.02583    0.83461   -0.03217    5      3.9     32.7     diag
    7      0.504D-03      0.498D-04      -189.56271430    285.325848    0.02585    0.83205   -0.03223    6      3.9     36.6     diag
    8      0.432D-04      0.709D-05      -189.56271434    285.328090    0.02587    0.83241   -0.03223    7      3.9     40.5     diag
    9      0.602D-05      0.591D-06      -189.56271434    285.328366    0.02587    0.83249   -0.03224    0      3.7     44.2     orth

 Final occupancy:  12

 !RKS STATE  1.1 Energy              -189.562714335477
 Nuclear energy                        51.35936153
 One-electron energy                 -360.61600426
 Two-electron energy                  142.66418306
 Density functional                   -22.97025467     PBEX=-22.19521805 PBEC= -0.77503662
 Virial quotient                       -1.00535430
 !RKS STATE  1.1 Dipole moment          0.02586560     0.83248654    -0.03223808
 Dipole moment /Debye                   0.06573948     2.11583114    -0.08193565

 Orbital energies:

         1.1          2.1          3.1          4.1          5.1          6.1          7.1          8.1          9.1         10.1
    -18.867844   -18.778946   -10.002577    -1.064487    -0.933672    -0.505965    -0.483943    -0.419169    -0.419029    -0.343470

        11.1         12.1         13.1         14.1
     -0.320904    -0.265096    -0.065519    -0.065352


 HOMO     12.1    -0.265096 =      -7.2136eV
 LUMO     13.1    -0.065519 =      -1.7829eV
 LUMO-HOMO         0.199578 =       5.4308eV


 **********************************************************************************************************************************
 DATASETS  * FILE   NREC   LENGTH (MB)   RECORD NAMES
              1      19       30.31       500      610      700      900      950      970     1000      129      960     1100   
                                          VAR    BASINP    GEOM    SYMINP    ZMAT    AOBASIS   BASIS     P2S    ABASIS      S 
                                         1400     1410     1200     1210     1080     1600     1650     1700     1800   
                                           T        V       H0       H01     AOSYM     SMH    MOLCAS    OPER     GRID   

              2       5        2.98       700     1000      520     1800     2101   
                                         GEOM     BASIS   MCVARS    GRID      RKS  

 PROGRAMS   *        TOTAL   RKS-SCF       INT
 CPU TIMES  *        44.92     44.40      0.33
 REAL TIME  *        49.78 SEC
 DISK USED  *        33.83 MB (local),      135.32 MB (total)
 SF USED    *         0.09 MB
 GA USED    *         1.72 MB       (max)       1.72 MB       (current)
 **********************************************************************************************************************************
 SETTING EAB_PBE        =      -189.56271434  AU                              

 Dummy atoms: C1  O1


 Recomputing one-electron integrals since nuclear charges changed


 PROGRAM * SEWARD (Integral evaluation for generally contracted gaussian basis sets)     Author: Roland Lindh, 1990

 Geometry written to block  1 of record 700


 Point group  C1  



 ATOMIC COORDINATES

 NR  ATOM    CHARGE       X              Y              Z

   1  H1      1.00    0.056132179    9.413439122   -1.483457817
   2  H2      1.00    0.025798106    9.549302985    1.378445264
   3  C1      0.00    0.000000000    0.166779669    0.000000000
   4  O1      0.00    0.000000000    2.319083238    0.000000000
   5  O2      8.00    0.000000000    8.366206837    0.000000000

 Bond lengths in Bohr (Angstrom)

 1-5  1.816726004  2-5  1.816726007  3-4  2.152303570
     ( 0.961370000)     ( 0.961370001)     ( 1.138950000)

 Bond angles

  1-5-2  104.10700007

 NUCLEAR CHARGE:                   10
 NUMBER OF PRIMITIVE AOS:         133
 NUMBER OF SYMMETRY AOS:          127
 NUMBER OF CONTRACTIONS:           87   (   87A   )
 NUMBER OF CORE ORBITALS:           1   (    1A   )
 NUMBER OF VALENCE ORBITALS:        6   (    6A   )

 MOLECULE CHANGED: INITIALIZING OCCUPATION AND DUMP RECORDS


 NUCLEAR REPULSION ENERGY    9.15605698


 Eigenvalues of metric

         1 0.202E-02 0.259E-02 0.266E-02 0.560E-02 0.104E-01 0.120E-01 0.153E-01 0.162E-01


 OPERATOR DM      FOR CENTER  0  COORDINATES:    0.000000    0.000000    0.000000


 **********************************************************************************************************************************
 DATASETS  * FILE   NREC   LENGTH (MB)   RECORD NAMES
              1      19       30.31       500      610      700      900      950      970     1000      129      960     1100   
                                          VAR    BASINP    GEOM    SYMINP    ZMAT    AOBASIS   BASIS     P2S    ABASIS      S 
                                         1400     1410     1200     1210     1080     1600     1650     1700     1800   
                                           T        V       H0       H01     AOSYM     SMH    MOLCAS    OPER     GRID   

              2       5        2.98       700     1000      520     1800     2101   
                                         GEOM     BASIS   MCVARS    GRID      RKS  

 PROGRAMS   *        TOTAL       INT   RKS-SCF       INT
 CPU TIMES  *        44.95      0.02     44.40      0.33
 REAL TIME  *        49.86 SEC
 DISK USED  *        33.83 MB (local),      135.32 MB (total)
 SF USED    *         0.09 MB
 GA USED    *         1.72 MB       (max)       1.72 MB       (current)
 **********************************************************************************************************************************

 Density functional group PBE=PBEX+PBEC
 Functional: PBEX(Automatically generated (new) PBEX)                          Gradient terms: 1
 Functional: PBEC(Automatically generated (new) PBEC)                          Gradient terms: 1
 Use libxcgrid:  F
 Use grid at  1800.2

 Functional: PBEX                      Factor:  1.0000
 Functional: PBEC                      Factor:  1.0000

 Generated new metagrid on record  1800.2 with target accuracy 1.0D-08 and 51764 points in CPU time    0.2
 Computed new grid on record 1800.1 in CPU time    0.2
   73211 words reserved for DFT integration

 PROGRAM * RKS-SCF (Restricted closed shell Kohn-Sham)     Authors: W. Meyer, H.-J. Werner, P.J. Knowles, 1993

 NUMBER OF ELECTRONS:       5+    5-    SPACE SYMMETRY=1    SPIN SYMMETRY: Singlet 
 CONVERGENCE THRESHOLDS:    1.00E-04 (Density)    1.00E-08 (Energy)
 INTEGRAL THRESHOLDS:       1.00E-11 (Initial)    1.00E-11 (Final)
 MAX. NUMBER OF ITERATIONS:       60
 INTERPOLATION TYPE:            DIIS
 INTERPOLATION STEPS:              2 (START)      1 (STEP)
 LEVEL SHIFTS:                  0.00 (CLOSED)  0.00 (OPEN) 



 Use fine grid record 1800.2 for energy threshold  1.0D-08
 Orbital guess generated from atomic densities. Full valence occupancy:    7

 Molecular orbital dump at record        2201.2

 Initial occupancy:   5

 Direct Fock-matrix evaluation.        Authors: Roland Lindh & Martin Schuetz (1993/96)

 Integral Threshold:                  0.1D-10
 Threshold for writing integrals:     0.1D-06
 Prescreening on density matrix:        ON 
 Calculation will be performed fully direct        

 ITERATION   DDIFF            GRAD            ENERGY        2-EL.EN.            DIPOLE MOMENTS         DIIS   CPU(IT)  CPU(TOT)
    1      0.000D+00      0.000D+00       -76.28422576     97.670698    0.04000    1.08720   -0.05125    0      7.8     15.6     start
    2      0.000D+00      0.153D-01       -75.96784899     82.753175   -0.01065   -0.29311    0.01339    1      3.9     19.5     diag
    3      0.301D-01      0.345D-01       -76.35898377     93.306836    0.02670    0.72351   -0.03417    2      3.9     23.4     diag
    4      0.204D-01      0.650D-03       -76.35917208     93.041060    0.02621    0.70959   -0.03354    3      3.9     27.3     diag
    5      0.605D-03      0.169D-03       -76.35918011     93.071697    0.02608    0.70630   -0.03338    4      3.9     31.2     diag
    6      0.101D-03      0.442D-04       -76.35918076     93.083208    0.02615    0.70804   -0.03346    5      3.9     35.0     diag
    7      0.285D-04      0.154D-05       -76.35918076     93.083627    0.02615    0.70805   -0.03346    6      3.9     38.9     diag
    8      0.102D-05      0.915D-07       -76.35918076     93.083704    0.02615    0.70806   -0.03346    0      3.6     42.5     orth

 Final occupancy:   5

 !RKS STATE  1.1 Energy               -76.359180759076
 Nuclear energy                         9.15605698
 One-electron energy                 -122.82877832
 Two-electron energy                   46.54185201
 Density functional                    -9.22831143     PBEX=-8.90286285 PBEC=-0.32544858
 Virial quotient                       -1.00566439
 !RKS STATE  1.1 Dipole moment          0.02614909     0.70805587    -0.03346419
 Dipole moment /Debye                   0.06646001     1.79958064    -0.08505193

 Orbital energies:

         1.1          2.1          3.1          4.1          5.1          6.1          7.1
    -18.779569    -0.934127    -0.484365    -0.344056    -0.265524    -0.034694     0.019086


 HOMO      5.1    -0.265524 =      -7.2253eV
 LUMO      6.1    -0.034694 =      -0.9441eV
 LUMO-HOMO         0.230830 =       6.2812eV


 **********************************************************************************************************************************
 DATASETS  * FILE   NREC   LENGTH (MB)   RECORD NAMES
              1      19       30.31       500      610      700      900      950      970     1000      129      960     1100   
                                          VAR    BASINP    GEOM    SYMINP    ZMAT    AOBASIS   BASIS     P2S    ABASIS      S 
                                         1400     1410     1200     1210     1080     1600     1650     1700     1800   
                                           T        V       H0       H01     AOSYM     SMH    MOLCAS    OPER     GRID   

              2       6        5.78       700     1000      520     1800     2101     2201   
                                         GEOM     BASIS   MCVARS    GRID      RKS      RKS  

 PROGRAMS   *        TOTAL   RKS-SCF       INT   RKS-SCF       INT
 CPU TIMES  *        87.71     42.76      0.02     44.40      0.33
 REAL TIME  *        93.24 SEC
 DISK USED  *        36.59 MB (local),      146.38 MB (total)
 SF USED    *         0.09 MB
 GA USED    *         1.72 MB       (max)       1.72 MB       (current)
 **********************************************************************************************************************************
 SETTING EA_PBE         =       -76.35918076  AU                              

 Dummy atoms: H1  H2  O2


 Recomputing one-electron integrals since nuclear charges changed


 PROGRAM * SEWARD (Integral evaluation for generally contracted gaussian basis sets)     Author: Roland Lindh, 1990

 Geometry written to block  1 of record 700


 Point group  C1  



 ATOMIC COORDINATES

 NR  ATOM    CHARGE       X              Y              Z

   1  H1      0.00    0.056132179    9.413439122   -1.483457817
   2  H2      0.00    0.025798106    9.549302985    1.378445264
   3  C1      6.00    0.000000000    0.166779669    0.000000000
   4  O1      8.00    0.000000000    2.319083238    0.000000000
   5  O2      0.00    0.000000000    8.366206837    0.000000000

 Bond lengths in Bohr (Angstrom)

 1-5  1.816726004  2-5  1.816726007  3-4  2.152303570
     ( 0.961370000)     ( 0.961370001)     ( 1.138950000)

 Bond angles

  1-5-2  104.10700007

 NUCLEAR CHARGE:                   14
 NUMBER OF PRIMITIVE AOS:         133
 NUMBER OF SYMMETRY AOS:          127
 NUMBER OF CONTRACTIONS:           87   (   87A   )
 NUMBER OF CORE ORBITALS:           2   (    2A   )
 NUMBER OF VALENCE ORBITALS:        8   (    8A   )

 MOLECULE CHANGED: INITIALIZING OCCUPATION AND DUMP RECORDS


 NUCLEAR REPULSION ENERGY   22.30168675


 Eigenvalues of metric

         1 0.202E-02 0.259E-02 0.266E-02 0.560E-02 0.104E-01 0.120E-01 0.153E-01 0.162E-01


 OPERATOR DM      FOR CENTER  0  COORDINATES:    0.000000    0.000000    0.000000


 **********************************************************************************************************************************
 DATASETS  * FILE   NREC   LENGTH (MB)   RECORD NAMES
              1      19       30.31       500      610      700      900      950      970     1000      129      960     1100   
                                          VAR    BASINP    GEOM    SYMINP    ZMAT    AOBASIS   BASIS     P2S    ABASIS      S 
                                         1400     1410     1200     1210     1080     1600     1650     1700     1800   
                                           T        V       H0       H01     AOSYM     SMH    MOLCAS    OPER     GRID   

              2       6        5.78       700     1000      520     1800     2101     2201   
                                         GEOM     BASIS   MCVARS    GRID      RKS      RKS  

 PROGRAMS   *        TOTAL       INT   RKS-SCF       INT   RKS-SCF       INT
 CPU TIMES  *        87.75      0.03     42.76      0.02     44.40      0.33
 REAL TIME  *        93.31 SEC
 DISK USED  *        36.59 MB (local),      146.38 MB (total)
 SF USED    *         0.09 MB
 GA USED    *         1.72 MB       (max)       1.72 MB       (current)
 **********************************************************************************************************************************

 Density functional group PBE=PBEX+PBEC
 Functional: PBEX(Automatically generated (new) PBEX)                          Gradient terms: 1
 Functional: PBEC(Automatically generated (new) PBEC)                          Gradient terms: 1
 Use libxcgrid:  F
 Use grid at  1800.2

 Functional: PBEX                      Factor:  1.0000
 Functional: PBEC                      Factor:  1.0000

 Generated new metagrid on record  1800.2 with target accuracy 1.0D-08 and 51764 points in CPU time    0.1
 Computed new grid on record 1800.1 in CPU time    0.1
   73211 words reserved for DFT integration

 PROGRAM * RKS-SCF (Restricted closed shell Kohn-Sham)     Authors: W. Meyer, H.-J. Werner, P.J. Knowles, 1993

 NUMBER OF ELECTRONS:       7+    7-    SPACE SYMMETRY=1    SPIN SYMMETRY: Singlet 
 CONVERGENCE THRESHOLDS:    1.00E-04 (Density)    1.00E-08 (Energy)
 INTEGRAL THRESHOLDS:       1.00E-11 (Initial)    1.00E-11 (Final)
 MAX. NUMBER OF ITERATIONS:       60
 INTERPOLATION TYPE:            DIIS
 INTERPOLATION STEPS:              2 (START)      1 (STEP)
 LEVEL SHIFTS:                  0.00 (CLOSED)  0.00 (OPEN) 



 Use fine grid record 1800.2 for energy threshold  1.0D-08
 Orbital guess generated from atomic densities. Full valence occupancy:   10

 Molecular orbital dump at record        2301.2

 Initial occupancy:   7

 Direct Fock-matrix evaluation.        Authors: Roland Lindh & Martin Schuetz (1993/96)

 Integral Threshold:                  0.1D-10
 Threshold for writing integrals:     0.1D-06
 Prescreening on density matrix:        ON 
 Calculation will be performed fully direct        

 ITERATION   DDIFF            GRAD            ENERGY        2-EL.EN.            DIPOLE MOMENTS         DIIS   CPU(IT)  CPU(TOT)
    1      0.000D+00      0.000D+00      -113.19017012    154.121925   -0.00000   -0.03533    0.00001    0      7.7     15.5     start
    2      0.000D+00      0.571D-02      -113.13057947    148.644935   -0.00000    0.79311    0.00001    1      3.9     19.4     diag
    3      0.131D-01      0.133D-01      -113.19885796    152.086247   -0.00000   -0.14451    0.00001    2      3.9     23.3     diag
    4      0.101D-01      0.309D-02      -113.20392566    152.098194   -0.00000    0.08146    0.00001    3      3.9     27.1     diag
    5      0.302D-02      0.160D-03      -113.20393998    152.044036   -0.00000    0.08027    0.00001    4      3.9     31.0     diag
    6      0.185D-03      0.481D-04      -113.20394110    152.049275   -0.00000    0.07746    0.00001    5      3.9     34.9     diag
    7      0.317D-04      0.760D-05      -113.20394112    152.050924   -0.00000    0.07701    0.00001    6      3.9     38.8     diag
    8      0.448D-05      0.589D-06      -113.20394112    152.051409   -0.00000    0.07686    0.00001    0      3.7     42.5     orth

 Final occupancy:   7

 !RKS STATE  1.1 Energy              -113.203941119125
 Nuclear energy                        22.30168675
 One-electron energy                 -197.78933060
 Two-electron energy                   76.02570441
 Density functional                   -13.74200168     PBEX=-13.29276568 PBEC= -0.44923600
 Virial quotient                       -1.00516039
 !RKS STATE  1.1 Dipole moment         -0.00000353     0.07685633     0.00000779
 Dipole moment /Debye                  -0.00000898     0.19533651     0.00001979

 Orbital energies:

         1.1          2.1          3.1          4.1          5.1          6.1          7.1          8.1          9.1
    -18.881188   -10.016016    -1.078104    -0.521815    -0.432620    -0.432619    -0.332873    -0.077318    -0.077309


 HOMO      7.1    -0.332873 =      -9.0579eV
 LUMO      8.1    -0.077318 =      -2.1039eV
 LUMO-HOMO         0.255555 =       6.9540eV


 **********************************************************************************************************************************
 DATASETS  * FILE   NREC   LENGTH (MB)   RECORD NAMES
              1      19       30.31       500      610      700      900      950      970     1000      129      960     1100   
                                          VAR    BASINP    GEOM    SYMINP    ZMAT    AOBASIS   BASIS     P2S    ABASIS      S 
                                         1400     1410     1200     1210     1080     1600     1650     1700     1800   
                                           T        V       H0       H01     AOSYM     SMH    MOLCAS    OPER     GRID   

              2       7        8.57       700     1000      520     1800     2101     2201     2301   
                                         GEOM     BASIS   MCVARS    GRID      RKS      RKS      RKS  

 PROGRAMS   *        TOTAL   RKS-SCF       INT   RKS-SCF       INT   RKS-SCF       INT
 CPU TIMES  *       130.40     42.64      0.03     42.76      0.02     44.40      0.33
 REAL TIME  *       136.60 SEC
 DISK USED  *        39.39 MB (local),      157.56 MB (total)
 SF USED    *         0.09 MB
 GA USED    *         1.72 MB       (max)       1.72 MB       (current)
 **********************************************************************************************************************************
 SETTING EB_PBE         =      -113.20394112  AU                              
 SETTING E_AB_INT       =         0.00040754  AU                              

 *** results in hartree
 E_AB_INT         =         0.00040754 AU
 Molecular orbitals read from record     2301.2  Type=RKS/CANONICAL (state 1.1)
 Occupation numbers read from record     2301.2  Type=RKS/RHF (state 1.1)
 Orbital energies read from record       2301.2  Type=RKS/CANONICAL (state 1.1)
 Redundancy group numbers read from rec  2301.2  Type=RKS/RHF (state 1.1)

 RPBE/aug-cc-pVDZ energy=   -113.203941119125

         RKS-SCF         RKS-SCF         RKS-SCF
   -113.20394112    -76.35918076   -189.56271434
 **********************************************************************************************************************************
 Molpro calculation terminated
