
 Primary working directories    : /scratch/sirous/753882/molpro.Iz480dwcQx
 Secondary working directories  : /scratch/sirous/753882/molpro.Iz480dwcQx
 Wavefunction directory         : /scratch/sirous/753882/
 Main file repository           : /scratch/sirous/753882/molpro.Iz480dwcQx/

 id        : karlovklimes

 Nodes                      nprocs
 nc-22.cc.karlov.mff.cuni.cz    4

 Using customized tuning parameters: mindgm=1; mindgv=20; mindgc=4; mindgr=1; noblas=0; minvec=7
 default implementation of scratch files=sf  


 Variables initialized (934), CPU time= 0.01 sec
 ***,CH3C6H4CN+CF3CN+BF3
 memory,1000,m
 gdirect
 gthresh,energy=1.d-8,twoint=1.d-19,oneint=1.d-19,zero=1.d-15,orbital=1.d-8,grid=1.d-8,THROVL=1.d-8
 symmetry,nosym
 geomtyp=xyz
                                                                                 ! Geometry
 geometry={
 H1        0.02970387    6.08137746     -0.78501207
 H2        0.01365177    6.15327352     0.72944182
 C1        0.00000000    0.08825600     0.00000000
 O1        0.00000000    1.22720600     0.00000000
 O2        0.00000000    5.52720600     0.00000000
 }
 
 
 
 basis=avdz
 
 
 
                                                                                 ! Dimer Calculation
 {rks,pbe,accu=1.d-8;orbital,2101.2}
 eab_PBE=energy
 
 
                                                                                 !monomer A
 dummy,3,4;                                                                      ! NOW MONOMER B IS DUMMY
 {rks,pbe,accu=1.d-8;orbital,2201.2}
 ea_PBE=energy
                                                                                 !monomer B
 dummy,1,2,5;                                                                    !NOW MONOMER A IS DUMMY
 {rks,pbe,accu=1.d-8;orbital,2301.2}
 eb_PBE=energy
 
 E_AB_int=eab_PBE-ea_PBE-eb_PBE
 
 
 text,results in hartree
 show,E_AB_int
 
 Commands  initialized (763), CPU time= 0.01 sec, 617 directives.
 Default parameters read. Elapsed time= 0.18 sec

 Checking input...
 Passed
1


                                         ***  PROGRAM SYSTEM MOLPRO  ***
                                       Copyright, TTI GmbH Stuttgart, 2015
                                    Version 2019.2 linked Jun  8 2019 11:26:33


 **********************************************************************************************************************************
 LABEL *   CH3C6H4CN+CF3CN+BF3                                                           
  64 bit mpp version                                                                     DATE: 23-Jul-20          TIME: 10:09:53  
 **********************************************************************************************************************************

 SHA1:             8135a10abc80eafa5b3ae28ffc55be4890dc4c84
 **********************************************************************************************************************************

 THRESHOLDS:

 ZERO    =  1.00D-15  ONEINT  =  1.00D-19  TWOINT  =  1.00D-19  PREFAC  =  1.00D-14  XXXXXX  =  1.00D-09  EORDER  =  1.00D-04
 ENERGY  =  1.00D-08  ETEST   =  0.00D+00  EDENS   =  0.00D+00  THRDEDEF=  1.00D-06  GRADIENT=  1.00D-02  STEP    =  1.00D-03
 ORBITAL =  1.00D-08  CIVEC   =  1.00D-05  COEFF   =  1.00D-04  PRINTCI =  5.00D-02  PUNCHCI =  9.90D+01  OPTGRAD =  3.00D-04
 OPTENERG=  1.00D-06  OPTSTEP =  3.00D-04  THRGRAD =  1.00D-10  COMPRESS=  1.00D-11  VARMIN  =  1.00D-07  VARMAX  =  1.00D-03
 THRDOUB =  0.00D+00  THRDIV  =  1.00D-05  THRRED  =  1.00D-07  THRPSP  =  1.00D+00  THRDC   =  1.00D-10  THRCS   =  1.00D-10
 THRNRM  =  1.00D-08  THREQ   =  0.00D+00  THRDE   =  1.00D+00  THRREF  =  1.00D-05  SPARFAC =  1.00D+00  THRDLP  =  1.00D-07
 THRDIA  =  1.00D-10  THRDLS  =  1.00D-07  THRGPS  =  0.00D+00  THRKEX  =  0.00D+00  THRDIS  =  2.00D-01  THRVAR  =  1.00D-10
 THRLOC  =  1.00D-06  THRGAP  =  1.00D-06  THRLOCT = -1.00D+00  THRGAPT = -1.00D+00  THRORB  =  1.00D-06  THRMLTP =  0.00D+00
 THRCPQCI=  1.00D-10  KEXTA   =  0.00D+00  THRCOARS=  0.00D+00  SYMTOL  =  1.00D-06  GRADTOL =  1.00D-06  THROVL  =  1.00D-08
 THRORTH =  1.00D-08  GRID    =  1.00D-08  GRIDMAX =  1.00D-03  DTMAX   =  0.00D+00  THROCCDE=  1.00D-01  THROCCDE=  1.00D-01
 THRPRINT=  2.50D-01


 Variable memory set to 1000000000 words,  buffer space 

 SETTING GEOMTYP        =    XYZ
 ZSYMEL=NOSYM

 SETTING BASIS          =    AVDZ


 Recomputing integrals since basis changed


 Using spherical harmonics

 Library entry H      S aug-cc-pVDZ          selected for orbital group  1
 Library entry H      P aug-cc-pVDZ          selected for orbital group  1
 Library entry C      S aug-cc-pVDZ          selected for orbital group  2
 Library entry C      P aug-cc-pVDZ          selected for orbital group  2
 Library entry C      D aug-cc-pVDZ          selected for orbital group  2
 Library entry O      S aug-cc-pVDZ          selected for orbital group  3
 Library entry O      P aug-cc-pVDZ          selected for orbital group  3
 Library entry O      D aug-cc-pVDZ          selected for orbital group  3


 PROGRAM * SEWARD (Integral evaluation for generally contracted gaussian basis sets)     Author: Roland Lindh, 1990

 Geometry written to block  1 of record 700


 Point group  C1  



 ATOMIC COORDINATES

 NR  ATOM    CHARGE       X              Y              Z

   1  H1      1.00    0.056132179   11.492137860   -1.483457817
   2  H2      1.00    0.025798106   11.628001722    1.378445264
   3  C1      6.00    0.000000000    0.166779669    0.000000000
   4  O1      8.00    0.000000000    2.319083238    0.000000000
   5  O2      8.00    0.000000000   10.444905574    0.000000000

 Bond lengths in Bohr (Angstrom)

 1-5  1.816726004  2-5  1.816726007  3-4  2.152303570
     ( 0.961370000)     ( 0.961370001)     ( 1.138950000)

 Bond angles

  1-5-2  104.10700007

 NUCLEAR CHARGE:                   24
 NUMBER OF PRIMITIVE AOS:         133
 NUMBER OF SYMMETRY AOS:          127
 NUMBER OF CONTRACTIONS:           87   (   87A   )
 NUMBER OF CORE ORBITALS:           3   (    3A   )
 NUMBER OF VALENCE ORBITALS:       14   (   14A   )


 NUCLEAR REPULSION ENERGY   46.76006663


 Eigenvalues of metric

         1 0.207E-02 0.282E-02 0.290E-02 0.779E-02 0.108E-01 0.120E-01 0.163E-01 0.242E-01


 OPERATOR DM      FOR CENTER  0  COORDINATES:    0.000000    0.000000    0.000000


 **********************************************************************************************************************************
 DATASETS  * FILE   NREC   LENGTH (MB)   RECORD NAMES
              1      18       30.31       500      610      700      900      950      970     1000      129      960     1100   
                                          VAR    BASINP    GEOM    SYMINP    ZMAT    AOBASIS   BASIS     P2S    ABASIS      S 
                                         1400     1410     1200     1210     1080     1600     1650     1700   
                                           T        V       H0       H01     AOSYM     SMH    MOLCAS    OPER   

 PROGRAMS   *        TOTAL       INT
 CPU TIMES  *         0.51      0.33
 REAL TIME  *         1.64 SEC
 DISK USED  *        30.66 MB (local),      122.65 MB (total)
 GA USED    *         0.00 MB       (max)       0.00 MB       (current)
 **********************************************************************************************************************************

 Density functional group PBE=PBEX+PBEC
 Functional: PBEX(Automatically generated (new) PBEX)                          Gradient terms: 1
 Functional: PBEC(Automatically generated (new) PBEC)                          Gradient terms: 1
 Use libxcgrid:  F
 Use grid at  1800.2

 Functional: PBEX                      Factor:  1.0000
 Functional: PBEC                      Factor:  1.0000

 Generated new metagrid on record  1800.2 with target accuracy 1.0D-08 and 51764 points in CPU time    0.2
 Computed new grid on record 1800.1 in CPU time    0.2
   73211 words reserved for DFT integration

 PROGRAM * RKS-SCF (Restricted closed shell Kohn-Sham)     Authors: W. Meyer, H.-J. Werner, P.J. Knowles, 1993

 NUMBER OF ELECTRONS:      12+   12-    SPACE SYMMETRY=1    SPIN SYMMETRY: Singlet 
 CONVERGENCE THRESHOLDS:    1.00E-04 (Density)    1.00E-08 (Energy)
 INTEGRAL THRESHOLDS:       1.00E-11 (Initial)    1.00E-11 (Final)
 MAX. NUMBER OF ITERATIONS:       60
 INTERPOLATION TYPE:            DIIS
 INTERPOLATION STEPS:              2 (START)      1 (STEP)
 LEVEL SHIFTS:                  0.00 (CLOSED)  0.00 (OPEN) 



 Use fine grid record 1800.2 for energy threshold  1.0D-08
 Orbital guess generated from atomic densities. Full valence occupancy:   17

 Molecular orbital dump at record        2101.2

 Initial occupancy:  12

 Direct Fock-matrix evaluation.        Authors: Roland Lindh & Martin Schuetz (1993/96)

 Integral Threshold:                  0.1D-10
 Threshold for writing integrals:     0.1D-06
 Prescreening on density matrix:        ON 
 Calculation will be performed fully direct        

 ITERATION   DDIFF            GRAD            ENERGY        2-EL.EN.            DIPOLE MOMENTS         DIIS   CPU(IT)  CPU(TOT)
    1      0.000D+00      0.000D+00      -189.47376679    282.806819    0.03999    1.05194   -0.05122    0      7.8     13.4     start
    2      0.000D+00      0.113D-01      -189.08515550    261.589850   -0.01106    0.59579    0.01484    1      3.9     17.3     diag
    3      0.328D-01      0.259D-01      -189.55442698    276.395272    0.02614    0.53285   -0.03296    2      3.9     21.3     diag
    4      0.229D-01      0.324D-02      -189.55900254    275.774258    0.02717    1.00226   -0.03446    3      3.9     25.2     diag
    5      0.509D-02      0.241D-02      -189.56285008    276.034019    0.02591    0.82485   -0.03288    4      3.9     29.1     diag
    6      0.206D-02      0.294D-03      -189.56293055    275.945669    0.02591    0.81183   -0.03283    5      3.9     33.0     diag
    7      0.489D-03      0.468D-04      -189.56293210    275.969404    0.02593    0.80964   -0.03287    6      3.9     36.9     diag
    8      0.407D-04      0.690D-05      -189.56293213    275.971476    0.02595    0.81001   -0.03288    7      3.9     40.8     diag
    9      0.585D-05      0.568D-06      -189.56293213    275.971877    0.02595    0.81005   -0.03288    0      3.7     44.5     orth

 Final occupancy:  12

 !RKS STATE  1.1 Energy              -189.562932130532
 Nuclear energy                        46.76006663
 One-electron energy                 -351.33935733
 Two-electron energy                  137.98593839
 Density functional                   -22.96957983     PBEX=-22.19489740 PBEC= -0.77468243
 Virial quotient                       -1.00536951
 !RKS STATE  1.1 Dipole moment          0.02594716     0.81005493    -0.03288166
 Dipole moment /Debye                   0.06594679     2.05881940    -0.08357137

 Orbital energies:

         1.1          2.1          3.1          4.1          5.1          6.1          7.1          8.1          9.1         10.1
    -18.873187   -18.779313   -10.007907    -1.069900    -0.933910    -0.512563    -0.484154    -0.424458    -0.424416    -0.343746

        11.1         12.1         13.1         14.1
     -0.325777    -0.265298    -0.069981    -0.069935


 HOMO     12.1    -0.265298 =      -7.2191eV
 LUMO     13.1    -0.069981 =      -1.9043eV
 LUMO-HOMO         0.195317 =       5.3148eV


 **********************************************************************************************************************************
 DATASETS  * FILE   NREC   LENGTH (MB)   RECORD NAMES
              1      19       30.31       500      610      700      900      950      970     1000      129      960     1100   
                                          VAR    BASINP    GEOM    SYMINP    ZMAT    AOBASIS   BASIS     P2S    ABASIS      S 
                                         1400     1410     1200     1210     1080     1600     1650     1700     1800   
                                           T        V       H0       H01     AOSYM     SMH    MOLCAS    OPER     GRID   

              2       5        2.98       700     1000      520     1800     2101   
                                         GEOM     BASIS   MCVARS    GRID      RKS  

 PROGRAMS   *        TOTAL   RKS-SCF       INT
 CPU TIMES  *        45.21     44.69      0.33
 REAL TIME  *        49.72 SEC
 DISK USED  *        33.83 MB (local),      135.32 MB (total)
 SF USED    *         0.09 MB
 GA USED    *         1.72 MB       (max)       1.72 MB       (current)
 **********************************************************************************************************************************
 SETTING EAB_PBE        =      -189.56293213  AU                              

 Dummy atoms: C1  O1


 Recomputing one-electron integrals since nuclear charges changed


 PROGRAM * SEWARD (Integral evaluation for generally contracted gaussian basis sets)     Author: Roland Lindh, 1990

 Geometry written to block  1 of record 700


 Point group  C1  



 ATOMIC COORDINATES

 NR  ATOM    CHARGE       X              Y              Z

   1  H1      1.00    0.056132179   11.492137860   -1.483457817
   2  H2      1.00    0.025798106   11.628001722    1.378445264
   3  C1      0.00    0.000000000    0.166779669    0.000000000
   4  O1      0.00    0.000000000    2.319083238    0.000000000
   5  O2      8.00    0.000000000   10.444905574    0.000000000

 Bond lengths in Bohr (Angstrom)

 1-5  1.816726004  2-5  1.816726007  3-4  2.152303570
     ( 0.961370000)     ( 0.961370001)     ( 1.138950000)

 Bond angles

  1-5-2  104.10700007

 NUCLEAR CHARGE:                   10
 NUMBER OF PRIMITIVE AOS:         133
 NUMBER OF SYMMETRY AOS:          127
 NUMBER OF CONTRACTIONS:           87   (   87A   )
 NUMBER OF CORE ORBITALS:           1   (    1A   )
 NUMBER OF VALENCE ORBITALS:        6   (    6A   )

 MOLECULE CHANGED: INITIALIZING OCCUPATION AND DUMP RECORDS


 NUCLEAR REPULSION ENERGY    9.15605698


 Eigenvalues of metric

         1 0.207E-02 0.282E-02 0.290E-02 0.779E-02 0.108E-01 0.120E-01 0.163E-01 0.242E-01


 OPERATOR DM      FOR CENTER  0  COORDINATES:    0.000000    0.000000    0.000000


 **********************************************************************************************************************************
 DATASETS  * FILE   NREC   LENGTH (MB)   RECORD NAMES
              1      19       30.31       500      610      700      900      950      970     1000      129      960     1100   
                                          VAR    BASINP    GEOM    SYMINP    ZMAT    AOBASIS   BASIS     P2S    ABASIS      S 
                                         1400     1410     1200     1210     1080     1600     1650     1700     1800   
                                           T        V       H0       H01     AOSYM     SMH    MOLCAS    OPER     GRID   

              2       5        2.98       700     1000      520     1800     2101   
                                         GEOM     BASIS   MCVARS    GRID      RKS  

 PROGRAMS   *        TOTAL       INT   RKS-SCF       INT
 CPU TIMES  *        45.25      0.03     44.69      0.33
 REAL TIME  *        49.78 SEC
 DISK USED  *        33.83 MB (local),      135.32 MB (total)
 SF USED    *         0.09 MB
 GA USED    *         1.72 MB       (max)       1.72 MB       (current)
 **********************************************************************************************************************************

 Density functional group PBE=PBEX+PBEC
 Functional: PBEX(Automatically generated (new) PBEX)                          Gradient terms: 1
 Functional: PBEC(Automatically generated (new) PBEC)                          Gradient terms: 1
 Use libxcgrid:  F
 Use grid at  1800.2

 Functional: PBEX                      Factor:  1.0000
 Functional: PBEC                      Factor:  1.0000

 Generated new metagrid on record  1800.2 with target accuracy 1.0D-08 and 51764 points in CPU time    0.1
 Computed new grid on record 1800.1 in CPU time    0.2
   73211 words reserved for DFT integration

 PROGRAM * RKS-SCF (Restricted closed shell Kohn-Sham)     Authors: W. Meyer, H.-J. Werner, P.J. Knowles, 1993

 NUMBER OF ELECTRONS:       5+    5-    SPACE SYMMETRY=1    SPIN SYMMETRY: Singlet 
 CONVERGENCE THRESHOLDS:    1.00E-04 (Density)    1.00E-08 (Energy)
 INTEGRAL THRESHOLDS:       1.00E-11 (Initial)    1.00E-11 (Final)
 MAX. NUMBER OF ITERATIONS:       60
 INTERPOLATION TYPE:            DIIS
 INTERPOLATION STEPS:              2 (START)      1 (STEP)
 LEVEL SHIFTS:                  0.00 (CLOSED)  0.00 (OPEN) 



 Use fine grid record 1800.2 for energy threshold  1.0D-08
 Orbital guess generated from atomic densities. Full valence occupancy:    7

 Molecular orbital dump at record        2201.2

 Initial occupancy:   5

 Direct Fock-matrix evaluation.        Authors: Roland Lindh & Martin Schuetz (1993/96)

 Integral Threshold:                  0.1D-10
 Threshold for writing integrals:     0.1D-06
 Prescreening on density matrix:        ON 
 Calculation will be performed fully direct        

 ITERATION   DDIFF            GRAD            ENERGY        2-EL.EN.            DIPOLE MOMENTS         DIIS   CPU(IT)  CPU(TOT)
    1      0.000D+00      0.000D+00       -76.28420421     97.670511    0.03999    1.08725   -0.05122    0      7.8     15.5     start
    2      0.000D+00      0.153D-01       -75.96841090     82.762841   -0.01034   -0.28523    0.01339    1      3.9     19.4     diag
    3      0.299D-01      0.344D-01       -76.35895679     93.306303    0.02668    0.72387   -0.03414    2      3.9     23.4     diag
    4      0.202D-01      0.649D-03       -76.35914423     93.041243    0.02619    0.71027   -0.03351    3      3.9     27.3     diag
    5      0.594D-03      0.169D-03       -76.35915225     93.071691    0.02607    0.70696   -0.03335    4      3.9     31.2     diag
    6      0.998D-04      0.442D-04       -76.35915290     93.083222    0.02613    0.70869   -0.03343    5      3.9     35.1     diag
    7      0.282D-04      0.153D-05       -76.35915290     93.083637    0.02613    0.70869   -0.03343    6      3.9     39.0     diag
    8      0.101D-05      0.908D-07       -76.35915290     93.083714    0.02613    0.70870   -0.03343    0      3.6     42.6     orth

 Final occupancy:   5

 !RKS STATE  1.1 Energy               -76.359152900580
 Nuclear energy                         9.15605698
 One-electron energy                 -122.82875678
 Two-electron energy                   46.54185689
 Density functional                    -9.22831000     PBEX=-8.90286189 PBEC=-0.32544810
 Virial quotient                       -1.00566061
 !RKS STATE  1.1 Dipole moment          0.02613152     0.70870008    -0.03343072
 Dipole moment /Debye                   0.06641534     1.80121794    -0.08496685

 Orbital energies:

         1.1          2.1          3.1          4.1          5.1          6.1          7.1
    -18.779539    -0.934132    -0.484367    -0.344057    -0.265530    -0.034674     0.018941


 HOMO      5.1    -0.265530 =      -7.2255eV
 LUMO      6.1    -0.034674 =      -0.9435eV
 LUMO-HOMO         0.230857 =       6.2819eV


 **********************************************************************************************************************************
 DATASETS  * FILE   NREC   LENGTH (MB)   RECORD NAMES
              1      19       30.31       500      610      700      900      950      970     1000      129      960     1100   
                                          VAR    BASINP    GEOM    SYMINP    ZMAT    AOBASIS   BASIS     P2S    ABASIS      S 
                                         1400     1410     1200     1210     1080     1600     1650     1700     1800   
                                           T        V       H0       H01     AOSYM     SMH    MOLCAS    OPER     GRID   

              2       6        5.78       700     1000      520     1800     2101     2201   
                                         GEOM     BASIS   MCVARS    GRID      RKS      RKS  

 PROGRAMS   *        TOTAL   RKS-SCF       INT   RKS-SCF       INT
 CPU TIMES  *        88.07     42.82      0.03     44.69      0.33
 REAL TIME  *        93.25 SEC
 DISK USED  *        36.59 MB (local),      146.38 MB (total)
 SF USED    *         0.09 MB
 GA USED    *         1.72 MB       (max)       1.72 MB       (current)
 **********************************************************************************************************************************
 SETTING EA_PBE         =       -76.35915290  AU                              

 Dummy atoms: H1  H2  O2


 Recomputing one-electron integrals since nuclear charges changed


 PROGRAM * SEWARD (Integral evaluation for generally contracted gaussian basis sets)     Author: Roland Lindh, 1990

 Geometry written to block  1 of record 700


 Point group  C1  



 ATOMIC COORDINATES

 NR  ATOM    CHARGE       X              Y              Z

   1  H1      0.00    0.056132179   11.492137860   -1.483457817
   2  H2      0.00    0.025798106   11.628001722    1.378445264
   3  C1      6.00    0.000000000    0.166779669    0.000000000
   4  O1      8.00    0.000000000    2.319083238    0.000000000
   5  O2      0.00    0.000000000   10.444905574    0.000000000

 Bond lengths in Bohr (Angstrom)

 1-5  1.816726004  2-5  1.816726007  3-4  2.152303570
     ( 0.961370000)     ( 0.961370001)     ( 1.138950000)

 Bond angles

  1-5-2  104.10700007

 NUCLEAR CHARGE:                   14
 NUMBER OF PRIMITIVE AOS:         133
 NUMBER OF SYMMETRY AOS:          127
 NUMBER OF CONTRACTIONS:           87   (   87A   )
 NUMBER OF CORE ORBITALS:           2   (    2A   )
 NUMBER OF VALENCE ORBITALS:        8   (    8A   )

 MOLECULE CHANGED: INITIALIZING OCCUPATION AND DUMP RECORDS


 NUCLEAR REPULSION ENERGY   22.30168675


 Eigenvalues of metric

         1 0.207E-02 0.282E-02 0.290E-02 0.779E-02 0.108E-01 0.120E-01 0.163E-01 0.242E-01


 OPERATOR DM      FOR CENTER  0  COORDINATES:    0.000000    0.000000    0.000000


 **********************************************************************************************************************************
 DATASETS  * FILE   NREC   LENGTH (MB)   RECORD NAMES
              1      19       30.31       500      610      700      900      950      970     1000      129      960     1100   
                                          VAR    BASINP    GEOM    SYMINP    ZMAT    AOBASIS   BASIS     P2S    ABASIS      S 
                                         1400     1410     1200     1210     1080     1600     1650     1700     1800   
                                           T        V       H0       H01     AOSYM     SMH    MOLCAS    OPER     GRID   

              2       6        5.78       700     1000      520     1800     2101     2201   
                                         GEOM     BASIS   MCVARS    GRID      RKS      RKS  

 PROGRAMS   *        TOTAL       INT   RKS-SCF       INT   RKS-SCF       INT
 CPU TIMES  *        88.11      0.03     42.82      0.03     44.69      0.33
 REAL TIME  *        93.30 SEC
 DISK USED  *        36.59 MB (local),      146.38 MB (total)
 SF USED    *         0.09 MB
 GA USED    *         1.72 MB       (max)       1.72 MB       (current)
 **********************************************************************************************************************************

 Density functional group PBE=PBEX+PBEC
 Functional: PBEX(Automatically generated (new) PBEX)                          Gradient terms: 1
 Functional: PBEC(Automatically generated (new) PBEC)                          Gradient terms: 1
 Use libxcgrid:  F
 Use grid at  1800.2

 Functional: PBEX                      Factor:  1.0000
 Functional: PBEC                      Factor:  1.0000

 Generated new metagrid on record  1800.2 with target accuracy 1.0D-08 and 51764 points in CPU time    0.2
 Computed new grid on record 1800.1 in CPU time    0.2
   73211 words reserved for DFT integration

 PROGRAM * RKS-SCF (Restricted closed shell Kohn-Sham)     Authors: W. Meyer, H.-J. Werner, P.J. Knowles, 1993

 NUMBER OF ELECTRONS:       7+    7-    SPACE SYMMETRY=1    SPIN SYMMETRY: Singlet 
 CONVERGENCE THRESHOLDS:    1.00E-04 (Density)    1.00E-08 (Energy)
 INTEGRAL THRESHOLDS:       1.00E-11 (Initial)    1.00E-11 (Final)
 MAX. NUMBER OF ITERATIONS:       60
 INTERPOLATION TYPE:            DIIS
 INTERPOLATION STEPS:              2 (START)      1 (STEP)
 LEVEL SHIFTS:                  0.00 (CLOSED)  0.00 (OPEN) 



 Use fine grid record 1800.2 for energy threshold  1.0D-08
 Orbital guess generated from atomic densities. Full valence occupancy:   10

 Molecular orbital dump at record        2301.2

 Initial occupancy:   7

 Direct Fock-matrix evaluation.        Authors: Roland Lindh & Martin Schuetz (1993/96)

 Integral Threshold:                  0.1D-10
 Threshold for writing integrals:     0.1D-06
 Prescreening on density matrix:        ON 
 Calculation will be performed fully direct        

 ITERATION   DDIFF            GRAD            ENERGY        2-EL.EN.            DIPOLE MOMENTS         DIIS   CPU(IT)  CPU(TOT)
    1      0.000D+00      0.000D+00      -113.19009695    154.121910    0.00000   -0.03538   -0.00000    0      7.8     15.6     start
    2      0.000D+00      0.570D-02      -113.13046907    148.645157    0.00000    0.79312    0.00000    1      3.9     19.5     diag
    3      0.131D-01      0.133D-01      -113.19878978    152.086419    0.00000   -0.14466    0.00000    2      3.9     23.4     diag
    4      0.101D-01      0.309D-02      -113.20385185    152.098350    0.00000    0.08128   -0.00000    3      3.9     27.3     diag
    5      0.304D-02      0.160D-03      -113.20386614    152.044258    0.00000    0.08009   -0.00000    4      3.9     31.2     diag
    6      0.185D-03      0.480D-04      -113.20386725    152.049491    0.00000    0.07729   -0.00000    5      3.9     35.1     diag
    7      0.318D-04      0.760D-05      -113.20386728    152.051141    0.00000    0.07684   -0.00000    6      3.9     39.0     diag
    8      0.447D-05      0.590D-06      -113.20386728    152.051627    0.00000    0.07669   -0.00000    0      3.5     42.5     orth

 Final occupancy:   7

 !RKS STATE  1.1 Energy              -113.203867278261
 Nuclear energy                        22.30168675
 One-electron energy                 -197.78934525
 Two-electron energy                   76.02581328
 Density functional                   -13.74202206     PBEX=-13.29278642 PBEC= -0.44923564
 Virial quotient                       -1.00515635
 !RKS STATE  1.1 Dipole moment          0.00000077     0.07668638    -0.00000010
 Dipole moment /Debye                   0.00000196     0.19490457    -0.00000026

 Orbital energies:

         1.1          2.1          3.1          4.1          5.1          6.1          7.1          8.1          9.1
    -18.881127   -10.015976    -1.078099    -0.521817    -0.432625    -0.432624    -0.332882    -0.077306    -0.077303


 HOMO      7.1    -0.332882 =      -9.0582eV
 LUMO      8.1    -0.077306 =      -2.1036eV
 LUMO-HOMO         0.255575 =       6.9546eV


 **********************************************************************************************************************************
 DATASETS  * FILE   NREC   LENGTH (MB)   RECORD NAMES
              1      19       30.31       500      610      700      900      950      970     1000      129      960     1100   
                                          VAR    BASINP    GEOM    SYMINP    ZMAT    AOBASIS   BASIS     P2S    ABASIS      S 
                                         1400     1410     1200     1210     1080     1600     1650     1700     1800   
                                           T        V       H0       H01     AOSYM     SMH    MOLCAS    OPER     GRID   

              2       7        8.57       700     1000      520     1800     2101     2201     2301   
                                         GEOM     BASIS   MCVARS    GRID      RKS      RKS      RKS  

 PROGRAMS   *        TOTAL   RKS-SCF       INT   RKS-SCF       INT   RKS-SCF       INT
 CPU TIMES  *       130.83     42.72      0.03     42.82      0.03     44.69      0.33
 REAL TIME  *       136.58 SEC
 DISK USED  *        39.39 MB (local),      157.56 MB (total)
 SF USED    *         0.09 MB
 GA USED    *         1.72 MB       (max)       1.72 MB       (current)
 **********************************************************************************************************************************
 SETTING EB_PBE         =      -113.20386728  AU                              
 SETTING E_AB_INT       =     8.80483088D-05  AU                              

 *** results in hartree
 E_AB_INT         =         0.00008805 AU
 Molecular orbitals read from record     2301.2  Type=RKS/CANONICAL (state 1.1)
 Occupation numbers read from record     2301.2  Type=RKS/RHF (state 1.1)
 Orbital energies read from record       2301.2  Type=RKS/CANONICAL (state 1.1)
 Redundancy group numbers read from rec  2301.2  Type=RKS/RHF (state 1.1)

 RPBE/aug-cc-pVDZ energy=   -113.203867278261

         RKS-SCF         RKS-SCF         RKS-SCF
   -113.20386728    -76.35915290   -189.56293213
 **********************************************************************************************************************************
 Molpro calculation terminated
