
     Program PWSCF v.7.2 starts on 12Oct2023 at 17:36:14 

     This program is part of the open-source Quantum ESPRESSO suite
     for quantum simulation of materials; please cite
         "P. Giannozzi et al., J. Phys.:Condens. Matter 21 395502 (2009);
         "P. Giannozzi et al., J. Phys.:Condens. Matter 29 465901 (2017);
         "P. Giannozzi et al., J. Chem. Phys. 152 154105 (2020);
          URL http://www.quantum-espresso.org", 
     in publications or presentations arising from this work. More details at
     http://www.quantum-espresso.org/quote

     Parallel version (MPI), running on    32 processors

     MPI processes distributed on     1 nodes
     246714 MiB available memory on the printing compute node when the environment starts

     Reading input from 17UracilUracilBP100_precision_dimer.in
Warning: card &CELL ignored
Warning: card / ignored

     Current dimensions of program PWSCF are:
     Max number of different atomic species (ntypx) = 10
     Max number of k-points (npk) =  40000
     Max angular momentum in pseudopotentials (lmaxx) =  4
     file N.pbe-n-kjpaw_psl.1.0.0.UPF: wavefunction(s)  2S renormalized
     file H.pbe-kjpaw_psl.1.0.0.UPF: wavefunction(s)  1S renormalized
     file C.pbe-n-kjpaw_psl.1.0.0.UPF: wavefunction(s)  2S 2P renormalized
     file O.pbe-n-kjpaw_psl.1.0.0.UPF: wavefunction(s)  2S 2P renormalized

     IMPORTANT: XC functional enforced from input :
     Exchange-correlation= PBE
                           (   1   4   3   4   0   0   0)
     Any further DFT definition will be discarded
     Please, verify this is what you really want


     gamma-point specific algorithms are used

     R & G space division:  proc/nbgrp/npool/nimage =      32
     Subspace diagonalization in iterative solution of the eigenvalue problem:
     a serial algorithm will be used


     Parallelization info
     --------------------
     sticks:   dense  smooth     PW     G-vecs:    dense   smooth      PW
     Min        6395    6395   1598              2177048  2177048  272114
     Max        6398    6398   1600              2177062  2177062  272124
     Sum      204693  204693  51189             69665707 69665707 8707803

     Using Slab Decomposition



     bravais-lattice index     =            0
     lattice parameter (alat)  =      66.1404  a.u.
     unit-cell volume          =  289334.8415 (a.u.)^3
     number of atoms/cell      =           24
     number of atomic types    =            4
     number of electrons       =        84.00
     number of Kohn-Sham states=           42
     kinetic-energy cutoff     =     147.0000  Ry
     charge density cutoff     =     588.0000  Ry
     scf convergence threshold =      1.0E-08
     mixing beta               =       0.7000
     number of iterations used =            8  plain     mixing
     Exchange-correlation= PBE
                           (   1   4   3   4   0   0   0)

     celldm(1)=  66.140414  celldm(2)=   0.000000  celldm(3)=   0.000000
     celldm(4)=   0.000000  celldm(5)=   0.000000  celldm(6)=   0.000000

     crystal axes: (cart. coord. in units of alat)
               a(1) = (   1.000000   0.000000   0.000000 )  
               a(2) = (   0.000000   1.000000   0.000000 )  
               a(3) = (   0.000000   0.000000   1.000000 )  

     reciprocal axes: (cart. coord. in units 2 pi/alat)
               b(1) = (  1.000000  0.000000  0.000000 )  
               b(2) = (  0.000000  1.000000  0.000000 )  
               b(3) = (  0.000000  0.000000  1.000000 )  


     PseudoPot. # 1 for N  read from file:
     /home/users/klimj2am/src/pslibrary.1.0.0/pbe/PSEUDOPOTENTIALS/N.pbe-n-kjpaw_psl.1.0.0.UPF
     MD5 check sum: ed3381810ced4c04e88f7c2008d4036c
     Pseudo is Projector augmented-wave + core cor, Zval =  5.0
     Generated using 'atomic' code by A. Dal Corso  v.7.2
     Shape of augmentation charge: PSQ
     Using radial grid of 1085 points,  4 beta functions with: 
                l(1) =   0
                l(2) =   0
                l(3) =   1
                l(4) =   1
     Q(r) pseudized with 0 coefficients 


     PseudoPot. # 2 for H  read from file:
     /home/users/klimj2am/src/pslibrary.1.0.0/pbe/PSEUDOPOTENTIALS/H.pbe-kjpaw_psl.1.0.0.UPF
     MD5 check sum: 220281c0717fd894cece6904c624ceaa
     Pseudo is Projector augmented-wave, Zval =  1.0
     Generated using 'atomic' code by A. Dal Corso  v.7.2
     Shape of augmentation charge: PSQ
     Using radial grid of  929 points,  2 beta functions with: 
                l(1) =   0
                l(2) =   0
     Q(r) pseudized with 0 coefficients 


     PseudoPot. # 3 for C  read from file:
     /home/users/klimj2am/src/pslibrary.1.0.0/pbe/PSEUDOPOTENTIALS/C.pbe-n-kjpaw_psl.1.0.0.UPF
     MD5 check sum: 9d4797b4e2669f30c50dcc814f8da1dd
     Pseudo is Projector augmented-wave + core cor, Zval =  4.0
     Generated using 'atomic' code by A. Dal Corso  v.7.2
     Shape of augmentation charge: PSQ
     Using radial grid of 1073 points,  4 beta functions with: 
                l(1) =   0
                l(2) =   0
                l(3) =   1
                l(4) =   1
     Q(r) pseudized with 0 coefficients 


     PseudoPot. # 4 for O  read from file:
     /home/users/klimj2am/src/pslibrary.1.0.0/pbe/PSEUDOPOTENTIALS/O.pbe-n-kjpaw_psl.1.0.0.UPF
     MD5 check sum: 48e285564fec6dca10ec424bc53b541b
     Pseudo is Projector augmented-wave + core cor, Zval =  6.0
     Generated using 'atomic' code by A. Dal Corso  v.7.2
     Shape of augmentation charge: PSQ
     Using radial grid of 1095 points,  4 beta functions with: 
                l(1) =   0
                l(2) =   0
                l(3) =   1
                l(4) =   1
     Q(r) pseudized with 0 coefficients 


     atomic species   valence    mass     pseudopotential
        N              5.00    14.00700     N ( 1.00)
        H              1.00     1.00800     H ( 1.00)
        C              4.00    12.01100     C ( 1.00)
        O              6.00    15.99900     O ( 1.00)

     No symmetry found



   Cartesian axes

     site n.     atom                  positions (alat units)
         1           N   tau(   1) = (  -0.0208571   0.0006505   0.0000261  )
         2           H   tau(   2) = (   0.0085264   0.0021144   0.0000464  )
         3           C   tau(   3) = (  -0.0370521  -0.0354408   0.0000429  )
         4           O   tau(   4) = (  -0.0169743  -0.0643862   0.0000752  )
         5           C   tau(   5) = (  -0.0783892  -0.0360666   0.0000137  )
         6           H   tau(   6) = (  -0.0928454  -0.0631953   0.0000238  )
         7           C   tau(   7) = (  -0.0977720  -0.0027403  -0.0000264  )
         8           H   tau(   8) = (  -0.1285971  -0.0014062  -0.0000499  )
         9           N   tau(   9) = (  -0.0792811   0.0315831  -0.0000405  )
        10           H   tau(  10) = (  -0.0938239   0.0563965  -0.0000710  )
        11           C   tau(  11) = (  -0.0397565   0.0353434  -0.0000150  )
        12           O   tau(  12) = (  -0.0239955   0.0662010  -0.0000286  )
        13           N   tau(  13) = (   0.1186494  -0.0310334   0.0000143  )
        14           H   tau(  14) = (   0.1314278  -0.0051313   0.0000253  )
        15           C   tau(  15) = (   0.1431079  -0.0628796  -0.0000286  )
        16           O   tau(  16) = (   0.1776636  -0.0585452  -0.0000500  )
        17           C   tau(  17) = (   0.1227016  -0.0989417  -0.0000430  )
        18           H   tau(  18) = (   0.1388898  -0.1250854  -0.0000755  )
        19           C   tau(  19) = (   0.0841254  -0.0990508  -0.0000156  )
        20           H   tau(  20) = (   0.0676407  -0.1251355  -0.0000247  )
        21           N   tau(  21) = (   0.0630399  -0.0661685   0.0000259  )
        22           H   tau(  22) = (   0.0337160  -0.0667811   0.0000452  )
        23           C   tau(  23) = (   0.0794048  -0.0306066   0.0000416  )
        24           O   tau(  24) = (   0.0608242  -0.0008575   0.0000769  )

     number of k points=     1
                       cart. coord. in units 2pi/alat
        k(    1) = (   0.0000000   0.0000000   0.0000000), wk =   2.0000000

     Dense  grid: 34832854 G-vectors     FFT dimensions: ( 512, 512, 512)

     Estimated max dynamical RAM per process >       2.03 GB

     Estimated total dynamical RAM >      64.87 GB

     Initial potential from superposition of free atoms

     starting charge      83.9996, renormalised to      84.0000

     negative rho (up, down):  1.421E-03 0.000E+00
     Starting wfcs are   72 randomized atomic wfcs
     Checking if some PAW data can be deallocated... 

     total cpu time spent up to now is       56.3 secs

     Self-consistent Calculation

     iteration #  1     ecut=   147.00 Ry     beta= 0.70
     Davidson diagonalization with overlap
     ethr =  1.00E-02,  avg # of iterations =  3.0

     negative rho (up, down):  6.179E-04 0.000E+00

     total cpu time spent up to now is       96.0 secs

     total energy              =    -435.43609631 Ry
     estimated scf accuracy    <       2.70622292 Ry

     iteration #  2     ecut=   147.00 Ry     beta= 0.70
     Davidson diagonalization with overlap
     ethr =  3.22E-03,  avg # of iterations =  3.0

     negative rho (up, down):  1.291E-03 0.000E+00

     total cpu time spent up to now is      135.3 secs

     total energy              =    -436.36856170 Ry
     estimated scf accuracy    <       0.33803676 Ry

     iteration #  3     ecut=   147.00 Ry     beta= 0.70
     Davidson diagonalization with overlap
     ethr =  4.02E-04,  avg # of iterations =  6.0

     negative rho (up, down):  1.340E-03 0.000E+00

     total cpu time spent up to now is      185.6 secs

     total energy              =    -436.58040926 Ry
     estimated scf accuracy    <       0.62887198 Ry

     iteration #  4     ecut=   147.00 Ry     beta= 0.70
     Davidson diagonalization with overlap
     ethr =  4.02E-04,  avg # of iterations =  1.0

     negative rho (up, down):  2.192E-03 0.000E+00

     total cpu time spent up to now is      215.5 secs

     total energy              =    -436.28699615 Ry
     estimated scf accuracy    <       0.42581324 Ry

     iteration #  5     ecut=   147.00 Ry     beta= 0.70
     Davidson diagonalization with overlap
     ethr =  4.02E-04,  avg # of iterations =  8.0

     negative rho (up, down):  2.592E-03 0.000E+00

     total cpu time spent up to now is      275.9 secs

     total energy              =    -436.54438834 Ry
     estimated scf accuracy    <       0.68118543 Ry

     iteration #  6     ecut=   147.00 Ry     beta= 0.70
     Davidson diagonalization with overlap
     ethr =  4.02E-04,  avg # of iterations =  2.0

     negative rho (up, down):  2.839E-03 0.000E+00

     total cpu time spent up to now is      306.9 secs

     total energy              =    -436.39571621 Ry
     estimated scf accuracy    <       0.35913251 Ry

     iteration #  7     ecut=   147.00 Ry     beta= 0.70
     Davidson diagonalization with overlap
     ethr =  4.02E-04,  avg # of iterations =  6.0

     negative rho (up, down):  2.799E-03 0.000E+00

     total cpu time spent up to now is      348.4 secs

     total energy              =    -436.53679979 Ry
     estimated scf accuracy    <       0.07525033 Ry

     iteration #  8     ecut=   147.00 Ry     beta= 0.70
     Davidson diagonalization with overlap
     ethr =  8.96E-05,  avg # of iterations =  2.0

     negative rho (up, down):  2.809E-03 0.000E+00

     total cpu time spent up to now is      380.6 secs

     total energy              =    -436.52218389 Ry
     estimated scf accuracy    <       0.04582623 Ry

     iteration #  9     ecut=   147.00 Ry     beta= 0.70
     Davidson diagonalization with overlap
     ethr =  5.46E-05,  avg # of iterations = 10.0

     negative rho (up, down):  2.828E-03 0.000E+00

     total cpu time spent up to now is      429.1 secs

     total energy              =    -436.54933312 Ry
     estimated scf accuracy    <       0.01650839 Ry

     iteration # 10     ecut=   147.00 Ry     beta= 0.70
     Davidson diagonalization with overlap
     ethr =  1.97E-05,  avg # of iterations =  2.0

     negative rho (up, down):  2.891E-03 0.000E+00

     total cpu time spent up to now is      460.3 secs

     total energy              =    -436.54491399 Ry
     estimated scf accuracy    <       0.01973432 Ry

     iteration # 11     ecut=   147.00 Ry     beta= 0.70
     Davidson diagonalization with overlap
     ethr =  1.97E-05,  avg # of iterations =  1.0

     negative rho (up, down):  2.901E-03 0.000E+00

     total cpu time spent up to now is      490.0 secs

     total energy              =    -436.54195313 Ry
     estimated scf accuracy    <       0.01153829 Ry

     iteration # 12     ecut=   147.00 Ry     beta= 0.70
     Davidson diagonalization with overlap
     ethr =  1.37E-05,  avg # of iterations =  5.0

     negative rho (up, down):  2.900E-03 0.000E+00

     total cpu time spent up to now is      523.8 secs

     total energy              =    -436.54301731 Ry
     estimated scf accuracy    <       0.00341365 Ry

     iteration # 13     ecut=   147.00 Ry     beta= 0.70
     Davidson diagonalization with overlap
     ethr =  4.06E-06,  avg # of iterations =  7.0

     negative rho (up, down):  2.899E-03 0.000E+00

     total cpu time spent up to now is      564.6 secs

     total energy              =    -436.54430610 Ry
     estimated scf accuracy    <       0.00044039 Ry

     iteration # 14     ecut=   147.00 Ry     beta= 0.70
     Davidson diagonalization with overlap
     ethr =  5.24E-07,  avg # of iterations =  6.0

     negative rho (up, down):  2.900E-03 0.000E+00

     total cpu time spent up to now is      601.1 secs

     total energy              =    -436.54441357 Ry
     estimated scf accuracy    <       0.00040153 Ry

     iteration # 15     ecut=   147.00 Ry     beta= 0.70
     Davidson diagonalization with overlap
     ethr =  4.78E-07,  avg # of iterations =  2.0

     negative rho (up, down):  2.903E-03 0.000E+00

     total cpu time spent up to now is      632.7 secs

     total energy              =    -436.54440772 Ry
     estimated scf accuracy    <       0.00037667 Ry

     iteration # 16     ecut=   147.00 Ry     beta= 0.70
     Davidson diagonalization with overlap
     ethr =  4.48E-07,  avg # of iterations =  8.0

     negative rho (up, down):  2.901E-03 0.000E+00

     total cpu time spent up to now is      668.2 secs

     total energy              =    -436.54436737 Ry
     estimated scf accuracy    <       0.00043480 Ry

     iteration # 17     ecut=   147.00 Ry     beta= 0.70
     Davidson diagonalization with overlap
     ethr =  4.48E-07,  avg # of iterations =  2.0

     negative rho (up, down):  2.902E-03 0.000E+00

     total cpu time spent up to now is      699.2 secs

     total energy              =    -436.54428402 Ry
     estimated scf accuracy    <       0.00027964 Ry

     iteration # 18     ecut=   147.00 Ry     beta= 0.70
     Davidson diagonalization with overlap
     ethr =  3.33E-07,  avg # of iterations =  6.0

     negative rho (up, down):  2.903E-03 0.000E+00

     total cpu time spent up to now is      740.5 secs

     total energy              =    -436.54438876 Ry
     estimated scf accuracy    <       0.00019286 Ry

     iteration # 19     ecut=   147.00 Ry     beta= 0.70
     Davidson diagonalization with overlap
     ethr =  2.30E-07,  avg # of iterations =  2.0

     negative rho (up, down):  2.904E-03 0.000E+00

     total cpu time spent up to now is      772.6 secs

     total energy              =    -436.54442211 Ry
     estimated scf accuracy    <       0.00021618 Ry

     iteration # 20     ecut=   147.00 Ry     beta= 0.70
     Davidson diagonalization with overlap
     ethr =  2.30E-07,  avg # of iterations =  2.0

     negative rho (up, down):  2.903E-03 0.000E+00

     total cpu time spent up to now is      804.4 secs

     total energy              =    -436.54447648 Ry
     estimated scf accuracy    <       0.00030067 Ry

     iteration # 21     ecut=   147.00 Ry     beta= 0.70
     Davidson diagonalization with overlap
     ethr =  2.30E-07,  avg # of iterations =  2.0

     negative rho (up, down):  2.897E-03 0.000E+00

     total cpu time spent up to now is      836.6 secs

     total energy              =    -436.54516810 Ry
     estimated scf accuracy    <       0.00044677 Ry

     iteration # 22     ecut=   147.00 Ry     beta= 0.70
     Davidson diagonalization with overlap
     ethr =  2.30E-07,  avg # of iterations = 11.0

     negative rho (up, down):  2.909E-03 0.000E+00

     total cpu time spent up to now is      906.4 secs

     total energy              =    -436.54272228 Ry
     estimated scf accuracy    <       0.00703413 Ry

     iteration # 23     ecut=   147.00 Ry     beta= 0.70
     Davidson diagonalization with overlap
     ethr =  2.30E-07,  avg # of iterations = 12.0

     negative rho (up, down):  2.907E-03 0.000E+00

     total cpu time spent up to now is      982.9 secs

     total energy              =    -436.54429951 Ry
     estimated scf accuracy    <       0.00055700 Ry

     iteration # 24     ecut=   147.00 Ry     beta= 0.70
     Davidson diagonalization with overlap
     ethr =  2.30E-07,  avg # of iterations =  7.0

     negative rho (up, down):  2.908E-03 0.000E+00

     total cpu time spent up to now is     1021.7 secs

     total energy              =    -436.54430688 Ry
     estimated scf accuracy    <       0.00017892 Ry

     iteration # 25     ecut=   147.00 Ry     beta= 0.70
     Davidson diagonalization with overlap
     ethr =  2.13E-07,  avg # of iterations =  7.0

     negative rho (up, down):  2.908E-03 0.000E+00

     total cpu time spent up to now is     1057.2 secs

     total energy              =    -436.54431948 Ry
     estimated scf accuracy    <       0.00006590 Ry

     iteration # 26     ecut=   147.00 Ry     beta= 0.70
     Davidson diagonalization with overlap
     ethr =  7.85E-08,  avg # of iterations =  8.0

     negative rho (up, down):  2.909E-03 0.000E+00

     total cpu time spent up to now is     1096.3 secs

     total energy              =    -436.54433434 Ry
     estimated scf accuracy    <       0.00001539 Ry

     iteration # 27     ecut=   147.00 Ry     beta= 0.70
     Davidson diagonalization with overlap
     ethr =  1.83E-08,  avg # of iterations =  6.0

     negative rho (up, down):  2.909E-03 0.000E+00

     total cpu time spent up to now is     1137.1 secs

     total energy              =    -436.54433947 Ry
     estimated scf accuracy    <       0.00000407 Ry

     iteration # 28     ecut=   147.00 Ry     beta= 0.70
     Davidson diagonalization with overlap
     ethr =  4.85E-09,  avg # of iterations =  7.0

     negative rho (up, down):  2.909E-03 0.000E+00

     total cpu time spent up to now is     1180.1 secs

     total energy              =    -436.54434100 Ry
     estimated scf accuracy    <       0.00000125 Ry

     iteration # 29     ecut=   147.00 Ry     beta= 0.70
     Davidson diagonalization with overlap
     ethr =  1.49E-09,  avg # of iterations =  2.0

     negative rho (up, down):  2.909E-03 0.000E+00

     total cpu time spent up to now is     1213.3 secs

     total energy              =    -436.54434084 Ry
     estimated scf accuracy    <       0.00000054 Ry

     iteration # 30     ecut=   147.00 Ry     beta= 0.70
     Davidson diagonalization with overlap
     ethr =  6.48E-10,  avg # of iterations = 11.0

     negative rho (up, down):  2.909E-03 0.000E+00

     total cpu time spent up to now is     1262.6 secs

     total energy              =    -436.54434112 Ry
     estimated scf accuracy    <       0.00000030 Ry

     iteration # 31     ecut=   147.00 Ry     beta= 0.70
     Davidson diagonalization with overlap
     ethr =  3.52E-10,  avg # of iterations =  2.0

     negative rho (up, down):  2.909E-03 0.000E+00

     total cpu time spent up to now is     1293.8 secs

     total energy              =    -436.54434108 Ry
     estimated scf accuracy    <       0.00000012 Ry

     iteration # 32     ecut=   147.00 Ry     beta= 0.70
     Davidson diagonalization with overlap
     ethr =  1.47E-10,  avg # of iterations =  7.0

     negative rho (up, down):  2.909E-03 0.000E+00

     total cpu time spent up to now is     1342.9 secs

     total energy              =    -436.54434114 Ry
     estimated scf accuracy    <       0.00000018 Ry

     iteration # 33     ecut=   147.00 Ry     beta= 0.70
     Davidson diagonalization with overlap
     ethr =  1.47E-10,  avg # of iterations =  2.0

     negative rho (up, down):  2.909E-03 0.000E+00

     total cpu time spent up to now is     1374.3 secs

     total energy              =    -436.54434113 Ry
     estimated scf accuracy    <       0.00000007 Ry

     iteration # 34     ecut=   147.00 Ry     beta= 0.70
     Davidson diagonalization with overlap
     ethr =  8.71E-11,  avg # of iterations =  7.0

     negative rho (up, down):  2.909E-03 0.000E+00

     total cpu time spent up to now is     1412.5 secs

     total energy              =    -436.54434114 Ry
     estimated scf accuracy    <       0.00000001 Ry

     iteration # 35     ecut=   147.00 Ry     beta= 0.70
     Davidson diagonalization with overlap
     ethr =  1.41E-11,  avg # of iterations = 10.0

     negative rho (up, down):  2.909E-03 0.000E+00

     total cpu time spent up to now is     1461.5 secs

     total energy              =    -436.54434115 Ry
     estimated scf accuracy    <       0.00000001 Ry

     iteration # 36     ecut=   147.00 Ry     beta= 0.70
     Davidson diagonalization with overlap
     ethr =  1.35E-11,  avg # of iterations =  2.0

     negative rho (up, down):  2.909E-03 0.000E+00

     total cpu time spent up to now is     1491.4 secs

     End of self-consistent calculation

          k = 0.0000 0.0000 0.0000 (****** PWs)   bands (ev):

   -27.3009 -27.1503 -26.5529 -26.1086 -24.8683 -24.5266 -23.4312 -23.1772
   -20.1739 -19.7690 -17.4930 -17.1775 -16.8324 -16.4690 -15.1403 -14.7712
   -14.1775 -13.8107 -13.1218 -12.8212 -12.1618 -12.0063 -11.9216 -11.3903
   -11.2405 -10.9960 -10.5345 -10.4335 -10.3652 -10.1504  -9.9467  -9.9397
    -9.3401  -9.0005  -7.2761  -7.2284  -6.9999  -6.9601  -6.5711  -6.4712
    -6.0956  -6.0490

     highest occupied level (ev):    -6.0490

!    total energy              =    -436.54434114 Ry
     total all-electron energy =     -1659.239838 Ry
     estimated scf accuracy    <          5.8E-09 Ry

     The total energy is the sum of the following terms:
     one-electron contribution =   -2038.27257545 Ry
     hartree contribution      =    1031.12040940 Ry
     xc contribution           =     -95.58443490 Ry
     ewald contribution        =     785.77985194 Ry
     one-center paw contrib.   =    -119.58759214 Ry

     charge density inside the Wigner-Seitz cell:   84.00000000

     reference position (x0):         1.86081116   -1.82683245    0.00029030 bohr

     Dipole moments (with respect to x0):
     Elect  -3.0111  -0.6039  -0.0015 au (Ha),  -7.6535  -1.5351  -0.0037 Debye
     Ionic   0.0000   0.0000   0.0000 au (Ha),   0.0000   0.0000   0.0000 Debye
     Total  -3.0111  -0.6039  -0.0015 au (Ha),  -7.6535  -1.5351  -0.0037 Debye

     Electrons quadrupole moment      -3770.05571390 a.u. (Ha)
          Ions quadrupole moment       3570.91430080 a.u. (Ha)
         Total quadrupole moment       -199.14141310 a.u. (Ha)

     *********    MAKOV-PAYNE CORRECTION    *********

     Makov-Payne correction with Madelung constant =   2.8373

     Makov-Payne correction     0.00000000 Ry =  0.000 eV (1st order, 1/a0)
                                0.00013654 Ry =  0.002 eV (2nd order, 1/a0^3)
                                0.00013654 Ry =  0.002 eV (total)

!    Total+Makov-Payne energy  =    -436.54420460 Ry
     Corrected vacuum level    =       0.03934865 eV

     convergence has been achieved in  36 iterations

     Writing all to output data dir ./pwscf.save/

     init_run     :     51.36s CPU     55.35s WALL (       1 calls)
     electrons    :   1249.90s CPU   1438.03s WALL (       1 calls)

     Called by init_run:
     wfcinit      :     11.32s CPU     12.34s WALL (       1 calls)
     potinit      :      5.18s CPU      6.20s WALL (       1 calls)
     hinit0       :      3.60s CPU      3.96s WALL (       1 calls)

     Called by electrons:
     c_bands      :    821.70s CPU    886.09s WALL (      36 calls)
     sum_band     :    249.58s CPU    301.07s WALL (      36 calls)
     v_of_rho     :     79.67s CPU    106.63s WALL (      37 calls)
     newd         :     70.57s CPU    108.29s WALL (      37 calls)
     PAW_pot      :      0.98s CPU      1.02s WALL (      37 calls)
     mix_rho      :     27.28s CPU     35.22s WALL (      36 calls)

     Called by c_bands:
     init_us_2    :      6.87s CPU      7.19s WALL (      73 calls)
     init_us_2:cp :      6.87s CPU      7.19s WALL (      73 calls)
     regterg      :    807.52s CPU    871.60s WALL (      36 calls)

     Called by *egterg:
     rdiaghg      :      0.36s CPU      0.38s WALL (     223 calls)
     h_psi        :    647.22s CPU    703.36s WALL (     224 calls)
     s_psi        :     42.05s CPU     42.17s WALL (     224 calls)
     g_psi        :      1.95s CPU      1.97s WALL (     187 calls)

     Called by h_psi:
     h_psi:calbec :     37.32s CPU     37.96s WALL (     224 calls)
     vloc_psi     :    563.41s CPU    618.65s WALL (     224 calls)
     add_vuspsi   :     42.50s CPU     42.67s WALL (     224 calls)

     General routines
     calbec       :     46.74s CPU     47.49s WALL (     260 calls)
     fft          :     66.66s CPU     84.53s WALL (     333 calls)
     ffts         :      5.65s CPU      7.88s WALL (      36 calls)
     fftw         :    526.76s CPU    590.72s WALL (    5466 calls)

     Parallel routines

     PWSCF        :  21m44.90s CPU  25m 2.24s WALL


   This run was terminated on:  18: 1:16  12Oct2023            

=------------------------------------------------------------------------------=
   JOB DONE.
=------------------------------------------------------------------------------=
