
     Program PWSCF v.7.2 starts on 12Oct2023 at 17:54:53 

     This program is part of the open-source Quantum ESPRESSO suite
     for quantum simulation of materials; please cite
         "P. Giannozzi et al., J. Phys.:Condens. Matter 21 395502 (2009);
         "P. Giannozzi et al., J. Phys.:Condens. Matter 29 465901 (2017);
         "P. Giannozzi et al., J. Chem. Phys. 152 154105 (2020);
          URL http://www.quantum-espresso.org", 
     in publications or presentations arising from this work. More details at
     http://www.quantum-espresso.org/quote

     Parallel version (MPI), running on    32 processors

     MPI processes distributed on     1 nodes
     503566 MiB available memory on the printing compute node when the environment starts

     Reading input from 60EthyneAcOHOHpi100_precision_dimer.in
Warning: card &CELL ignored
Warning: card / ignored

     Current dimensions of program PWSCF are:
     Max number of different atomic species (ntypx) = 10
     Max number of k-points (npk) =  40000
     Max angular momentum in pseudopotentials (lmaxx) =  4
     file C.pbe-n-kjpaw_psl.1.0.0.UPF: wavefunction(s)  2S 2P renormalized
     file H.pbe-kjpaw_psl.1.0.0.UPF: wavefunction(s)  1S renormalized
     file O.pbe-n-kjpaw_psl.1.0.0.UPF: wavefunction(s)  2S 2P renormalized

     IMPORTANT: XC functional enforced from input :
     Exchange-correlation= PBE
                           (   1   4   3   4   0   0   0)
     Any further DFT definition will be discarded
     Please, verify this is what you really want


     gamma-point specific algorithms are used

     R & G space division:  proc/nbgrp/npool/nimage =      32
     Subspace diagonalization in iterative solution of the eigenvalue problem:
     a serial algorithm will be used


     Parallelization info
     --------------------
     sticks:   dense  smooth     PW     G-vecs:    dense   smooth      PW
     Min        6395    6395   1598              2177048  2177048  272114
     Max        6398    6398   1600              2177062  2177062  272124
     Sum      204693  204693  51189             69665707 69665707 8707803

     Using Slab Decomposition



     bravais-lattice index     =            0
     lattice parameter (alat)  =      66.1404  a.u.
     unit-cell volume          =  289334.8415 (a.u.)^3
     number of atoms/cell      =           12
     number of atomic types    =            3
     number of electrons       =        34.00
     number of Kohn-Sham states=           17
     kinetic-energy cutoff     =     147.0000  Ry
     charge density cutoff     =     588.0000  Ry
     scf convergence threshold =      1.0E-08
     mixing beta               =       0.7000
     number of iterations used =            8  plain     mixing
     Exchange-correlation= PBE
                           (   1   4   3   4   0   0   0)

     celldm(1)=  66.140414  celldm(2)=   0.000000  celldm(3)=   0.000000
     celldm(4)=   0.000000  celldm(5)=   0.000000  celldm(6)=   0.000000

     crystal axes: (cart. coord. in units of alat)
               a(1) = (   1.000000   0.000000   0.000000 )  
               a(2) = (   0.000000   1.000000   0.000000 )  
               a(3) = (   0.000000   0.000000   1.000000 )  

     reciprocal axes: (cart. coord. in units 2 pi/alat)
               b(1) = (  1.000000  0.000000  0.000000 )  
               b(2) = (  0.000000  1.000000  0.000000 )  
               b(3) = (  0.000000  0.000000  1.000000 )  


     PseudoPot. # 1 for C  read from file:
     /home/users/klimj2am/src/pslibrary.1.0.0/pbe/PSEUDOPOTENTIALS/C.pbe-n-kjpaw_psl.1.0.0.UPF
     MD5 check sum: 9d4797b4e2669f30c50dcc814f8da1dd
     Pseudo is Projector augmented-wave + core cor, Zval =  4.0
     Generated using 'atomic' code by A. Dal Corso  v.7.2
     Shape of augmentation charge: PSQ
     Using radial grid of 1073 points,  4 beta functions with: 
                l(1) =   0
                l(2) =   0
                l(3) =   1
                l(4) =   1
     Q(r) pseudized with 0 coefficients 


     PseudoPot. # 2 for H  read from file:
     /home/users/klimj2am/src/pslibrary.1.0.0/pbe/PSEUDOPOTENTIALS/H.pbe-kjpaw_psl.1.0.0.UPF
     MD5 check sum: 220281c0717fd894cece6904c624ceaa
     Pseudo is Projector augmented-wave, Zval =  1.0
     Generated using 'atomic' code by A. Dal Corso  v.7.2
     Shape of augmentation charge: PSQ
     Using radial grid of  929 points,  2 beta functions with: 
                l(1) =   0
                l(2) =   0
     Q(r) pseudized with 0 coefficients 


     PseudoPot. # 3 for O  read from file:
     /home/users/klimj2am/src/pslibrary.1.0.0/pbe/PSEUDOPOTENTIALS/O.pbe-n-kjpaw_psl.1.0.0.UPF
     MD5 check sum: 48e285564fec6dca10ec424bc53b541b
     Pseudo is Projector augmented-wave + core cor, Zval =  6.0
     Generated using 'atomic' code by A. Dal Corso  v.7.2
     Shape of augmentation charge: PSQ
     Using radial grid of 1095 points,  4 beta functions with: 
                l(1) =   0
                l(2) =   0
                l(3) =   1
                l(4) =   1
     Q(r) pseudized with 0 coefficients 


     atomic species   valence    mass     pseudopotential
        C              4.00    12.01100     C ( 1.00)
        H              1.00     1.00800     H ( 1.00)
        O              6.00    15.99900     O ( 1.00)

     No symmetry found



   Cartesian axes

     site n.     atom                  positions (alat units)
         1           C   tau(   1) = (  -0.0174446   0.0065001  -0.0048743  )
         2           H   tau(   2) = (   0.0030681   0.0246125  -0.0181203  )
         3           C   tau(   3) = (  -0.0396079  -0.0150093   0.0108564  )
         4           H   tau(   4) = (  -0.0594487  -0.0335448   0.0244108  )
         5           C   tau(   5) = (   0.0817578  -0.0186704   0.0135652  )
         6           O   tau(   6) = (   0.0744956   0.0086468  -0.0064016  )
         7           O   tau(   7) = (   0.0546748  -0.0407944   0.0297848  )
         8           H   tau(   8) = (   0.0300749  -0.0303002   0.0221342  )
         9           C   tau(   9) = (   0.1210617  -0.0324261   0.0235695  )
        10           H   tau(  10) = (   0.1421584  -0.0142104   0.0101166  )
        11           H   tau(  11) = (   0.1246677  -0.0320874   0.0544276  )
        12           H   tau(  12) = (   0.1245553  -0.0617931   0.0140485  )

     number of k points=     1
                       cart. coord. in units 2pi/alat
        k(    1) = (   0.0000000   0.0000000   0.0000000), wk =   2.0000000

     Dense  grid: 34832854 G-vectors     FFT dimensions: ( 512, 512, 512)

     Estimated max dynamical RAM per process >       1.74 GB

     Estimated total dynamical RAM >      55.70 GB

     Initial potential from superposition of free atoms

     starting charge      33.9998, renormalised to      34.0000

     negative rho (up, down):  8.827E-04 0.000E+00
     Starting wfcs are   30 randomized atomic wfcs
     Checking if some PAW data can be deallocated... 

     total cpu time spent up to now is       42.5 secs

     Self-consistent Calculation

     iteration #  1     ecut=   147.00 Ry     beta= 0.70
     Davidson diagonalization with overlap
     ethr =  1.00E-02,  avg # of iterations =  2.0

     negative rho (up, down):  5.592E-04 0.000E+00

     total cpu time spent up to now is       60.4 secs

     total energy              =    -163.48206716 Ry
     estimated scf accuracy    <       1.42720287 Ry

     iteration #  2     ecut=   147.00 Ry     beta= 0.70
     Davidson diagonalization with overlap
     ethr =  4.20E-03,  avg # of iterations =  2.0

     negative rho (up, down):  9.135E-04 0.000E+00

     total cpu time spent up to now is       77.4 secs

     total energy              =    -163.89716808 Ry
     estimated scf accuracy    <       0.14627106 Ry

     iteration #  3     ecut=   147.00 Ry     beta= 0.70
     Davidson diagonalization with overlap
     ethr =  4.30E-04,  avg # of iterations =  7.0

     negative rho (up, down):  9.404E-04 0.000E+00

     total cpu time spent up to now is      101.4 secs

     total energy              =    -164.04389053 Ry
     estimated scf accuracy    <       0.38728445 Ry

     iteration #  4     ecut=   147.00 Ry     beta= 0.70
     Davidson diagonalization with overlap
     ethr =  4.30E-04,  avg # of iterations =  2.0

     negative rho (up, down):  1.308E-03 0.000E+00

     total cpu time spent up to now is      116.7 secs

     total energy              =    -163.88727138 Ry
     estimated scf accuracy    <       0.22943126 Ry

     iteration #  5     ecut=   147.00 Ry     beta= 0.70
     Davidson diagonalization with overlap
     ethr =  4.30E-04,  avg # of iterations =  8.0

     negative rho (up, down):  1.445E-03 0.000E+00

     total cpu time spent up to now is      141.4 secs

     total energy              =    -164.02052923 Ry
     estimated scf accuracy    <       0.31284146 Ry

     iteration #  6     ecut=   147.00 Ry     beta= 0.70
     Davidson diagonalization with overlap
     ethr =  4.30E-04,  avg # of iterations =  1.0

     negative rho (up, down):  1.618E-03 0.000E+00

     total cpu time spent up to now is      156.1 secs

     total energy              =    -163.94278144 Ry
     estimated scf accuracy    <       0.15293106 Ry

     iteration #  7     ecut=   147.00 Ry     beta= 0.70
     Davidson diagonalization with overlap
     ethr =  4.30E-04,  avg # of iterations =  5.0

     negative rho (up, down):  1.606E-03 0.000E+00

     total cpu time spent up to now is      176.0 secs

     total energy              =    -164.02020605 Ry
     estimated scf accuracy    <       0.05097267 Ry

     iteration #  8     ecut=   147.00 Ry     beta= 0.70
     Davidson diagonalization with overlap
     ethr =  1.50E-04,  avg # of iterations =  2.0

     negative rho (up, down):  1.598E-03 0.000E+00

     total cpu time spent up to now is      191.3 secs

     total energy              =    -164.01160496 Ry
     estimated scf accuracy    <       0.02150451 Ry

     iteration #  9     ecut=   147.00 Ry     beta= 0.70
     Davidson diagonalization with overlap
     ethr =  6.32E-05,  avg # of iterations =  5.0

     negative rho (up, down):  1.608E-03 0.000E+00

     total cpu time spent up to now is      211.8 secs

     total energy              =    -164.02276524 Ry
     estimated scf accuracy    <       0.00381147 Ry

     iteration # 10     ecut=   147.00 Ry     beta= 0.70
     Davidson diagonalization with overlap
     ethr =  1.12E-05,  avg # of iterations =  5.0

     negative rho (up, down):  1.608E-03 0.000E+00

     total cpu time spent up to now is      228.6 secs

     total energy              =    -164.02308832 Ry
     estimated scf accuracy    <       0.00321704 Ry

     iteration # 11     ecut=   147.00 Ry     beta= 0.70
     Davidson diagonalization with overlap
     ethr =  9.46E-06,  avg # of iterations =  1.0

     negative rho (up, down):  1.629E-03 0.000E+00

     total cpu time spent up to now is      243.5 secs

     total energy              =    -164.02167345 Ry
     estimated scf accuracy    <       0.00289460 Ry

     iteration # 12     ecut=   147.00 Ry     beta= 0.70
     Davidson diagonalization with overlap
     ethr =  8.51E-06,  avg # of iterations =  6.0

     negative rho (up, down):  1.632E-03 0.000E+00

     total cpu time spent up to now is      262.1 secs

     total energy              =    -164.02247096 Ry
     estimated scf accuracy    <       0.00009180 Ry

     iteration # 13     ecut=   147.00 Ry     beta= 0.70
     Davidson diagonalization with overlap
     ethr =  2.70E-07,  avg # of iterations =  7.0

     negative rho (up, down):  1.630E-03 0.000E+00

     total cpu time spent up to now is      282.6 secs

     total energy              =    -164.02252925 Ry
     estimated scf accuracy    <       0.00027246 Ry

     iteration # 14     ecut=   147.00 Ry     beta= 0.70
     Davidson diagonalization with overlap
     ethr =  2.70E-07,  avg # of iterations =  1.0

     negative rho (up, down):  1.630E-03 0.000E+00

     total cpu time spent up to now is      297.5 secs

     total energy              =    -164.02245475 Ry
     estimated scf accuracy    <       0.00020674 Ry

     iteration # 15     ecut=   147.00 Ry     beta= 0.70
     Davidson diagonalization with overlap
     ethr =  2.70E-07,  avg # of iterations =  6.0

     negative rho (up, down):  1.630E-03 0.000E+00

     total cpu time spent up to now is      316.3 secs

     total energy              =    -164.02248476 Ry
     estimated scf accuracy    <       0.00001008 Ry

     iteration # 16     ecut=   147.00 Ry     beta= 0.70
     Davidson diagonalization with overlap
     ethr =  2.97E-08,  avg # of iterations =  9.0

     negative rho (up, down):  1.631E-03 0.000E+00

     total cpu time spent up to now is      342.8 secs

     total energy              =    -164.02249170 Ry
     estimated scf accuracy    <       0.00003356 Ry

     iteration # 17     ecut=   147.00 Ry     beta= 0.70
     Davidson diagonalization with overlap
     ethr =  2.97E-08,  avg # of iterations =  6.0

     negative rho (up, down):  1.632E-03 0.000E+00

     total cpu time spent up to now is      361.1 secs

     total energy              =    -164.02249298 Ry
     estimated scf accuracy    <       0.00000333 Ry

     iteration # 18     ecut=   147.00 Ry     beta= 0.70
     Davidson diagonalization with overlap
     ethr =  9.80E-09,  avg # of iterations =  5.0

     negative rho (up, down):  1.632E-03 0.000E+00

     total cpu time spent up to now is      380.8 secs

     total energy              =    -164.02249451 Ry
     estimated scf accuracy    <       0.00000020 Ry

     iteration # 19     ecut=   147.00 Ry     beta= 0.70
     Davidson diagonalization with overlap
     ethr =  5.99E-10,  avg # of iterations =  9.0

     negative rho (up, down):  1.631E-03 0.000E+00

     total cpu time spent up to now is      403.5 secs

     total energy              =    -164.02249462 Ry
     estimated scf accuracy    <       0.00000157 Ry

     iteration # 20     ecut=   147.00 Ry     beta= 0.70
     Davidson diagonalization with overlap
     ethr =  5.99E-10,  avg # of iterations =  9.0

     negative rho (up, down):  1.632E-03 0.000E+00

     total cpu time spent up to now is      424.7 secs

     total energy              =    -164.02249469 Ry
     estimated scf accuracy    <       0.00000021 Ry

     iteration # 21     ecut=   147.00 Ry     beta= 0.70
     Davidson diagonalization with overlap
     ethr =  5.99E-10,  avg # of iterations =  2.0

     negative rho (up, down):  1.632E-03 0.000E+00

     total cpu time spent up to now is      440.6 secs

     total energy              =    -164.02249469 Ry
     estimated scf accuracy    <       0.00000011 Ry

     iteration # 22     ecut=   147.00 Ry     beta= 0.70
     Davidson diagonalization with overlap
     ethr =  3.36E-10,  avg # of iterations =  3.0

     negative rho (up, down):  1.632E-03 0.000E+00

     total cpu time spent up to now is      457.2 secs

     total energy              =    -164.02249468 Ry
     estimated scf accuracy    <       0.00000004 Ry

     iteration # 23     ecut=   147.00 Ry     beta= 0.70
     Davidson diagonalization with overlap
     ethr =  1.03E-10,  avg # of iterations =  7.0

     negative rho (up, down):  1.632E-03 0.000E+00

     total cpu time spent up to now is      477.9 secs

     End of self-consistent calculation

          k = 0.0000 0.0000 0.0000 (****** PWs)   bands (ev):

   -27.7329 -25.3982 -18.9709 -18.8029 -15.0936 -14.2858 -12.4209 -11.9420
   -11.5503 -11.5478 -10.0083  -9.5069  -9.4300  -7.7094  -7.5668  -7.4530
    -6.3862

     highest occupied level (ev):    -6.3862

!    total energy              =    -164.02249470 Ry
     total all-electron energy =      -612.772638 Ry
     estimated scf accuracy    <          6.0E-09 Ry

     The total energy is the sum of the following terms:
     one-electron contribution =    -530.11171857 Ry
     hartree contribution      =     270.19536049 Ry
     xc contribution           =     -37.41037017 Ry
     ewald contribution        =     177.16501957 Ry
     one-center paw contrib.   =     -43.86078602 Ry

     charge density inside the Wigner-Seitz cell:   34.00000000

     reference position (x0):         3.35208620   -1.12561718    0.81660631 bohr

     Dipole moments (with respect to x0):
     Elect  -0.0528  -0.4851   0.3544 au (Ha),  -0.1343  -1.2331   0.9007 Debye
     Ionic  -0.0000   0.0000   0.0000 au (Ha),  -0.0000   0.0000   0.0000 Debye
     Total  -0.0528  -0.4851   0.3544 au (Ha),  -0.1343  -1.2331   0.9007 Debye

     Electrons quadrupole moment       -671.00969317 a.u. (Ha)
          Ions quadrupole moment        594.98305330 a.u. (Ha)
         Total quadrupole moment        -76.02663987 a.u. (Ha)

     *********    MAKOV-PAYNE CORRECTION    *********

     Makov-Payne correction with Madelung constant =   2.8373

     Makov-Payne correction     0.00000000 Ry =  0.000 eV (1st order, 1/a0)
                                0.00000527 Ry =  0.000 eV (2nd order, 1/a0^3)
                                0.00000527 Ry =  0.000 eV (total)

!    Total+Makov-Payne energy  =    -164.02248944 Ry
     Corrected vacuum level    =       0.01495540 eV

     convergence has been achieved in  23 iterations

     Writing all to output data dir ./pwscf.save/

     init_run     :     38.92s CPU     41.83s WALL (       1 calls)
     electrons    :    388.81s CPU    438.20s WALL (       1 calls)

     Called by init_run:
     wfcinit      :      4.03s CPU      4.57s WALL (       1 calls)
     potinit      :      4.46s CPU      5.27s WALL (       1 calls)
     hinit0       :      2.85s CPU      3.22s WALL (       1 calls)

     Called by electrons:
     c_bands      :    200.46s CPU    210.41s WALL (      23 calls)
     sum_band     :     88.37s CPU    103.47s WALL (      23 calls)
     v_of_rho     :     49.61s CPU     60.61s WALL (      24 calls)
     newd         :     33.31s CPU     45.35s WALL (      24 calls)
     PAW_pot      :      0.38s CPU      0.39s WALL (      24 calls)
     mix_rho      :     17.00s CPU     18.20s WALL (      23 calls)

     Called by c_bands:
     init_us_2    :      2.10s CPU      2.18s WALL (      47 calls)
     init_us_2:cp :      2.10s CPU      2.18s WALL (      47 calls)
     regterg      :    196.75s CPU    206.67s WALL (      23 calls)

     Called by *egterg:
     rdiaghg      :      0.05s CPU      0.06s WALL (     133 calls)
     h_psi        :    166.25s CPU    176.36s WALL (     134 calls)
     s_psi        :      8.12s CPU      8.15s WALL (     134 calls)
     g_psi        :      0.57s CPU      0.57s WALL (     110 calls)

     Called by h_psi:
     h_psi:calbec :      6.47s CPU      6.63s WALL (     134 calls)
     vloc_psi     :    150.54s CPU    160.43s WALL (     134 calls)
     add_vuspsi   :      8.16s CPU      8.18s WALL (     134 calls)

     General routines
     calbec       :      7.82s CPU      7.99s WALL (     157 calls)
     fft          :     40.81s CPU     49.31s WALL (     216 calls)
     ffts         :      3.70s CPU      4.43s WALL (      23 calls)
     fftw         :    137.86s CPU    148.86s WALL (    1609 calls)

     Parallel routines

     PWSCF        :   7m10.24s CPU   8m 5.56s WALL


   This run was terminated on:  18: 2:58  12Oct2023            

=------------------------------------------------------------------------------=
   JOB DONE.
=------------------------------------------------------------------------------=
