
 Primary working directories    : /scratch/sirous/460870/molpro.MmVfaVEFzz
 Secondary working directories  : /scratch/sirous/460870/molpro.MmVfaVEFzz
 Wavefunction directory         : /scratch/sirous/460870/
 Main file repository           : /scratch/sirous/460870/molpro.MmVfaVEFzz/

 id        : karlovklimes

 Nodes                      nprocs
 nc-09.cc.karlov.mff.cuni.cz    4

 Using customized tuning parameters: mindgm=1; mindgv=20; mindgc=4; mindgr=1; noblas=0; minvec=7
 default implementation of scratch files=sf  


 Variables initialized (934), CPU time= 0.01 sec
 ***,CH3C6H4CN+CF3CN+BF3
 memory,500,m
 gdirect
 gthresh,energy=1.d-8,twoint=1.d-19,oneint=1.d-19,zero=1.d-15,orbital=1.d-8,grid=1.d-8
 symmetry,nosym
 geomtyp=xyz
                                                                                 ! Geometry
 geometry={
 H1        0.0176077530000000    0.6404641599999999     -0.7613515990000000
 H2        -0.0133778400000000    0.6316333020000000     0.7545505100000000
 H3        0.0240861940000000    4.3269150510000003     0.0012916600000000
 H4        0.9847960170000000    5.4998273129999999     -0.0163366190000000
 O1        0.0000000000000000    1.2272060000000000     0.0000000000000000
 O2        0.0472419370000000    5.2880053419999999     0.0025334240000000
 }
 
 
 
 basis=avqz
 
 
 
                                                                                 ! Dimer Calculation
 {rks,pbe,accu=1.d-8;orbital,2101.2}
 eab_PBE=energy
 
 
                                                                                 !monomer A
 dummy,3,4,6;                                                                    ! NOW MONOMER B IS DUMMY
 {rks,pbe,accu=1.d-8;orbital,2201.2}
 ea_PBE=energy
                                                                                 !monomer B
 dummy,1,2,5;                                                                    !NOW MONOMER A IS DUMMY
 {rks,pbe,accu=1.d-8;orbital,2301.2}
 eb_PBE=energy
 
 E_AB_int=eab_PBE-ea_PBE-eb_PBE
 
 
 text,results in hartree
 show,E_AB_int
 
 Commands  initialized (763), CPU time= 0.02 sec, 617 directives.
 Default parameters read. Elapsed time= 0.27 sec

 Checking input...
 Passed
1


                                         ***  PROGRAM SYSTEM MOLPRO  ***
                                       Copyright, TTI GmbH Stuttgart, 2015
                                    Version 2019.2 linked Jun  8 2019 11:26:33


 **********************************************************************************************************************************
 LABEL *   CH3C6H4CN+CF3CN+BF3                                                           
  64 bit mpp version                                                                     DATE: 27-Mar-20          TIME: 14:24:02  
 **********************************************************************************************************************************

 SHA1:             8135a10abc80eafa5b3ae28ffc55be4890dc4c84
 **********************************************************************************************************************************

 THRESHOLDS:

 ZERO    =  1.00D-15  ONEINT  =  1.00D-19  TWOINT  =  1.00D-19  PREFAC  =  1.00D-14  XXXXXX  =  1.00D-09  EORDER  =  1.00D-04
 ENERGY  =  1.00D-08  ETEST   =  0.00D+00  EDENS   =  0.00D+00  THRDEDEF=  1.00D-06  GRADIENT=  1.00D-02  STEP    =  1.00D-03
 ORBITAL =  1.00D-08  CIVEC   =  1.00D-05  COEFF   =  1.00D-04  PRINTCI =  5.00D-02  PUNCHCI =  9.90D+01  OPTGRAD =  3.00D-04
 OPTENERG=  1.00D-06  OPTSTEP =  3.00D-04  THRGRAD =  1.00D-10  COMPRESS=  1.00D-11  VARMIN  =  1.00D-07  VARMAX  =  1.00D-03
 THRDOUB =  0.00D+00  THRDIV  =  1.00D-05  THRRED  =  1.00D-07  THRPSP  =  1.00D+00  THRDC   =  1.00D-10  THRCS   =  1.00D-10
 THRNRM  =  1.00D-08  THREQ   =  0.00D+00  THRDE   =  1.00D+00  THRREF  =  1.00D-05  SPARFAC =  1.00D+00  THRDLP  =  1.00D-07
 THRDIA  =  1.00D-10  THRDLS  =  1.00D-07  THRGPS  =  0.00D+00  THRKEX  =  0.00D+00  THRDIS  =  2.00D-01  THRVAR  =  1.00D-10
 THRLOC  =  1.00D-06  THRGAP  =  1.00D-06  THRLOCT = -1.00D+00  THRGAPT = -1.00D+00  THRORB  =  1.00D-06  THRMLTP =  0.00D+00
 THRCPQCI=  1.00D-10  KEXTA   =  0.00D+00  THRCOARS=  0.00D+00  SYMTOL  =  1.00D-06  GRADTOL =  1.00D-06  THROVL  =  1.00D-08
 THRORTH =  1.00D-08  GRID    =  1.00D-08  GRIDMAX =  1.00D-03  DTMAX   =  0.00D+00  THROCCDE=  1.00D-01  THROCCDE=  1.00D-01
 THRPRINT=  2.50D-01


 Variable memory set to  500000000 words,  buffer space 

 SETTING GEOMTYP        =    XYZ
 ZSYMEL=NOSYM

 SETTING BASIS          =    AVQZ


 Recomputing integrals since basis changed


 Using spherical harmonics

 Library entry H      S aug-cc-pVQZ          selected for orbital group  1
 Library entry H      P aug-cc-pVQZ          selected for orbital group  1
 Library entry H      D aug-cc-pVQZ          selected for orbital group  1
 Library entry H      F aug-cc-pVQZ          selected for orbital group  1
 Library entry O      S aug-cc-pVQZ          selected for orbital group  2
 Library entry O      P aug-cc-pVQZ          selected for orbital group  2
 Library entry O      D aug-cc-pVQZ          selected for orbital group  2
 Library entry O      F aug-cc-pVQZ          selected for orbital group  2
 Library entry O      G aug-cc-pVQZ          selected for orbital group  2


 PROGRAM * SEWARD (Integral evaluation for generally contracted gaussian basis sets)     Author: Roland Lindh, 1990

 Geometry written to block  1 of record 700


 Point group  C1  



 ATOMIC COORDINATES

 NR  ATOM    CHARGE       X              Y              Z

   1  H1      1.00    0.033273831    1.210301855   -1.438746007
   2  H2      1.00   -0.025280454    1.193613952    1.425893811
   3  H3      1.00    0.045516310    8.176684411    0.002440884
   4  H4      1.00    1.860994761   10.393167354   -0.030871736
   5  O1      8.00    0.000000000    2.319083238    0.000000000
   6  O2      8.00    0.089274323    9.992881842    0.004787478

 Bond lengths in Bohr (Angstrom)

 1-5  1.816726005  2-5  1.816726005  3-6  1.816726005  4-6  1.816726006
     ( 0.961370000)     ( 0.961370000)     ( 0.961370001)     ( 0.961370001)

 Bond angles

  1-5-2  104.10700004   3-6-4  104.10699993

 NUCLEAR CHARGE:                   20
 NUMBER OF PRIMITIVE AOS:         464
 NUMBER OF SYMMETRY AOS:          378
 NUMBER OF CONTRACTIONS:          344   (  344A   )
 NUMBER OF CORE ORBITALS:           2   (    2A   )
 NUMBER OF VALENCE ORBITALS:       12   (   12A   )


 NUCLEAR REPULSION ENERGY   31.27082665


 Eigenvalues of metric

         1 0.574E-04 0.715E-04 0.877E-04 0.914E-04 0.215E-03 0.333E-03 0.366E-03 0.522E-03


 OPERATOR DM      FOR CENTER  0  COORDINATES:    0.000000    0.000000    0.000000


 **********************************************************************************************************************************
 DATASETS  * FILE   NREC   LENGTH (MB)   RECORD NAMES
              1      18       34.41       500      610      700      900      950      970     1000      129      960     1100   
                                          VAR    BASINP    GEOM    SYMINP    ZMAT    AOBASIS   BASIS     P2S    ABASIS      S 
                                         1400     1410     1200     1210     1080     1600     1650     1700   
                                           T        V       H0       H01     AOSYM     SMH    MOLCAS    OPER   

 PROGRAMS   *        TOTAL       INT
 CPU TIMES  *         0.63      0.45
 REAL TIME  *         1.85 SEC
 DISK USED  *        34.86 MB (local),      139.45 MB (total)
 GA USED    *         0.00 MB       (max)       0.00 MB       (current)
 **********************************************************************************************************************************

 Density functional group PBE=PBEX+PBEC
 Functional: PBEX(Automatically generated (new) PBEX)                          Gradient terms: 1
 Functional: PBEC(Automatically generated (new) PBEC)                          Gradient terms: 1
 Use libxcgrid:  F
 Use grid at  1800.2

 Functional: PBEX                      Factor:  1.0000
 Functional: PBEC                      Factor:  1.0000

 Generated new metagrid on record  1800.2 with target accuracy 1.0D-08 and 61576 points in CPU time    0.2
 Computed new grid on record 1800.1 in CPU time    0.2
  278712 words reserved for DFT integration

 PROGRAM * RKS-SCF (Restricted closed shell Kohn-Sham)     Authors: W. Meyer, H.-J. Werner, P.J. Knowles, 1993

 NUMBER OF ELECTRONS:      10+   10-    SPACE SYMMETRY=1    SPIN SYMMETRY: Singlet 
 CONVERGENCE THRESHOLDS:    1.00E-04 (Density)    1.00E-08 (Energy)
 INTEGRAL THRESHOLDS:       1.00E-11 (Initial)    1.00E-11 (Final)
 MAX. NUMBER OF ITERATIONS:       60
 INTERPOLATION TYPE:            DIIS
 INTERPOLATION STEPS:              2 (START)      1 (STEP)
 LEVEL SHIFTS:                  0.00 (CLOSED)  0.00 (OPEN) 



 Use fine grid record 1800.2 for energy threshold  1.0D-08
 Orbital guess generated from atomic densities. Full valence occupancy:   14

 Molecular orbital dump at record        2101.2

 Initial occupancy:  10

 Direct Fock-matrix evaluation.        Authors: Roland Lindh & Martin Schuetz (1993/96)

 Integral Threshold:                  0.1D-10
 Threshold for writing integrals:     0.1D-06
 Prescreening on density matrix:        ON 
 Calculation will be performed fully direct        

 ITERATION   DDIFF            GRAD            ENERGY        2-EL.EN.            DIPOLE MOMENTS         DIIS   CPU(IT)  CPU(TOT)
    1      0.000D+00      0.000D+00      -152.60644512    222.382062    0.85458   -1.80425   -0.02504    0     24.8     30.8     start
    2      0.000D+00      0.842D-02      -151.86673947    189.791648   -0.40334    0.37076    0.01148    1     20.6     51.4     diag
    3      0.113D-01      0.188D-01      -152.77472312    213.166872    0.57162   -1.26885   -0.01676    2     21.1     72.5     diag
    4      0.788D-02      0.503D-03      -152.77549894    212.382453    0.53451   -1.23951   -0.01571    3     19.8     92.3     diag
    5      0.309D-03      0.168D-03      -152.77553608    212.440465    0.54308   -1.23150   -0.01590    4     18.1    110.3     diag
    6      0.106D-03      0.108D-03      -152.77556192    212.480076    0.54042   -1.23308   -0.01588    5     17.1    127.4     diag
    7      0.504D-04      0.166D-04      -152.77556258    212.490438    0.54129   -1.23519   -0.01589    6     16.1    143.5     diag
    8      0.711D-05      0.968D-06      -152.77556258    212.490369    0.54134   -1.23502   -0.01589    7     13.4    156.9     diag
    9      0.507D-06      0.312D-06      -152.77556258    212.490353    0.54129   -1.23506   -0.01589    0     12.4    169.3     orth

 Final occupancy:  10

 !RKS STATE  1.1 Energy              -152.775562581443
 Nuclear energy                        31.27082665
 One-electron energy                 -271.81300531
 Two-electron energy                  106.24517652
 Density functional                   -18.47856045     PBEX=-17.82961261 PBEC= -0.64894784
 Virial quotient                       -1.00350381
 !RKS STATE  1.1 Dipole moment          0.54128697    -1.23505571    -0.01588738
 Dipole moment /Debye                   1.37572413    -3.13899290    -0.04037904

 Orbital energies:

         1.1          2.1          3.1          4.1          5.1          6.1          7.1          8.1          9.1         10.1
    -18.764679   -18.740574    -0.941617    -0.917694    -0.493738    -0.469825    -0.356382    -0.330716    -0.277107    -0.253739

        11.1         12.1
     -0.044546    -0.015848


 HOMO     10.1    -0.253739 =      -6.9046eV
 LUMO     11.1    -0.044546 =      -1.2122eV
 LUMO-HOMO         0.209193 =       5.6924eV


 **********************************************************************************************************************************
 DATASETS  * FILE   NREC   LENGTH (MB)   RECORD NAMES
              1      19       34.41       500      610      700      900      950      970     1000      129      960     1100   
                                          VAR    BASINP    GEOM    SYMINP    ZMAT    AOBASIS   BASIS     P2S    ABASIS      S 
                                         1400     1410     1200     1210     1080     1600     1650     1700     1800   
                                           T        V       H0       H01     AOSYM     SMH    MOLCAS    OPER     GRID   

              2       5        5.27       700     1000      520     1800     2101   
                                         GEOM     BASIS   MCVARS    GRID      RKS  

 PROGRAMS   *        TOTAL   RKS-SCF       INT
 CPU TIMES  *       170.28    169.65      0.45
 REAL TIME  *       178.63 SEC
 DISK USED  *        47.36 MB (local),      189.44 MB (total)
 SF USED    *         1.42 MB
 GA USED    *         2.04 MB       (max)       2.04 MB       (current)
 **********************************************************************************************************************************
 SETTING EAB_PBE        =      -152.77556258  AU                              

 Dummy atoms: H3  H4  O2


 Recomputing one-electron integrals since nuclear charges changed


 PROGRAM * SEWARD (Integral evaluation for generally contracted gaussian basis sets)     Author: Roland Lindh, 1990

 Geometry written to block  1 of record 700


 Point group  C1  



 ATOMIC COORDINATES

 NR  ATOM    CHARGE       X              Y              Z

   1  H1      1.00    0.033273831    1.210301855   -1.438746007
   2  H2      1.00   -0.025280454    1.193613952    1.425893811
   3  H3      0.00    0.045516310    8.176684411    0.002440884
   4  H4      0.00    1.860994761   10.393167354   -0.030871736
   5  O1      8.00    0.000000000    2.319083238    0.000000000
   6  O2      0.00    0.089274323    9.992881842    0.004787478

 Bond lengths in Bohr (Angstrom)

 1-5  1.816726005  2-5  1.816726005  3-6  1.816726005  4-6  1.816726006
     ( 0.961370000)     ( 0.961370000)     ( 0.961370001)     ( 0.961370001)

 Bond angles

  1-5-2  104.10700004   3-6-4  104.10699993

 NUCLEAR CHARGE:                   10
 NUMBER OF PRIMITIVE AOS:         464
 NUMBER OF SYMMETRY AOS:          378
 NUMBER OF CONTRACTIONS:          344   (  344A   )
 NUMBER OF CORE ORBITALS:           1   (    1A   )
 NUMBER OF VALENCE ORBITALS:        6   (    6A   )

 MOLECULE CHANGED: INITIALIZING OCCUPATION AND DUMP RECORDS


 NUCLEAR REPULSION ENERGY    9.15605699


 Eigenvalues of metric

         1 0.574E-04 0.715E-04 0.877E-04 0.914E-04 0.215E-03 0.333E-03 0.366E-03 0.522E-03


 OPERATOR DM      FOR CENTER  0  COORDINATES:    0.000000    0.000000    0.000000


 **********************************************************************************************************************************
 DATASETS  * FILE   NREC   LENGTH (MB)   RECORD NAMES
              1      19       34.41       500      610      700      900      950      970     1000      129      960     1100   
                                          VAR    BASINP    GEOM    SYMINP    ZMAT    AOBASIS   BASIS     P2S    ABASIS      S 
                                         1400     1410     1200     1210     1080     1600     1650     1700     1800   
                                           T        V       H0       H01     AOSYM     SMH    MOLCAS    OPER     GRID   

              2       5        5.27       700     1000      520     1800     2101   
                                         GEOM     BASIS   MCVARS    GRID      RKS  

 PROGRAMS   *        TOTAL       INT   RKS-SCF       INT
 CPU TIMES  *       170.44      0.15    169.65      0.45
 REAL TIME  *       178.85 SEC
 DISK USED  *        47.36 MB (local),      189.44 MB (total)
 SF USED    *         1.42 MB
 GA USED    *         2.04 MB       (max)       2.04 MB       (current)
 **********************************************************************************************************************************

 Density functional group PBE=PBEX+PBEC
 Functional: PBEX(Automatically generated (new) PBEX)                          Gradient terms: 1
 Functional: PBEC(Automatically generated (new) PBEC)                          Gradient terms: 1
 Use libxcgrid:  F
 Use grid at  1800.2

 Functional: PBEX                      Factor:  1.0000
 Functional: PBEC                      Factor:  1.0000

 Generated new metagrid on record  1800.2 with target accuracy 1.0D-08 and 61576 points in CPU time    0.2
 Computed new grid on record 1800.1 in CPU time    0.2
  278712 words reserved for DFT integration

 PROGRAM * RKS-SCF (Restricted closed shell Kohn-Sham)     Authors: W. Meyer, H.-J. Werner, P.J. Knowles, 1993

 NUMBER OF ELECTRONS:       5+    5-    SPACE SYMMETRY=1    SPIN SYMMETRY: Singlet 
 CONVERGENCE THRESHOLDS:    1.00E-04 (Density)    1.00E-08 (Energy)
 INTEGRAL THRESHOLDS:       1.00E-11 (Initial)    1.00E-11 (Final)
 MAX. NUMBER OF ITERATIONS:       60
 INTERPOLATION TYPE:            DIIS
 INTERPOLATION STEPS:              2 (START)      1 (STEP)
 LEVEL SHIFTS:                  0.00 (CLOSED)  0.00 (OPEN) 



 Use fine grid record 1800.2 for energy threshold  1.0D-08
 Orbital guess generated from atomic densities. Full valence occupancy:    7

 Molecular orbital dump at record        2201.2

 Initial occupancy:   5

 Direct Fock-matrix evaluation.        Authors: Roland Lindh & Martin Schuetz (1993/96)

 Integral Threshold:                  0.1D-10
 Threshold for writing integrals:     0.1D-06
 Prescreening on density matrix:        ON 
 Calculation will be performed fully direct        

 ITERATION   DDIFF            GRAD            ENERGY        2-EL.EN.            DIPOLE MOMENTS         DIIS   CPU(IT)  CPU(TOT)
    1      0.000D+00      0.000D+00       -76.30036132     98.210645    0.00392   -1.09998   -0.00633    0     22.8     27.5     start
    2      0.000D+00      0.841D-02       -75.91392179     81.820218   -0.00161    0.44008    0.00257    1     20.3     47.8     diag
    3      0.810D-02      0.190D-01       -76.38594294     93.603132    0.00263   -0.73800   -0.00425    2     20.1     67.9     diag
    4      0.570D-02      0.500D-03       -76.38635987     93.201558    0.00253   -0.70818   -0.00407    3     18.2     86.0     diag
    5      0.213D-03      0.109D-03       -76.38637305     93.250963    0.00253   -0.70667   -0.00407    4     16.7    102.7     diag
    6      0.280D-04      0.247D-04       -76.38637383     93.261835    0.00253   -0.70895   -0.00408    5     15.1    117.8     diag
    7      0.708D-05      0.973D-06       -76.38637383     93.261850    0.00253   -0.70884   -0.00408    6     12.0    129.8     diag
    8      0.254D-06      0.792D-07       -76.38637383     93.261953    0.00253   -0.70886   -0.00408    0      9.2    139.0     orth

 Final occupancy:   5

 !RKS STATE  1.1 Energy               -76.386373830548
 Nuclear energy                         9.15605699
 One-electron energy                 -122.93449686
 Two-electron energy                   46.63097643
 Density functional                    -9.23891039     PBEX=-8.91449695 PBEC=-0.32441344
 Virial quotient                       -1.00345190
 !RKS STATE  1.1 Dipole moment          0.00253254    -0.70886123    -0.00407873
 Dipole moment /Debye                   0.00643665    -1.80162753    -0.01036641

 Orbital energies:

         1.1          2.1          3.1          4.1          5.1          6.1          7.1
    -18.753910    -0.931045    -0.483398    -0.343742    -0.266314    -0.034588     0.016043


 HOMO      5.1    -0.266314 =      -7.2468eV
 LUMO      6.1    -0.034588 =      -0.9412eV
 LUMO-HOMO         0.231726 =       6.3056eV


 **********************************************************************************************************************************
 DATASETS  * FILE   NREC   LENGTH (MB)   RECORD NAMES
              1      19       34.41       500      610      700      900      950      970     1000      129      960     1100   
                                          VAR    BASINP    GEOM    SYMINP    ZMAT    AOBASIS   BASIS     P2S    ABASIS      S 
                                         1400     1410     1200     1210     1080     1600     1650     1700     1800   
                                           T        V       H0       H01     AOSYM     SMH    MOLCAS    OPER     GRID   

              2       6       12.51       700     1000      520     1800     2101     2201   
                                         GEOM     BASIS   MCVARS    GRID      RKS      RKS  

 PROGRAMS   *        TOTAL   RKS-SCF       INT   RKS-SCF       INT
 CPU TIMES  *       309.86    139.42      0.15    169.65      0.45
 REAL TIME  *       322.06 SEC
 DISK USED  *        54.13 MB (local),      216.51 MB (total)
 SF USED    *         1.42 MB
 GA USED    *         2.04 MB       (max)       2.04 MB       (current)
 **********************************************************************************************************************************
 SETTING EA_PBE         =       -76.38637383  AU                              

 Dummy atoms: H1  H2  O1


 Recomputing one-electron integrals since nuclear charges changed


 PROGRAM * SEWARD (Integral evaluation for generally contracted gaussian basis sets)     Author: Roland Lindh, 1990

 Geometry written to block  1 of record 700


 Point group  C1  



 ATOMIC COORDINATES

 NR  ATOM    CHARGE       X              Y              Z

   1  H1      0.00    0.033273831    1.210301855   -1.438746007
   2  H2      0.00   -0.025280454    1.193613952    1.425893811
   3  H3      1.00    0.045516310    8.176684411    0.002440884
   4  H4      1.00    1.860994761   10.393167354   -0.030871736
   5  O1      0.00    0.000000000    2.319083238    0.000000000
   6  O2      8.00    0.089274323    9.992881842    0.004787478

 Bond lengths in Bohr (Angstrom)

 1-5  1.816726005  2-5  1.816726005  3-6  1.816726005  4-6  1.816726006
     ( 0.961370000)     ( 0.961370000)     ( 0.961370001)     ( 0.961370001)

 Bond angles

  1-5-2  104.10700004   3-6-4  104.10699993

 NUCLEAR CHARGE:                   10
 NUMBER OF PRIMITIVE AOS:         464
 NUMBER OF SYMMETRY AOS:          378
 NUMBER OF CONTRACTIONS:          344   (  344A   )
 NUMBER OF CORE ORBITALS:           1   (    1A   )
 NUMBER OF VALENCE ORBITALS:        6   (    6A   )

 MOLECULE CHANGED: INITIALIZING OCCUPATION AND DUMP RECORDS


 NUCLEAR REPULSION ENERGY    9.15605698


 Eigenvalues of metric

         1 0.574E-04 0.715E-04 0.877E-04 0.914E-04 0.215E-03 0.333E-03 0.366E-03 0.522E-03


 OPERATOR DM      FOR CENTER  0  COORDINATES:    0.000000    0.000000    0.000000


 **********************************************************************************************************************************
 DATASETS  * FILE   NREC   LENGTH (MB)   RECORD NAMES
              1      19       34.41       500      610      700      900      950      970     1000      129      960     1100   
                                          VAR    BASINP    GEOM    SYMINP    ZMAT    AOBASIS   BASIS     P2S    ABASIS      S 
                                         1400     1410     1200     1210     1080     1600     1650     1700     1800   
                                           T        V       H0       H01     AOSYM     SMH    MOLCAS    OPER     GRID   

              2       6       12.51       700     1000      520     1800     2101     2201   
                                         GEOM     BASIS   MCVARS    GRID      RKS      RKS  

 PROGRAMS   *        TOTAL       INT   RKS-SCF       INT   RKS-SCF       INT
 CPU TIMES  *       310.02      0.15    139.42      0.15    169.65      0.45
 REAL TIME  *       322.27 SEC
 DISK USED  *        54.13 MB (local),      216.51 MB (total)
 SF USED    *         1.42 MB
 GA USED    *         2.04 MB       (max)       2.04 MB       (current)
 **********************************************************************************************************************************

 Density functional group PBE=PBEX+PBEC
 Functional: PBEX(Automatically generated (new) PBEX)                          Gradient terms: 1
 Functional: PBEC(Automatically generated (new) PBEC)                          Gradient terms: 1
 Use libxcgrid:  F
 Use grid at  1800.2

 Functional: PBEX                      Factor:  1.0000
 Functional: PBEC                      Factor:  1.0000

  278712 words reserved for DFT integration

 PROGRAM * RKS-SCF (Restricted closed shell Kohn-Sham)     Authors: W. Meyer, H.-J. Werner, P.J. Knowles, 1993

 NUMBER OF ELECTRONS:       5+    5-    SPACE SYMMETRY=1    SPIN SYMMETRY: Singlet 
 CONVERGENCE THRESHOLDS:    1.00E-04 (Density)    1.00E-08 (Energy)
 INTEGRAL THRESHOLDS:       1.00E-11 (Initial)    1.00E-11 (Final)
 MAX. NUMBER OF ITERATIONS:       60
 INTERPOLATION TYPE:            DIIS
 INTERPOLATION STEPS:              2 (START)      1 (STEP)
 LEVEL SHIFTS:                  0.00 (CLOSED)  0.00 (OPEN) 



 Use fine grid record 1800.2 for energy threshold  1.0D-08
 Orbital guess generated from atomic densities. Full valence occupancy:    7

 Molecular orbital dump at record        2301.2

 Initial occupancy:   5

 Direct Fock-matrix evaluation.        Authors: Roland Lindh & Martin Schuetz (1993/96)

 Integral Threshold:                  0.1D-10
 Threshold for writing integrals:     0.1D-06
 Prescreening on density matrix:        ON 
 Calculation will be performed fully direct        

 ITERATION   DDIFF            GRAD            ENERGY        2-EL.EN.            DIPOLE MOMENTS         DIIS   CPU(IT)  CPU(TOT)
    1      0.000D+00      0.000D+00       -76.30035967     98.210569    0.85074   -0.69711   -0.01871    0     21.8     27.4     start
    2      0.000D+00      0.841D-02       -75.91337708     81.810674   -0.34208    0.28706    0.00760    1     20.4     47.8     diag
    3      0.805D-02      0.190D-01       -76.38593790     93.603833    0.57082   -0.46785   -0.01256    2     19.8     67.6     diag
    4      0.561D-02      0.501D-03       -76.38635670     93.201308    0.54778   -0.44882   -0.01205    3     18.2     85.8     diag
    5      0.224D-03      0.109D-03       -76.38636998     93.250904    0.54658   -0.44790   -0.01202    4     15.6    101.4     diag
    6      0.282D-04      0.248D-04       -76.38637076     93.261815    0.54836   -0.44934   -0.01206    5     15.7    117.1     diag
    7      0.718D-05      0.978D-06       -76.38637076     93.261832    0.54827   -0.44927   -0.01206    6     12.2    129.4     diag
    8      0.254D-06      0.810D-07       -76.38637076     93.261936    0.54829   -0.44928   -0.01206    0      8.4    137.8     orth

 Final occupancy:   5

 !RKS STATE  1.1 Energy               -76.386370764633
 Nuclear energy                         9.15605698
 One-electron energy                 -122.93448542
 Two-electron energy                   46.63096815
 Density functional                    -9.23891048     PBEX=-8.91449722 PBEC=-0.32441326
 Virial quotient                       -1.00345198
 !RKS STATE  1.1 Dipole moment          0.54828626    -0.44928357    -0.01205774
 Dipole moment /Debye                   1.39351339    -1.14189013    -0.03064570

 Orbital energies:

         1.1          2.1          3.1          4.1          5.1          6.1          7.1
    -18.753904    -0.931048    -0.483400    -0.343743    -0.266316    -0.034655     0.014381


 HOMO      5.1    -0.266316 =      -7.2468eV
 LUMO      6.1    -0.034655 =      -0.9430eV
 LUMO-HOMO         0.231661 =       6.3038eV


 **********************************************************************************************************************************
 DATASETS  * FILE   NREC   LENGTH (MB)   RECORD NAMES
              1      19       34.41       500      610      700      900      950      970     1000      129      960     1100   
                                          VAR    BASINP    GEOM    SYMINP    ZMAT    AOBASIS   BASIS     P2S    ABASIS      S 
                                         1400     1410     1200     1210     1080     1600     1650     1700     1800   
                                           T        V       H0       H01     AOSYM     SMH    MOLCAS    OPER     GRID   

              2       7       19.75       700     1000      520     1800     2101     2201     2301   
                                         GEOM     BASIS   MCVARS    GRID      RKS      RKS      RKS  

 PROGRAMS   *        TOTAL   RKS-SCF       INT   RKS-SCF       INT   RKS-SCF       INT
 CPU TIMES  *       447.93    137.91      0.15    139.42      0.15    169.65      0.45
 REAL TIME  *       465.02 SEC
 DISK USED  *        61.37 MB (local),      245.47 MB (total)
 SF USED    *         1.42 MB
 GA USED    *         2.04 MB       (max)       2.04 MB       (current)
 **********************************************************************************************************************************
 SETTING EB_PBE         =       -76.38637076  AU                              
 SETTING E_AB_INT       =        -0.00281799  AU                              

 *** results in hartree
 E_AB_INT         =        -0.00281799 AU
 Molecular orbitals read from record     2301.2  Type=RKS/CANONICAL (state 1.1)
 Occupation numbers read from record     2301.2  Type=RKS/RHF (state 1.1)
 Orbital energies read from record       2301.2  Type=RKS/CANONICAL (state 1.1)
 Redundancy group numbers read from rec  2301.2  Type=RKS/RHF (state 1.1)

 RPBE/aug-cc-pVQZ energy=    -76.386370764633

         RKS-SCF         RKS-SCF         RKS-SCF
    -76.38637076    -76.38637383   -152.77556258
 **********************************************************************************************************************************
 Molpro calculation terminated
