
 Primary working directories    : /scratch/sirous/460885/molpro.Je1rnTT8tS
 Secondary working directories  : /scratch/sirous/460885/molpro.Je1rnTT8tS
 Wavefunction directory         : /scratch/sirous/460885/
 Main file repository           : /scratch/sirous/460885/molpro.Je1rnTT8tS/

 id        : karlovklimes

 Nodes                      nprocs
 nc-08.cc.karlov.mff.cuni.cz    4

 Using customized tuning parameters: mindgm=1; mindgv=20; mindgc=4; mindgr=1; noblas=0; minvec=7
 default implementation of scratch files=sf  


 Variables initialized (934), CPU time= 0.01 sec
 ***,CH3C6H4CN+CF3CN+BF3
 memory,500,m
 gdirect
 gthresh,energy=1.d-8,twoint=1.d-19,oneint=1.d-19,zero=1.d-15,orbital=1.d-8,grid=1.d-8
 symmetry,nosym
 geomtyp=xyz
                                                                                 ! Geometry
 geometry={
 H1        0.0176077530000000    0.6404641599999999     -0.7613515990000000
 H2        -0.0133778400000000    0.6316333020000000     0.7545505100000000
 H3        0.0240861940000000    5.8269150510000003     0.0012916600000000
 H4        0.9847960170000000    6.9998273129999999     -0.0163366190000000
 O1        0.0000000000000000    1.2272060000000000     0.0000000000000000
 O2        0.0472419370000000    6.7880053419999999     0.0025334240000000
 }
 
 
 
 basis=avqz
 
 
 
                                                                                 ! Dimer Calculation
 {rks,pbe,accu=1.d-8;orbital,2101.2}
 eab_PBE=energy
 
 
                                                                                 !monomer A
 dummy,3,4,6;                                                                    ! NOW MONOMER B IS DUMMY
 {rks,pbe,accu=1.d-8;orbital,2201.2}
 ea_PBE=energy
                                                                                 !monomer B
 dummy,1,2,5;                                                                    !NOW MONOMER A IS DUMMY
 {rks,pbe,accu=1.d-8;orbital,2301.2}
 eb_PBE=energy
 
 E_AB_int=eab_PBE-ea_PBE-eb_PBE
 
 
 text,results in hartree
 show,E_AB_int
 
 Commands  initialized (763), CPU time= 0.02 sec, 617 directives.
 Default parameters read. Elapsed time= 0.23 sec

 Checking input...
 Passed
1


                                         ***  PROGRAM SYSTEM MOLPRO  ***
                                       Copyright, TTI GmbH Stuttgart, 2015
                                    Version 2019.2 linked Jun  8 2019 11:26:33


 **********************************************************************************************************************************
 LABEL *   CH3C6H4CN+CF3CN+BF3                                                           
  64 bit mpp version                                                                     DATE: 27-Mar-20          TIME: 14:27:01  
 **********************************************************************************************************************************

 SHA1:             8135a10abc80eafa5b3ae28ffc55be4890dc4c84
 **********************************************************************************************************************************

 THRESHOLDS:

 ZERO    =  1.00D-15  ONEINT  =  1.00D-19  TWOINT  =  1.00D-19  PREFAC  =  1.00D-14  XXXXXX  =  1.00D-09  EORDER  =  1.00D-04
 ENERGY  =  1.00D-08  ETEST   =  0.00D+00  EDENS   =  0.00D+00  THRDEDEF=  1.00D-06  GRADIENT=  1.00D-02  STEP    =  1.00D-03
 ORBITAL =  1.00D-08  CIVEC   =  1.00D-05  COEFF   =  1.00D-04  PRINTCI =  5.00D-02  PUNCHCI =  9.90D+01  OPTGRAD =  3.00D-04
 OPTENERG=  1.00D-06  OPTSTEP =  3.00D-04  THRGRAD =  1.00D-10  COMPRESS=  1.00D-11  VARMIN  =  1.00D-07  VARMAX  =  1.00D-03
 THRDOUB =  0.00D+00  THRDIV  =  1.00D-05  THRRED  =  1.00D-07  THRPSP  =  1.00D+00  THRDC   =  1.00D-10  THRCS   =  1.00D-10
 THRNRM  =  1.00D-08  THREQ   =  0.00D+00  THRDE   =  1.00D+00  THRREF  =  1.00D-05  SPARFAC =  1.00D+00  THRDLP  =  1.00D-07
 THRDIA  =  1.00D-10  THRDLS  =  1.00D-07  THRGPS  =  0.00D+00  THRKEX  =  0.00D+00  THRDIS  =  2.00D-01  THRVAR  =  1.00D-10
 THRLOC  =  1.00D-06  THRGAP  =  1.00D-06  THRLOCT = -1.00D+00  THRGAPT = -1.00D+00  THRORB  =  1.00D-06  THRMLTP =  0.00D+00
 THRCPQCI=  1.00D-10  KEXTA   =  0.00D+00  THRCOARS=  0.00D+00  SYMTOL  =  1.00D-06  GRADTOL =  1.00D-06  THROVL  =  1.00D-08
 THRORTH =  1.00D-08  GRID    =  1.00D-08  GRIDMAX =  1.00D-03  DTMAX   =  0.00D+00  THROCCDE=  1.00D-01  THROCCDE=  1.00D-01
 THRPRINT=  2.50D-01


 Variable memory set to  500000000 words,  buffer space 

 SETTING GEOMTYP        =    XYZ
 ZSYMEL=NOSYM

 SETTING BASIS          =    AVQZ


 Recomputing integrals since basis changed


 Using spherical harmonics

 Library entry H      S aug-cc-pVQZ          selected for orbital group  1
 Library entry H      P aug-cc-pVQZ          selected for orbital group  1
 Library entry H      D aug-cc-pVQZ          selected for orbital group  1
 Library entry H      F aug-cc-pVQZ          selected for orbital group  1
 Library entry O      S aug-cc-pVQZ          selected for orbital group  2
 Library entry O      P aug-cc-pVQZ          selected for orbital group  2
 Library entry O      D aug-cc-pVQZ          selected for orbital group  2
 Library entry O      F aug-cc-pVQZ          selected for orbital group  2
 Library entry O      G aug-cc-pVQZ          selected for orbital group  2


 PROGRAM * SEWARD (Integral evaluation for generally contracted gaussian basis sets)     Author: Roland Lindh, 1990

 Geometry written to block  1 of record 700


 Point group  C1  



 ATOMIC COORDINATES

 NR  ATOM    CHARGE       X              Y              Z

   1  H1      1.00    0.033273831    1.210301855   -1.438746007
   2  H2      1.00   -0.025280454    1.193613952    1.425893811
   3  H3      1.00    0.045516310   11.011273597    0.002440884
   4  H4      1.00    1.860994761   13.227756541   -0.030871736
   5  O1      8.00    0.000000000    2.319083238    0.000000000
   6  O2      8.00    0.089274323   12.827471028    0.004787478

 Bond lengths in Bohr (Angstrom)

 1-5  1.816726005  2-5  1.816726005  3-6  1.816726005  4-6  1.816726006
     ( 0.961370000)     ( 0.961370000)     ( 0.961370001)     ( 0.961370001)

 Bond angles

  1-5-2  104.10700004   3-6-4  104.10699993

 NUCLEAR CHARGE:                   20
 NUMBER OF PRIMITIVE AOS:         464
 NUMBER OF SYMMETRY AOS:          378
 NUMBER OF CONTRACTIONS:          344   (  344A   )
 NUMBER OF CORE ORBITALS:           2   (    2A   )
 NUMBER OF VALENCE ORBITALS:       12   (   12A   )


 NUCLEAR REPULSION ENERGY   27.77642849


 Eigenvalues of metric

         1 0.728E-04 0.751E-04 0.986E-04 0.105E-03 0.332E-03 0.353E-03 0.453E-03 0.591E-03


 OPERATOR DM      FOR CENTER  0  COORDINATES:    0.000000    0.000000    0.000000


 **********************************************************************************************************************************
 DATASETS  * FILE   NREC   LENGTH (MB)   RECORD NAMES
              1      18       34.41       500      610      700      900      950      970     1000      129      960     1100   
                                          VAR    BASINP    GEOM    SYMINP    ZMAT    AOBASIS   BASIS     P2S    ABASIS      S 
                                         1400     1410     1200     1210     1080     1600     1650     1700   
                                           T        V       H0       H01     AOSYM     SMH    MOLCAS    OPER   

 PROGRAMS   *        TOTAL       INT
 CPU TIMES  *         0.51      0.34
 REAL TIME  *         1.21 SEC
 DISK USED  *        34.86 MB (local),      139.45 MB (total)
 GA USED    *         0.00 MB       (max)       0.00 MB       (current)
 **********************************************************************************************************************************

 Density functional group PBE=PBEX+PBEC
 Functional: PBEX(Automatically generated (new) PBEX)                          Gradient terms: 1
 Functional: PBEC(Automatically generated (new) PBEC)                          Gradient terms: 1
 Use libxcgrid:  F
 Use grid at  1800.2

 Functional: PBEX                      Factor:  1.0000
 Functional: PBEC                      Factor:  1.0000

 Generated new metagrid on record  1800.2 with target accuracy 1.0D-08 and 61576 points in CPU time    0.2
 Computed new grid on record 1800.1 in CPU time    0.2
  278712 words reserved for DFT integration

 PROGRAM * RKS-SCF (Restricted closed shell Kohn-Sham)     Authors: W. Meyer, H.-J. Werner, P.J. Knowles, 1993

 NUMBER OF ELECTRONS:      10+   10-    SPACE SYMMETRY=1    SPIN SYMMETRY: Singlet 
 CONVERGENCE THRESHOLDS:    1.00E-04 (Density)    1.00E-08 (Energy)
 INTEGRAL THRESHOLDS:       1.00E-11 (Initial)    1.00E-11 (Final)
 MAX. NUMBER OF ITERATIONS:       60
 INTERPOLATION TYPE:            DIIS
 INTERPOLATION STEPS:              2 (START)      1 (STEP)
 LEVEL SHIFTS:                  0.00 (CLOSED)  0.00 (OPEN) 



 Use fine grid record 1800.2 for energy threshold  1.0D-08
 Orbital guess generated from atomic densities. Full valence occupancy:   14

 Molecular orbital dump at record        2101.2

 Initial occupancy:  10

 Direct Fock-matrix evaluation.        Authors: Roland Lindh & Martin Schuetz (1993/96)

 Integral Threshold:                  0.1D-10
 Threshold for writing integrals:     0.1D-06
 Prescreening on density matrix:        ON 
 Calculation will be performed fully direct        

 ITERATION   DDIFF            GRAD            ENERGY        2-EL.EN.            DIPOLE MOMENTS         DIIS   CPU(IT)  CPU(TOT)
    1      0.000D+00      0.000D+00      -152.60249140    215.395600    0.85470   -1.79759   -0.02504    0     15.4     18.7     start
    2      0.000D+00      0.845D-02      -151.84261979    182.654758   -0.36769    0.57601    0.01041    1     12.8     31.5     diag
    3      0.113D-01      0.190D-01      -152.77271942    206.168623    0.57205   -1.22505   -0.01676    2     12.9     44.4     diag
    4      0.788D-02      0.502D-03      -152.77353935    205.370529    0.54453   -1.18499   -0.01596    3     11.9     56.4     diag
    5      0.305D-03      0.112D-03      -152.77356323    205.461682    0.54653   -1.17954   -0.01601    4     11.3     67.7     diag
    6      0.481D-04      0.459D-04      -152.77356660    205.481518    0.54547   -1.18304   -0.01600    5     10.5     78.2     diag
    7      0.289D-04      0.261D-04      -152.77356813    205.487221    0.54678   -1.18389   -0.01602    6     10.2     88.4     diag
    8      0.117D-04      0.888D-06      -152.77356814    205.487135    0.54674   -1.18374   -0.01602    7      9.1     97.5     diag
    9      0.371D-06      0.140D-06      -152.77356814    205.487243    0.54673   -1.18377   -0.01602    0      8.8    106.3     orth

 Final occupancy:  10

 !RKS STATE  1.1 Energy              -152.773568136361
 Nuclear energy                        27.77642849
 One-electron energy                 -264.81556945
 Two-electron energy                  102.74362160
 Density functional                   -18.47804877     PBEX=-17.82920608 PBEC= -0.64884269
 Virial quotient                       -1.00346713
 !RKS STATE  1.1 Dipole moment          0.54672598    -1.18377475    -0.01602293
 Dipole moment /Debye                   1.38954783    -3.00865822    -0.04072356

 Orbital energies:

         1.1          2.1          3.1          4.1          5.1          6.1          7.1          8.1          9.1         10.1
    -18.758850   -18.747149    -0.935967    -0.924291    -0.488274    -0.476569    -0.349178    -0.337173    -0.271346    -0.259799

        11.1         12.1
     -0.040462    -0.025171


 HOMO     10.1    -0.259799 =      -7.0695eV
 LUMO     11.1    -0.040462 =      -1.1010eV
 LUMO-HOMO         0.219338 =       5.9685eV


 **********************************************************************************************************************************
 DATASETS  * FILE   NREC   LENGTH (MB)   RECORD NAMES
              1      19       34.41       500      610      700      900      950      970     1000      129      960     1100   
                                          VAR    BASINP    GEOM    SYMINP    ZMAT    AOBASIS   BASIS     P2S    ABASIS      S 
                                         1400     1410     1200     1210     1080     1600     1650     1700     1800   
                                           T        V       H0       H01     AOSYM     SMH    MOLCAS    OPER     GRID   

              2       5        5.27       700     1000      520     1800     2101   
                                         GEOM     BASIS   MCVARS    GRID      RKS  

 PROGRAMS   *        TOTAL   RKS-SCF       INT
 CPU TIMES  *       107.10    106.59      0.34
 REAL TIME  *       110.02 SEC
 DISK USED  *        47.36 MB (local),      189.44 MB (total)
 SF USED    *         1.42 MB
 GA USED    *         2.04 MB       (max)       2.04 MB       (current)
 **********************************************************************************************************************************
 SETTING EAB_PBE        =      -152.77356814  AU                              

 Dummy atoms: H3  H4  O2


 Recomputing one-electron integrals since nuclear charges changed


 PROGRAM * SEWARD (Integral evaluation for generally contracted gaussian basis sets)     Author: Roland Lindh, 1990

 Geometry written to block  1 of record 700


 Point group  C1  



 ATOMIC COORDINATES

 NR  ATOM    CHARGE       X              Y              Z

   1  H1      1.00    0.033273831    1.210301855   -1.438746007
   2  H2      1.00   -0.025280454    1.193613952    1.425893811
   3  H3      0.00    0.045516310   11.011273597    0.002440884
   4  H4      0.00    1.860994761   13.227756541   -0.030871736
   5  O1      8.00    0.000000000    2.319083238    0.000000000
   6  O2      0.00    0.089274323   12.827471028    0.004787478

 Bond lengths in Bohr (Angstrom)

 1-5  1.816726005  2-5  1.816726005  3-6  1.816726005  4-6  1.816726006
     ( 0.961370000)     ( 0.961370000)     ( 0.961370001)     ( 0.961370001)

 Bond angles

  1-5-2  104.10700004   3-6-4  104.10699993

 NUCLEAR CHARGE:                   10
 NUMBER OF PRIMITIVE AOS:         464
 NUMBER OF SYMMETRY AOS:          378
 NUMBER OF CONTRACTIONS:          344   (  344A   )
 NUMBER OF CORE ORBITALS:           1   (    1A   )
 NUMBER OF VALENCE ORBITALS:        6   (    6A   )

 MOLECULE CHANGED: INITIALIZING OCCUPATION AND DUMP RECORDS


 NUCLEAR REPULSION ENERGY    9.15605699


 Eigenvalues of metric

         1 0.728E-04 0.751E-04 0.986E-04 0.105E-03 0.332E-03 0.353E-03 0.453E-03 0.591E-03


 OPERATOR DM      FOR CENTER  0  COORDINATES:    0.000000    0.000000    0.000000


 **********************************************************************************************************************************
 DATASETS  * FILE   NREC   LENGTH (MB)   RECORD NAMES
              1      19       34.41       500      610      700      900      950      970     1000      129      960     1100   
                                          VAR    BASINP    GEOM    SYMINP    ZMAT    AOBASIS   BASIS     P2S    ABASIS      S 
                                         1400     1410     1200     1210     1080     1600     1650     1700     1800   
                                           T        V       H0       H01     AOSYM     SMH    MOLCAS    OPER     GRID   

              2       5        5.27       700     1000      520     1800     2101   
                                         GEOM     BASIS   MCVARS    GRID      RKS  

 PROGRAMS   *        TOTAL       INT   RKS-SCF       INT
 CPU TIMES  *       107.22      0.11    106.59      0.34
 REAL TIME  *       110.17 SEC
 DISK USED  *        47.36 MB (local),      189.44 MB (total)
 SF USED    *         1.42 MB
 GA USED    *         2.04 MB       (max)       2.04 MB       (current)
 **********************************************************************************************************************************

 Density functional group PBE=PBEX+PBEC
 Functional: PBEX(Automatically generated (new) PBEX)                          Gradient terms: 1
 Functional: PBEC(Automatically generated (new) PBEC)                          Gradient terms: 1
 Use libxcgrid:  F
 Use grid at  1800.2

 Functional: PBEX                      Factor:  1.0000
 Functional: PBEC                      Factor:  1.0000

 Generated new metagrid on record  1800.2 with target accuracy 1.0D-08 and 61576 points in CPU time    0.2
 Computed new grid on record 1800.1 in CPU time    0.2
  278712 words reserved for DFT integration

 PROGRAM * RKS-SCF (Restricted closed shell Kohn-Sham)     Authors: W. Meyer, H.-J. Werner, P.J. Knowles, 1993

 NUMBER OF ELECTRONS:       5+    5-    SPACE SYMMETRY=1    SPIN SYMMETRY: Singlet 
 CONVERGENCE THRESHOLDS:    1.00E-04 (Density)    1.00E-08 (Energy)
 INTEGRAL THRESHOLDS:       1.00E-11 (Initial)    1.00E-11 (Final)
 MAX. NUMBER OF ITERATIONS:       60
 INTERPOLATION TYPE:            DIIS
 INTERPOLATION STEPS:              2 (START)      1 (STEP)
 LEVEL SHIFTS:                  0.00 (CLOSED)  0.00 (OPEN) 



 Use fine grid record 1800.2 for energy threshold  1.0D-08
 Orbital guess generated from atomic densities. Full valence occupancy:    7

 Molecular orbital dump at record        2201.2

 Initial occupancy:   5

 Direct Fock-matrix evaluation.        Authors: Roland Lindh & Martin Schuetz (1993/96)

 Integral Threshold:                  0.1D-10
 Threshold for writing integrals:     0.1D-06
 Prescreening on density matrix:        ON 
 Calculation will be performed fully direct        

 ITERATION   DDIFF            GRAD            ENERGY        2-EL.EN.            DIPOLE MOMENTS         DIIS   CPU(IT)  CPU(TOT)
    1      0.000D+00      0.000D+00       -76.30035924     98.210454    0.00393   -1.10004   -0.00633    0     13.5     17.1     start
    2      0.000D+00      0.841D-02       -75.91433821     81.827430   -0.00132    0.43731    0.00253    1     12.4     29.5     diag
    3      0.804D-02      0.190D-01       -76.38593692     93.602727    0.00263   -0.73789   -0.00425    2     12.5     42.0     diag
    4      0.560D-02      0.499D-03       -76.38635280     93.201740    0.00253   -0.70809   -0.00407    3     11.2     53.2     diag
    5      0.217D-03      0.109D-03       -76.38636592     93.250985    0.00252   -0.70658   -0.00407    4     10.1     63.4     diag
    6      0.281D-04      0.246D-04       -76.38636669     93.261852    0.00253   -0.70885   -0.00408    5     10.4     73.7     diag
    7      0.712D-05      0.971D-06       -76.38636670     93.261864    0.00253   -0.70874   -0.00408    6      7.6     81.3     diag
    8      0.253D-06      0.790D-07       -76.38636670     93.261967    0.00253   -0.70876   -0.00408    0      6.1     87.4     orth

 Final occupancy:   5

 !RKS STATE  1.1 Energy               -76.386366695137
 Nuclear energy                         9.15605699
 One-electron energy                 -122.93448978
 Two-electron energy                   46.63098344
 Density functional                    -9.23891735     PBEX=-8.91450391 PBEC=-0.32441343
 Virial quotient                       -1.00345143
 !RKS STATE  1.1 Dipole moment          0.00253077    -0.70876165    -0.00407756
 Dipole moment /Debye                   0.00643215    -1.80137442    -0.01036346

 Orbital energies:

         1.1          2.1          3.1          4.1          5.1          6.1          7.1
    -18.753896    -0.931048    -0.483400    -0.343743    -0.266316    -0.034504     0.016000


 HOMO      5.1    -0.266316 =      -7.2468eV
 LUMO      6.1    -0.034504 =      -0.9389eV
 LUMO-HOMO         0.231812 =       6.3079eV


 **********************************************************************************************************************************
 DATASETS  * FILE   NREC   LENGTH (MB)   RECORD NAMES
              1      19       34.41       500      610      700      900      950      970     1000      129      960     1100   
                                          VAR    BASINP    GEOM    SYMINP    ZMAT    AOBASIS   BASIS     P2S    ABASIS      S 
                                         1400     1410     1200     1210     1080     1600     1650     1700     1800   
                                           T        V       H0       H01     AOSYM     SMH    MOLCAS    OPER     GRID   

              2       6       12.51       700     1000      520     1800     2101     2201   
                                         GEOM     BASIS   MCVARS    GRID      RKS      RKS  

 PROGRAMS   *        TOTAL   RKS-SCF       INT   RKS-SCF       INT
 CPU TIMES  *       194.95     87.73      0.11    106.59      0.34
 REAL TIME  *       198.88 SEC
 DISK USED  *        54.13 MB (local),      216.51 MB (total)
 SF USED    *         1.42 MB
 GA USED    *         2.04 MB       (max)       2.04 MB       (current)
 **********************************************************************************************************************************
 SETTING EA_PBE         =       -76.38636670  AU                              

 Dummy atoms: H1  H2  O1


 Recomputing one-electron integrals since nuclear charges changed


 PROGRAM * SEWARD (Integral evaluation for generally contracted gaussian basis sets)     Author: Roland Lindh, 1990

 Geometry written to block  1 of record 700


 Point group  C1  



 ATOMIC COORDINATES

 NR  ATOM    CHARGE       X              Y              Z

   1  H1      0.00    0.033273831    1.210301855   -1.438746007
   2  H2      0.00   -0.025280454    1.193613952    1.425893811
   3  H3      1.00    0.045516310   11.011273597    0.002440884
   4  H4      1.00    1.860994761   13.227756541   -0.030871736
   5  O1      0.00    0.000000000    2.319083238    0.000000000
   6  O2      8.00    0.089274323   12.827471028    0.004787478

 Bond lengths in Bohr (Angstrom)

 1-5  1.816726005  2-5  1.816726005  3-6  1.816726005  4-6  1.816726006
     ( 0.961370000)     ( 0.961370000)     ( 0.961370001)     ( 0.961370001)

 Bond angles

  1-5-2  104.10700004   3-6-4  104.10699993

 NUCLEAR CHARGE:                   10
 NUMBER OF PRIMITIVE AOS:         464
 NUMBER OF SYMMETRY AOS:          378
 NUMBER OF CONTRACTIONS:          344   (  344A   )
 NUMBER OF CORE ORBITALS:           1   (    1A   )
 NUMBER OF VALENCE ORBITALS:        6   (    6A   )

 MOLECULE CHANGED: INITIALIZING OCCUPATION AND DUMP RECORDS


 NUCLEAR REPULSION ENERGY    9.15605698


 Eigenvalues of metric

         1 0.728E-04 0.751E-04 0.986E-04 0.105E-03 0.332E-03 0.353E-03 0.453E-03 0.591E-03


 OPERATOR DM      FOR CENTER  0  COORDINATES:    0.000000    0.000000    0.000000


 **********************************************************************************************************************************
 DATASETS  * FILE   NREC   LENGTH (MB)   RECORD NAMES
              1      19       34.41       500      610      700      900      950      970     1000      129      960     1100   
                                          VAR    BASINP    GEOM    SYMINP    ZMAT    AOBASIS   BASIS     P2S    ABASIS      S 
                                         1400     1410     1200     1210     1080     1600     1650     1700     1800   
                                           T        V       H0       H01     AOSYM     SMH    MOLCAS    OPER     GRID   

              2       6       12.51       700     1000      520     1800     2101     2201   
                                         GEOM     BASIS   MCVARS    GRID      RKS      RKS  

 PROGRAMS   *        TOTAL       INT   RKS-SCF       INT   RKS-SCF       INT
 CPU TIMES  *       195.08      0.13     87.73      0.11    106.59      0.34
 REAL TIME  *       199.03 SEC
 DISK USED  *        54.13 MB (local),      216.51 MB (total)
 SF USED    *         1.42 MB
 GA USED    *         2.04 MB       (max)       2.04 MB       (current)
 **********************************************************************************************************************************

 Density functional group PBE=PBEX+PBEC
 Functional: PBEX(Automatically generated (new) PBEX)                          Gradient terms: 1
 Functional: PBEC(Automatically generated (new) PBEC)                          Gradient terms: 1
 Use libxcgrid:  F
 Use grid at  1800.2

 Functional: PBEX                      Factor:  1.0000
 Functional: PBEC                      Factor:  1.0000

  278712 words reserved for DFT integration

 PROGRAM * RKS-SCF (Restricted closed shell Kohn-Sham)     Authors: W. Meyer, H.-J. Werner, P.J. Knowles, 1993

 NUMBER OF ELECTRONS:       5+    5-    SPACE SYMMETRY=1    SPIN SYMMETRY: Singlet 
 CONVERGENCE THRESHOLDS:    1.00E-04 (Density)    1.00E-08 (Energy)
 INTEGRAL THRESHOLDS:       1.00E-11 (Initial)    1.00E-11 (Final)
 MAX. NUMBER OF ITERATIONS:       60
 INTERPOLATION TYPE:            DIIS
 INTERPOLATION STEPS:              2 (START)      1 (STEP)
 LEVEL SHIFTS:                  0.00 (CLOSED)  0.00 (OPEN) 



 Use fine grid record 1800.2 for energy threshold  1.0D-08
 Orbital guess generated from atomic densities. Full valence occupancy:    7

 Molecular orbital dump at record        2301.2

 Initial occupancy:   5

 Direct Fock-matrix evaluation.        Authors: Roland Lindh & Martin Schuetz (1993/96)

 Integral Threshold:                  0.1D-10
 Threshold for writing integrals:     0.1D-06
 Prescreening on density matrix:        ON 
 Calculation will be performed fully direct        

 ITERATION   DDIFF            GRAD            ENERGY        2-EL.EN.            DIPOLE MOMENTS         DIIS   CPU(IT)  CPU(TOT)
    1      0.000D+00      0.000D+00       -76.30035818     98.210468    0.85077   -0.69713   -0.01871    0     14.4     18.4     start
    2      0.000D+00      0.841D-02       -75.91404935     81.822367   -0.33927    0.28124    0.00747    1     12.7     31.0     diag
    3      0.801D-02      0.190D-01       -76.38593552     93.603085    0.57074   -0.46771   -0.01255    2     12.4     43.4     diag
    4      0.558D-02      0.500D-03       -76.38635230     93.201626    0.54770   -0.44879   -0.01205    3     11.2     54.7     diag
    5      0.215D-03      0.109D-03       -76.38636547     93.250964    0.54652   -0.44784   -0.01202    4     10.2     64.9     diag
    6      0.281D-04      0.247D-04       -76.38636625     93.261852    0.54829   -0.44928   -0.01206    5      9.4     74.3     diag
    7      0.714D-05      0.973D-06       -76.38636625     93.261867    0.54820   -0.44921   -0.01206    6      7.3     81.7     diag
    8      0.254D-06      0.795D-07       -76.38636625     93.261971    0.54822   -0.44922   -0.01206    0      7.0     88.7     orth

 Final occupancy:   5

 !RKS STATE  1.1 Energy               -76.386366253090
 Nuclear energy                         9.15605698
 One-electron energy                 -122.93449154
 Two-electron energy                   46.63098526
 Density functional                    -9.23891695     PBEX=-8.91450356 PBEC=-0.32441339
 Virial quotient                       -1.00345149
 !RKS STATE  1.1 Dipole moment          0.54821538    -0.44922406    -0.01205776
 Dipole moment /Debye                   1.39333325    -1.14173889    -0.03064577

 Orbital energies:

         1.1          2.1          3.1          4.1          5.1          6.1          7.1
    -18.753895    -0.931048    -0.483400    -0.343743    -0.266316    -0.034617     0.013968


 HOMO      5.1    -0.266316 =      -7.2468eV
 LUMO      6.1    -0.034617 =      -0.9420eV
 LUMO-HOMO         0.231699 =       6.3049eV


 **********************************************************************************************************************************
 DATASETS  * FILE   NREC   LENGTH (MB)   RECORD NAMES
              1      19       34.41       500      610      700      900      950      970     1000      129      960     1100   
                                          VAR    BASINP    GEOM    SYMINP    ZMAT    AOBASIS   BASIS     P2S    ABASIS      S 
                                         1400     1410     1200     1210     1080     1600     1650     1700     1800   
                                           T        V       H0       H01     AOSYM     SMH    MOLCAS    OPER     GRID   

              2       7       19.75       700     1000      520     1800     2101     2201     2301   
                                         GEOM     BASIS   MCVARS    GRID      RKS      RKS      RKS  

 PROGRAMS   *        TOTAL   RKS-SCF       INT   RKS-SCF       INT   RKS-SCF       INT
 CPU TIMES  *       283.84     88.76      0.13     87.73      0.11    106.59      0.34
 REAL TIME  *       288.38 SEC
 DISK USED  *        61.37 MB (local),      245.47 MB (total)
 SF USED    *         1.42 MB
 GA USED    *         2.04 MB       (max)       2.04 MB       (current)
 **********************************************************************************************************************************
 SETTING EB_PBE         =       -76.38636625  AU                              
 SETTING E_AB_INT       =        -0.00083519  AU                              

 *** results in hartree
 E_AB_INT         =        -0.00083519 AU
 Molecular orbitals read from record     2301.2  Type=RKS/CANONICAL (state 1.1)
 Occupation numbers read from record     2301.2  Type=RKS/RHF (state 1.1)
 Orbital energies read from record       2301.2  Type=RKS/CANONICAL (state 1.1)
 Redundancy group numbers read from rec  2301.2  Type=RKS/RHF (state 1.1)

 RPBE/aug-cc-pVQZ energy=    -76.386366253090

         RKS-SCF         RKS-SCF         RKS-SCF
    -76.38636625    -76.38636670   -152.77356814
 **********************************************************************************************************************************
 Molpro calculation terminated
