
 Primary working directories    : /scratch/sirous/460858/molpro.xiZIXuB4z5
 Secondary working directories  : /scratch/sirous/460858/molpro.xiZIXuB4z5
 Wavefunction directory         : /scratch/sirous/460858/
 Main file repository           : /scratch/sirous/460858/molpro.xiZIXuB4z5/

 id        : karlovklimes

 Nodes                      nprocs
 nc-08.cc.karlov.mff.cuni.cz    4

 Using customized tuning parameters: mindgm=1; mindgv=20; mindgc=4; mindgr=1; noblas=0; minvec=7
 default implementation of scratch files=sf  


 Variables initialized (934), CPU time= 0.01 sec
 ***,CH3C6H4CN+CF3CN+BF3
 memory,500,m
 gdirect
 gthresh,energy=1.d-8,twoint=1.d-19,oneint=1.d-19,zero=1.d-15,orbital=1.d-8,grid=1.d-8
 symmetry,nosym
 geomtyp=xyz
                                                                                 ! Geometry
 geometry={
 H1        0.0176077530000000    0.6404641599999999     -0.7613515990000000
 H2        -0.0133778400000000    0.6316333020000000     0.7545505100000000
 H3        0.0240861940000000    3.1269150510000001     0.0012916600000000
 H4        0.9847960170000000    4.2998273129999998     -0.0163366190000000
 O1        0.0000000000000000    1.2272060000000000     0.0000000000000000
 O2        0.0472419370000000    4.0880053419999998     0.0025334240000000
 }
 
 
 
 basis=avqz
 
 
 
                                                                                 ! Dimer Calculation
 {rks,pbe,accu=1.d-8;orbital,2101.2}
 eab_PBE=energy
 
 
                                                                                 !monomer A
 dummy,3,4,6;                                                                    ! NOW MONOMER B IS DUMMY
 {rks,pbe,accu=1.d-8;orbital,2201.2}
 ea_PBE=energy
                                                                                 !monomer B
 dummy,1,2,5;                                                                    !NOW MONOMER A IS DUMMY
 {rks,pbe,accu=1.d-8;orbital,2301.2}
 eb_PBE=energy
 
 E_AB_int=eab_PBE-ea_PBE-eb_PBE
 
 
 text,results in hartree
 show,E_AB_int
 
 Commands  initialized (763), CPU time= 0.01 sec, 617 directives.
 Default parameters read. Elapsed time= 0.25 sec

 Checking input...
 Passed
1


                                         ***  PROGRAM SYSTEM MOLPRO  ***
                                       Copyright, TTI GmbH Stuttgart, 2015
                                    Version 2019.2 linked Jun  8 2019 11:26:33


 **********************************************************************************************************************************
 LABEL *   CH3C6H4CN+CF3CN+BF3                                                           
  64 bit mpp version                                                                     DATE: 27-Mar-20          TIME: 14:18:29  
 **********************************************************************************************************************************

 SHA1:             8135a10abc80eafa5b3ae28ffc55be4890dc4c84
 **********************************************************************************************************************************

 THRESHOLDS:

 ZERO    =  1.00D-15  ONEINT  =  1.00D-19  TWOINT  =  1.00D-19  PREFAC  =  1.00D-14  XXXXXX  =  1.00D-09  EORDER  =  1.00D-04
 ENERGY  =  1.00D-08  ETEST   =  0.00D+00  EDENS   =  0.00D+00  THRDEDEF=  1.00D-06  GRADIENT=  1.00D-02  STEP    =  1.00D-03
 ORBITAL =  1.00D-08  CIVEC   =  1.00D-05  COEFF   =  1.00D-04  PRINTCI =  5.00D-02  PUNCHCI =  9.90D+01  OPTGRAD =  3.00D-04
 OPTENERG=  1.00D-06  OPTSTEP =  3.00D-04  THRGRAD =  1.00D-10  COMPRESS=  1.00D-11  VARMIN  =  1.00D-07  VARMAX  =  1.00D-03
 THRDOUB =  0.00D+00  THRDIV  =  1.00D-05  THRRED  =  1.00D-07  THRPSP  =  1.00D+00  THRDC   =  1.00D-10  THRCS   =  1.00D-10
 THRNRM  =  1.00D-08  THREQ   =  0.00D+00  THRDE   =  1.00D+00  THRREF  =  1.00D-05  SPARFAC =  1.00D+00  THRDLP  =  1.00D-07
 THRDIA  =  1.00D-10  THRDLS  =  1.00D-07  THRGPS  =  0.00D+00  THRKEX  =  0.00D+00  THRDIS  =  2.00D-01  THRVAR  =  1.00D-10
 THRLOC  =  1.00D-06  THRGAP  =  1.00D-06  THRLOCT = -1.00D+00  THRGAPT = -1.00D+00  THRORB  =  1.00D-06  THRMLTP =  0.00D+00
 THRCPQCI=  1.00D-10  KEXTA   =  0.00D+00  THRCOARS=  0.00D+00  SYMTOL  =  1.00D-06  GRADTOL =  1.00D-06  THROVL  =  1.00D-08
 THRORTH =  1.00D-08  GRID    =  1.00D-08  GRIDMAX =  1.00D-03  DTMAX   =  0.00D+00  THROCCDE=  1.00D-01  THROCCDE=  1.00D-01
 THRPRINT=  2.50D-01


 Variable memory set to  500000000 words,  buffer space 

 SETTING GEOMTYP        =    XYZ
 ZSYMEL=NOSYM

 SETTING BASIS          =    AVQZ


 Recomputing integrals since basis changed


 Using spherical harmonics

 Library entry H      S aug-cc-pVQZ          selected for orbital group  1
 Library entry H      P aug-cc-pVQZ          selected for orbital group  1
 Library entry H      D aug-cc-pVQZ          selected for orbital group  1
 Library entry H      F aug-cc-pVQZ          selected for orbital group  1
 Library entry O      S aug-cc-pVQZ          selected for orbital group  2
 Library entry O      P aug-cc-pVQZ          selected for orbital group  2
 Library entry O      D aug-cc-pVQZ          selected for orbital group  2
 Library entry O      F aug-cc-pVQZ          selected for orbital group  2
 Library entry O      G aug-cc-pVQZ          selected for orbital group  2


 PROGRAM * SEWARD (Integral evaluation for generally contracted gaussian basis sets)     Author: Roland Lindh, 1990

 Geometry written to block  1 of record 700


 Point group  C1  



 ATOMIC COORDINATES

 NR  ATOM    CHARGE       X              Y              Z

   1  H1      1.00    0.033273831    1.210301855   -1.438746007
   2  H2      1.00   -0.025280454    1.193613952    1.425893811
   3  H3      1.00    0.045516310    5.909013061    0.002440884
   4  H4      1.00    1.860994761    8.125496004   -0.030871736
   5  O1      8.00    0.000000000    2.319083238    0.000000000
   6  O2      8.00    0.089274323    7.725210492    0.004787478

 Bond lengths in Bohr (Angstrom)

 1-5  1.816726005  2-5  1.816726005  3-6  1.816726005  4-6  1.816726006
     ( 0.961370000)     ( 0.961370000)     ( 0.961370001)     ( 0.961370001)

 Bond angles

  1-5-2  104.10700004   3-6-4  104.10699993

 NUCLEAR CHARGE:                   20
 NUMBER OF PRIMITIVE AOS:         464
 NUMBER OF SYMMETRY AOS:          378
 NUMBER OF CONTRACTIONS:          344   (  344A   )
 NUMBER OF CORE ORBITALS:           2   (    2A   )
 NUMBER OF VALENCE ORBITALS:       12   (   12A   )


 NUCLEAR REPULSION ENERGY   36.76475988


 Eigenvalues of metric

         1 0.377E-04 0.469E-04 0.799E-04 0.814E-04 0.114E-03 0.214E-03 0.287E-03 0.330E-03


 OPERATOR DM      FOR CENTER  0  COORDINATES:    0.000000    0.000000    0.000000


 **********************************************************************************************************************************
 DATASETS  * FILE   NREC   LENGTH (MB)   RECORD NAMES
              1      18       34.41       500      610      700      900      950      970     1000      129      960     1100   
                                          VAR    BASINP    GEOM    SYMINP    ZMAT    AOBASIS   BASIS     P2S    ABASIS      S 
                                         1400     1410     1200     1210     1080     1600     1650     1700   
                                           T        V       H0       H01     AOSYM     SMH    MOLCAS    OPER   

 PROGRAMS   *        TOTAL       INT
 CPU TIMES  *         0.49      0.33
 REAL TIME  *         1.43 SEC
 DISK USED  *        34.86 MB (local),      139.45 MB (total)
 GA USED    *         0.00 MB       (max)       0.00 MB       (current)
 **********************************************************************************************************************************

 Density functional group PBE=PBEX+PBEC
 Functional: PBEX(Automatically generated (new) PBEX)                          Gradient terms: 1
 Functional: PBEC(Automatically generated (new) PBEC)                          Gradient terms: 1
 Use libxcgrid:  F
 Use grid at  1800.2

 Functional: PBEX                      Factor:  1.0000
 Functional: PBEC                      Factor:  1.0000

 Generated new metagrid on record  1800.2 with target accuracy 1.0D-08 and 61576 points in CPU time    0.2
 Computed new grid on record 1800.1 in CPU time    0.2
  278712 words reserved for DFT integration

 PROGRAM * RKS-SCF (Restricted closed shell Kohn-Sham)     Authors: W. Meyer, H.-J. Werner, P.J. Knowles, 1993

 NUMBER OF ELECTRONS:      10+   10-    SPACE SYMMETRY=1    SPIN SYMMETRY: Singlet 
 CONVERGENCE THRESHOLDS:    1.00E-04 (Density)    1.00E-08 (Energy)
 INTEGRAL THRESHOLDS:       1.00E-11 (Initial)    1.00E-11 (Final)
 MAX. NUMBER OF ITERATIONS:       60
 INTERPOLATION TYPE:            DIIS
 INTERPOLATION STEPS:              2 (START)      1 (STEP)
 LEVEL SHIFTS:                  0.00 (CLOSED)  0.00 (OPEN) 



 Use fine grid record 1800.2 for energy threshold  1.0D-08
 Orbital guess generated from atomic densities. Full valence occupancy:   14

 Molecular orbital dump at record        2101.2

 Initial occupancy:  10

 Direct Fock-matrix evaluation.        Authors: Roland Lindh & Martin Schuetz (1993/96)

 Integral Threshold:                  0.1D-10
 Threshold for writing integrals:     0.1D-06
 Prescreening on density matrix:        ON 
 Calculation will be performed fully direct        

 ITERATION   DDIFF            GRAD            ENERGY        2-EL.EN.            DIPOLE MOMENTS         DIIS   CPU(IT)  CPU(TOT)
    1      0.000D+00      0.000D+00      -152.61838686    233.265684    0.85275   -1.93955   -0.02508    0     29.9     36.3     start
    2      0.000D+00      0.825D-02      -151.93519647    201.261969   -0.47960    0.01191    0.01711    1     26.2     62.6     diag
    3      0.111D-01      0.181D-01      -152.77818029    224.172238    0.57630   -1.46404   -0.01704    2     26.0     88.6     diag
    4      0.777D-02      0.707D-03      -152.77809221    223.540161    0.49659   -1.44562   -0.01497    3     25.0    113.6     diag
    5      0.643D-03      0.840D-03      -152.77963398    223.432236    0.52209   -1.43279   -0.01539    4     24.5    138.1     diag
    6      0.380D-03      0.832D-04      -152.77965161    223.506176    0.52512   -1.43163   -0.01556    5     23.7    161.7     diag
    7      0.428D-04      0.198D-04      -152.77965260    223.519328    0.52509   -1.43364   -0.01554    6     22.3    184.0     diag
    8      0.894D-05      0.205D-05      -152.77965261    223.519714    0.52534   -1.43363   -0.01555    7     19.8    203.8     diag
    9      0.851D-06      0.408D-06      -152.77965261    223.519523    0.52524   -1.43362   -0.01554    0     18.0    221.8     orth

 Final occupancy:  10

 !RKS STATE  1.1 Energy              -152.779652612264
 Nuclear energy                        36.76475988
 One-electron energy                 -282.81189904
 Two-electron energy                  111.75976162
 Density functional                   -18.49227507     PBEX=-17.84014273 PBEC= -0.65213234
 Virial quotient                       -1.00335289
 !RKS STATE  1.1 Dipole moment          0.52524183    -1.43361542    -0.01554483
 Dipole moment /Debye                   1.33494413    -3.64364827    -0.03950843

 Orbital energies:

         1.1          2.1          3.1          4.1          5.1          6.1          7.1          8.1          9.1         10.1
    -18.781082   -18.719228    -0.958926    -0.898013    -0.509531    -0.456900    -0.377732    -0.308944    -0.293393    -0.236656

        11.1         12.1
     -0.048439    -0.002665


 HOMO     10.1    -0.236656 =      -6.4397eV
 LUMO     11.1    -0.048439 =      -1.3181eV
 LUMO-HOMO         0.188217 =       5.1217eV


 **********************************************************************************************************************************
 DATASETS  * FILE   NREC   LENGTH (MB)   RECORD NAMES
              1      19       34.41       500      610      700      900      950      970     1000      129      960     1100   
                                          VAR    BASINP    GEOM    SYMINP    ZMAT    AOBASIS   BASIS     P2S    ABASIS      S 
                                         1400     1410     1200     1210     1080     1600     1650     1700     1800   
                                           T        V       H0       H01     AOSYM     SMH    MOLCAS    OPER     GRID   

              2       5        5.27       700     1000      520     1800     2101   
                                         GEOM     BASIS   MCVARS    GRID      RKS  

 PROGRAMS   *        TOTAL   RKS-SCF       INT
 CPU TIMES  *       222.57    222.08      0.33
 REAL TIME  *       229.33 SEC
 DISK USED  *        47.36 MB (local),      189.44 MB (total)
 SF USED    *         1.42 MB
 GA USED    *         2.04 MB       (max)       2.04 MB       (current)
 **********************************************************************************************************************************
 SETTING EAB_PBE        =      -152.77965261  AU                              

 Dummy atoms: H3  H4  O2


 Recomputing one-electron integrals since nuclear charges changed


 PROGRAM * SEWARD (Integral evaluation for generally contracted gaussian basis sets)     Author: Roland Lindh, 1990

 Geometry written to block  1 of record 700


 Point group  C1  



 ATOMIC COORDINATES

 NR  ATOM    CHARGE       X              Y              Z

   1  H1      1.00    0.033273831    1.210301855   -1.438746007
   2  H2      1.00   -0.025280454    1.193613952    1.425893811
   3  H3      0.00    0.045516310    5.909013061    0.002440884
   4  H4      0.00    1.860994761    8.125496004   -0.030871736
   5  O1      8.00    0.000000000    2.319083238    0.000000000
   6  O2      0.00    0.089274323    7.725210492    0.004787478

 Bond lengths in Bohr (Angstrom)

 1-5  1.816726005  2-5  1.816726005  3-6  1.816726005  4-6  1.816726006
     ( 0.961370000)     ( 0.961370000)     ( 0.961370001)     ( 0.961370001)

 Bond angles

  1-5-2  104.10700004   3-6-4  104.10699993

 NUCLEAR CHARGE:                   10
 NUMBER OF PRIMITIVE AOS:         464
 NUMBER OF SYMMETRY AOS:          378
 NUMBER OF CONTRACTIONS:          344   (  344A   )
 NUMBER OF CORE ORBITALS:           1   (    1A   )
 NUMBER OF VALENCE ORBITALS:        6   (    6A   )

 MOLECULE CHANGED: INITIALIZING OCCUPATION AND DUMP RECORDS


 NUCLEAR REPULSION ENERGY    9.15605699


 Eigenvalues of metric

         1 0.377E-04 0.469E-04 0.799E-04 0.814E-04 0.114E-03 0.214E-03 0.287E-03 0.330E-03


 OPERATOR DM      FOR CENTER  0  COORDINATES:    0.000000    0.000000    0.000000


 **********************************************************************************************************************************
 DATASETS  * FILE   NREC   LENGTH (MB)   RECORD NAMES
              1      19       34.41       500      610      700      900      950      970     1000      129      960     1100   
                                          VAR    BASINP    GEOM    SYMINP    ZMAT    AOBASIS   BASIS     P2S    ABASIS      S 
                                         1400     1410     1200     1210     1080     1600     1650     1700     1800   
                                           T        V       H0       H01     AOSYM     SMH    MOLCAS    OPER     GRID   

              2       5        5.27       700     1000      520     1800     2101   
                                         GEOM     BASIS   MCVARS    GRID      RKS  

 PROGRAMS   *        TOTAL       INT   RKS-SCF       INT
 CPU TIMES  *       222.72      0.14    222.08      0.33
 REAL TIME  *       229.49 SEC
 DISK USED  *        47.36 MB (local),      189.44 MB (total)
 SF USED    *         1.42 MB
 GA USED    *         2.04 MB       (max)       2.04 MB       (current)
 **********************************************************************************************************************************

 Density functional group PBE=PBEX+PBEC
 Functional: PBEX(Automatically generated (new) PBEX)                          Gradient terms: 1
 Functional: PBEC(Automatically generated (new) PBEC)                          Gradient terms: 1
 Use libxcgrid:  F
 Use grid at  1800.2

 Functional: PBEX                      Factor:  1.0000
 Functional: PBEC                      Factor:  1.0000

 Generated new metagrid on record  1800.2 with target accuracy 1.0D-08 and 61576 points in CPU time    0.2
 Computed new grid on record 1800.1 in CPU time    0.2
  278712 words reserved for DFT integration

 PROGRAM * RKS-SCF (Restricted closed shell Kohn-Sham)     Authors: W. Meyer, H.-J. Werner, P.J. Knowles, 1993

 NUMBER OF ELECTRONS:       5+    5-    SPACE SYMMETRY=1    SPIN SYMMETRY: Singlet 
 CONVERGENCE THRESHOLDS:    1.00E-04 (Density)    1.00E-08 (Energy)
 INTEGRAL THRESHOLDS:       1.00E-11 (Initial)    1.00E-11 (Final)
 MAX. NUMBER OF ITERATIONS:       60
 INTERPOLATION TYPE:            DIIS
 INTERPOLATION STEPS:              2 (START)      1 (STEP)
 LEVEL SHIFTS:                  0.00 (CLOSED)  0.00 (OPEN) 



 Use fine grid record 1800.2 for energy threshold  1.0D-08
 Orbital guess generated from atomic densities. Full valence occupancy:    7

 Molecular orbital dump at record        2201.2

 Initial occupancy:   5

 Direct Fock-matrix evaluation.        Authors: Roland Lindh & Martin Schuetz (1993/96)

 Integral Threshold:                  0.1D-10
 Threshold for writing integrals:     0.1D-06
 Prescreening on density matrix:        ON 
 Calculation will be performed fully direct        

 ITERATION   DDIFF            GRAD            ENERGY        2-EL.EN.            DIPOLE MOMENTS         DIIS   CPU(IT)  CPU(TOT)
    1      0.000D+00      0.000D+00       -76.30037549     98.211135    0.00392   -1.09980   -0.00633    0     27.9     33.4     start
    2      0.000D+00      0.841D-02       -75.91299699     81.804308   -0.00180    0.44704    0.00263    1     25.8     59.1     diag
    3      0.814D-02      0.190D-01       -76.38596502     93.604039    0.00267   -0.73799   -0.00425    2     25.6     84.7     diag
    4      0.579D-02      0.501D-03       -76.38638426     93.201155    0.00257   -0.70808   -0.00407    3     24.1    108.9     diag
    5      0.208D-03      0.110D-03       -76.38639760     93.250959    0.00256   -0.70658   -0.00407    4     22.5    131.4     diag
    6      0.276D-04      0.248D-04       -76.38639839     93.261837    0.00257   -0.70887   -0.00408    5     21.1    152.5     diag
    7      0.705D-05      0.981D-06       -76.38639839     93.261850    0.00257   -0.70876   -0.00408    6     17.7    170.1     diag
    8      0.265D-06      0.797D-07       -76.38639839     93.261954    0.00257   -0.70878   -0.00408    0     13.3    183.4     orth

 Final occupancy:   5

 !RKS STATE  1.1 Energy               -76.386398387971
 Nuclear energy                         9.15605699
 One-electron energy                 -122.93453538
 Two-electron energy                   46.63097713
 Density functional                    -9.23889713     PBEX=-8.91448255 PBEC=-0.32441458
 Virial quotient                       -1.00345336
 !RKS STATE  1.1 Dipole moment          0.00257010    -0.70878159    -0.00407787
 Dipole moment /Debye                   0.00653212    -1.80142511    -0.01036423

 Orbital energies:

         1.1          2.1          3.1          4.1          5.1          6.1          7.1
    -18.753949    -0.931035    -0.483391    -0.343737    -0.266307    -0.034648     0.015998


 HOMO      5.1    -0.266307 =      -7.2466eV
 LUMO      6.1    -0.034648 =      -0.9428eV
 LUMO-HOMO         0.231659 =       6.3038eV


 **********************************************************************************************************************************
 DATASETS  * FILE   NREC   LENGTH (MB)   RECORD NAMES
              1      19       34.41       500      610      700      900      950      970     1000      129      960     1100   
                                          VAR    BASINP    GEOM    SYMINP    ZMAT    AOBASIS   BASIS     P2S    ABASIS      S 
                                         1400     1410     1200     1210     1080     1600     1650     1700     1800   
                                           T        V       H0       H01     AOSYM     SMH    MOLCAS    OPER     GRID   

              2       6       12.51       700     1000      520     1800     2101     2201   
                                         GEOM     BASIS   MCVARS    GRID      RKS      RKS  

 PROGRAMS   *        TOTAL   RKS-SCF       INT   RKS-SCF       INT
 CPU TIMES  *       406.50    183.78      0.14    222.08      0.33
 REAL TIME  *       415.55 SEC
 DISK USED  *        54.13 MB (local),      216.51 MB (total)
 SF USED    *         1.42 MB
 GA USED    *         2.04 MB       (max)       2.04 MB       (current)
 **********************************************************************************************************************************
 SETTING EA_PBE         =       -76.38639839  AU                              

 Dummy atoms: H1  H2  O1


 Recomputing one-electron integrals since nuclear charges changed


 PROGRAM * SEWARD (Integral evaluation for generally contracted gaussian basis sets)     Author: Roland Lindh, 1990

 Geometry written to block  1 of record 700


 Point group  C1  



 ATOMIC COORDINATES

 NR  ATOM    CHARGE       X              Y              Z

   1  H1      0.00    0.033273831    1.210301855   -1.438746007
   2  H2      0.00   -0.025280454    1.193613952    1.425893811
   3  H3      1.00    0.045516310    5.909013061    0.002440884
   4  H4      1.00    1.860994761    8.125496004   -0.030871736
   5  O1      0.00    0.000000000    2.319083238    0.000000000
   6  O2      8.00    0.089274323    7.725210492    0.004787478

 Bond lengths in Bohr (Angstrom)

 1-5  1.816726005  2-5  1.816726005  3-6  1.816726005  4-6  1.816726006
     ( 0.961370000)     ( 0.961370000)     ( 0.961370001)     ( 0.961370001)

 Bond angles

  1-5-2  104.10700004   3-6-4  104.10699993

 NUCLEAR CHARGE:                   10
 NUMBER OF PRIMITIVE AOS:         464
 NUMBER OF SYMMETRY AOS:          378
 NUMBER OF CONTRACTIONS:          344   (  344A   )
 NUMBER OF CORE ORBITALS:           1   (    1A   )
 NUMBER OF VALENCE ORBITALS:        6   (    6A   )

 MOLECULE CHANGED: INITIALIZING OCCUPATION AND DUMP RECORDS


 NUCLEAR REPULSION ENERGY    9.15605698


 Eigenvalues of metric

         1 0.377E-04 0.469E-04 0.799E-04 0.814E-04 0.114E-03 0.214E-03 0.287E-03 0.330E-03


 OPERATOR DM      FOR CENTER  0  COORDINATES:    0.000000    0.000000    0.000000


 **********************************************************************************************************************************
 DATASETS  * FILE   NREC   LENGTH (MB)   RECORD NAMES
              1      19       34.41       500      610      700      900      950      970     1000      129      960     1100   
                                          VAR    BASINP    GEOM    SYMINP    ZMAT    AOBASIS   BASIS     P2S    ABASIS      S 
                                         1400     1410     1200     1210     1080     1600     1650     1700     1800   
                                           T        V       H0       H01     AOSYM     SMH    MOLCAS    OPER     GRID   

              2       6       12.51       700     1000      520     1800     2101     2201   
                                         GEOM     BASIS   MCVARS    GRID      RKS      RKS  

 PROGRAMS   *        TOTAL       INT   RKS-SCF       INT   RKS-SCF       INT
 CPU TIMES  *       406.64      0.14    183.78      0.14    222.08      0.33
 REAL TIME  *       415.71 SEC
 DISK USED  *        54.13 MB (local),      216.51 MB (total)
 SF USED    *         1.42 MB
 GA USED    *         2.04 MB       (max)       2.04 MB       (current)
 **********************************************************************************************************************************

 Density functional group PBE=PBEX+PBEC
 Functional: PBEX(Automatically generated (new) PBEX)                          Gradient terms: 1
 Functional: PBEC(Automatically generated (new) PBEC)                          Gradient terms: 1
 Use libxcgrid:  F
 Use grid at  1800.2

 Functional: PBEX                      Factor:  1.0000
 Functional: PBEC                      Factor:  1.0000

  278712 words reserved for DFT integration

 PROGRAM * RKS-SCF (Restricted closed shell Kohn-Sham)     Authors: W. Meyer, H.-J. Werner, P.J. Knowles, 1993

 NUMBER OF ELECTRONS:       5+    5-    SPACE SYMMETRY=1    SPIN SYMMETRY: Singlet 
 CONVERGENCE THRESHOLDS:    1.00E-04 (Density)    1.00E-08 (Energy)
 INTEGRAL THRESHOLDS:       1.00E-11 (Initial)    1.00E-11 (Final)
 MAX. NUMBER OF ITERATIONS:       60
 INTERPOLATION TYPE:            DIIS
 INTERPOLATION STEPS:              2 (START)      1 (STEP)
 LEVEL SHIFTS:                  0.00 (CLOSED)  0.00 (OPEN) 



 Use fine grid record 1800.2 for energy threshold  1.0D-08
 Orbital guess generated from atomic densities. Full valence occupancy:    7

 Molecular orbital dump at record        2301.2

 Initial occupancy:   5

 Direct Fock-matrix evaluation.        Authors: Roland Lindh & Martin Schuetz (1993/96)

 Integral Threshold:                  0.1D-10
 Threshold for writing integrals:     0.1D-06
 Prescreening on density matrix:        ON 
 Calculation will be performed fully direct        

 ITERATION   DDIFF            GRAD            ENERGY        2-EL.EN.            DIPOLE MOMENTS         DIIS   CPU(IT)  CPU(TOT)
    1      0.000D+00      0.000D+00       -76.30037243     98.210691    0.85073   -0.69710   -0.01871    0     28.4     33.8     start
    2      0.000D+00      0.841D-02       -75.91263640     81.797742   -0.34575    0.29284    0.00769    1     25.5     59.3     diag
    3      0.802D-02      0.190D-01       -76.38595180     93.604649    0.57092   -0.46798   -0.01256    2     25.5     84.8     diag
    4      0.561D-02      0.502D-03       -76.38637288     93.200968    0.54785   -0.44885   -0.01205    3     24.3    109.0     diag
    5      0.219D-03      0.110D-03       -76.38638629     93.250892    0.54663   -0.44795   -0.01202    4     22.7    131.7     diag
    6      0.285D-04      0.248D-04       -76.38638708     93.261801    0.54843   -0.44939   -0.01206    5     20.2    152.0     diag
    7      0.720D-05      0.992D-06       -76.38638708     93.261800    0.54834   -0.44933   -0.01206    6     17.3    169.3     diag
    8      0.269D-06      0.825D-07       -76.38638708     93.261904    0.54835   -0.44933   -0.01206    0     12.8    182.1     orth

 Final occupancy:   5

 !RKS STATE  1.1 Energy               -76.386387078613
 Nuclear energy                         9.15605698
 One-electron energy                 -122.93450083
 Two-electron energy                   46.63095221
 Density functional                    -9.23889544     PBEX=-8.91448149 PBEC=-0.32441396
 Virial quotient                       -1.00345318
 !RKS STATE  1.1 Dipole moment          0.54835144    -0.44933440    -0.01205845
 Dipole moment /Debye                   1.39367905    -1.14201933    -0.03064752

 Orbital energies:

         1.1          2.1          3.1          4.1          5.1          6.1          7.1
    -18.753937    -0.931041    -0.483396    -0.343739    -0.266312    -0.034670     0.014878


 HOMO      5.1    -0.266312 =      -7.2467eV
 LUMO      6.1    -0.034670 =      -0.9434eV
 LUMO-HOMO         0.231642 =       6.3033eV


 **********************************************************************************************************************************
 DATASETS  * FILE   NREC   LENGTH (MB)   RECORD NAMES
              1      19       34.41       500      610      700      900      950      970     1000      129      960     1100   
                                          VAR    BASINP    GEOM    SYMINP    ZMAT    AOBASIS   BASIS     P2S    ABASIS      S 
                                         1400     1410     1200     1210     1080     1600     1650     1700     1800   
                                           T        V       H0       H01     AOSYM     SMH    MOLCAS    OPER     GRID   

              2       7       19.75       700     1000      520     1800     2101     2201     2301   
                                         GEOM     BASIS   MCVARS    GRID      RKS      RKS      RKS  

 PROGRAMS   *        TOTAL   RKS-SCF       INT   RKS-SCF       INT   RKS-SCF       INT
 CPU TIMES  *       588.83    182.19      0.14    183.78      0.14    222.08      0.33
 REAL TIME  *       599.98 SEC
 DISK USED  *        61.37 MB (local),      245.47 MB (total)
 SF USED    *         1.42 MB
 GA USED    *         2.04 MB       (max)       2.04 MB       (current)
 **********************************************************************************************************************************
 SETTING EB_PBE         =       -76.38638708  AU                              
 SETTING E_AB_INT       =        -0.00686715  AU                              

 *** results in hartree
 E_AB_INT         =        -0.00686715 AU
 Molecular orbitals read from record     2301.2  Type=RKS/CANONICAL (state 1.1)
 Occupation numbers read from record     2301.2  Type=RKS/RHF (state 1.1)
 Orbital energies read from record       2301.2  Type=RKS/CANONICAL (state 1.1)
 Redundancy group numbers read from rec  2301.2  Type=RKS/RHF (state 1.1)

 RPBE/aug-cc-pVQZ energy=    -76.386387078613

         RKS-SCF         RKS-SCF         RKS-SCF
    -76.38638708    -76.38639839   -152.77965261
 **********************************************************************************************************************************
 Molpro calculation terminated
