
 Working directory              : /scratch/yourdkhs/302830/molpro.UvNpCsuomM/
 Global scratch directory       : /scratch/yourdkhs/302830/molpro.UvNpCsuomM/
 Wavefunction directory         : /scratch/yourdkhs/302830/
 Main file repository           : /scratch/yourdkhs/302830/molpro.UvNpCsuomM/

 id        : karlovklimes

 Nodes                      nprocs
 nd-21.cc.karlov.mff.cuni.cz    8
 GA implementation: MPI file
 GA implementation (serial work in mppx): MPI file

 Using customized tuning parameters: mindgm=1; mindgv=20; mindgc=4; mindgr=1; noblas=0; minvec=7
 default implementation of scratch files=sf  


 Variables initialized (1015), CPU time= 0.01 sec
 ***,CH3C6H4CN+CF3CN+BF3
 memory,500,m
 gdirect
 gthresh,energy=1.d-8,twoint=1.d-19,oneint=1.d-19,zero=1.d-15,orbital=1.d-8,grid=1.d-8
 symmetry,nosym
 geomtyp=xyz
                                                                                 ! Geometry
 geometry={
 C1        0.000000000    0.056986000     0.000000000
 O1        0.000000000    1.227206000     0.000000000
 O2        0.000000000    2.827206000     0.000000000
 C2        0.000000000    3.997426000     0.000000000
 O3        0.000000000    5.167646000     0.000000000
 O4        0.000000000    -1.113234000     0.000000000
 }
 
 
 
 basis=avqz
 
 
 
                                                                                 ! Dimer Calculation
 {rks,pbe,accu=1.d-8;orbital,2101.2}
 eab_PBE=energy
 
 
                                                                                 !monomer A
 dummy,3,4,5;                                                                    ! NOW MONOMER B IS DUMMY
 {rks,pbe,accu=1.d-8;orbital,2201.2}
 ea_PBE=energy
                                                                                 !monomer B
 dummy,1,2,6;                                                                    !NOW MONOMER A IS DUMMY
 {rks,pbe,accu=1.d-8;orbital,2301.2}
 eb_PBE=energy
 
 E_AB_int=eab_PBE-ea_PBE-eb_PBE
 
 
 text,results in hartree
 show,E_AB_int
 
 Commands initialized (834), CPU time= 0.01 sec, 672 directives.
 Default parameters read. Elapsed time= 0.31 sec

 Checking input...
 Passed
1


                                         ***  PROGRAM SYSTEM MOLPRO  ***
                                       Copyright, TTI GmbH Stuttgart, 2015
                                    Version 2022.2 linked Thu May  5 22:39:45 2022


 **********************************************************************************************************************************
 LABEL *   CH3C6H4CN+CF3CN+BF3                                                           
  64 bit mpp version                                                                     DATE: 20-Oct-23          TIME: 19:39:45  
 **********************************************************************************************************************************

 SHA1:             518bf5c5e315925380b88506c70af759aa1d1d96
 **********************************************************************************************************************************

 Memory per process:       500 MW
 Total memory per node:   4000 MW

 GA preallocation disabled
 GA check disabled

 Variable memory set to 500.0 MW


 THRESHOLDS:

 ZERO    =  1.00D-15  ONEINT  =  1.00D-19  TWOINT  =  1.00D-19  PREFAC  =  1.00D-14  XXXXXX  =  1.00D-09  EORDER  =  1.00D-04
 ENERGY  =  1.00D-08  ETEST   =  0.00D+00  EDENS   =  0.00D+00  THRDEDEF=  1.00D-06  GRADIENT=  1.00D-05  STEP    =  1.00D-03
 ORBITAL =  1.00D-08  CIVEC   =  1.00D-05  COEFF   =  1.00D-04  PRINTCI =  5.00D-02  PUNCHCI =  9.90D+01  OPTGRAD =  3.00D-04
 OPTENERG=  1.00D-06  OPTSTEP =  3.00D-04  THRGRAD =  1.00D-10  COMPRESS=  1.00D-11  VARMIN  =  1.00D-07  VARMAX  =  1.00D-03
 THRDOUB =  0.00D+00  THRDIV  =  1.00D-05  THRRED  =  1.00D-07  THRPSP  =  1.00D+00  THRDC   =  1.00D-10  THRCS   =  1.00D-10
 THRNRM  =  1.00D-08  THREQ   =  0.00D+00  THRDE   =  1.00D+00  THRREF  =  1.00D-05  SPARFAC =  1.00D+00  THRDLP  =  1.00D-07
 THRDIA  =  1.00D-10  THRDLS  =  1.00D-07  THRGPS  =  0.00D+00  THRKEX  =  0.00D+00  THRDIS  =  2.00D-01  THRVAR  =  1.00D-10
 THRLOC  =  1.00D-06  THRGAP  =  1.00D-06  THRLOCT = -1.00D+00  THRGAPT = -1.00D+00  THRORB  =  1.00D-06  THRMLTP =  0.00D+00
 THRCPQCI=  1.00D-10  KEXTA   =  0.00D+00  THRCOARS=  0.00D+00  SYMTOL  =  1.00D-06  GRADTOL =  1.00D-06  THROVL  =  1.00D-08
 THRORTH =  1.00D-08  THRDLOVL= -1.00D+00  GRID    =  1.00D-08  GRIDMAX =  1.00D-03  DTMAX   =  0.00D+00  THROCCDE=  1.00D-01
 THROCCDE=  1.00D-01  THRPRINT=  2.50D-01

 SETTING GEOMTYP        =    XYZ
 ZSYMEL=NOSYM

 SETTING BASIS          =    AVQZ


 Recomputing integrals since basis changed


 Using spherical harmonics

 Library entry C      S aug-cc-pVQZ          selected for orbital group  1
 Library entry C      P aug-cc-pVQZ          selected for orbital group  1
 Library entry C      D aug-cc-pVQZ          selected for orbital group  1
 Library entry C      F aug-cc-pVQZ          selected for orbital group  1
 Library entry C      G aug-cc-pVQZ          selected for orbital group  1
 Library entry O      S aug-cc-pVQZ          selected for orbital group  2
 Library entry O      P aug-cc-pVQZ          selected for orbital group  2
 Library entry O      D aug-cc-pVQZ          selected for orbital group  2
 Library entry O      F aug-cc-pVQZ          selected for orbital group  2
 Library entry O      G aug-cc-pVQZ          selected for orbital group  2


 PROGRAM * SEWARD (Integral evaluation for generally contracted gaussian basis sets)     Author: Roland Lindh, 1990

 Geometry written to block  1 of record 700


 Point group  C1  



 ATOMIC COORDINATES

 NR  ATOM    CHARGE       X              Y              Z

   1  C1      6.00    0.000000000    0.107687933    0.000000000
   2  O1      8.00    0.000000000    2.319083238    0.000000000
   3  O2      8.00    0.000000000    5.342645038    0.000000000
   4  C2      6.00    0.000000000    7.554040343    0.000000000
   5  O3      8.00    0.000000000    9.765435649    0.000000000
   6  O4      8.00    0.000000000   -2.103707373    0.000000000

 Bond lengths in Bohr (Angstrom)

 1-2  2.211395306  1-6  2.211395306  2-3  3.023561799  3-4  2.211395306  4-5  2.211395306
     ( 1.170220000)     ( 1.170220000)     ( 1.600000000)     ( 1.170220000)     ( 1.170220000)

 Bond angles

  1-2-3  179.99999915   2-1-6  180.00000000   2-3-4  180.00000000   3-4-5  180.00000000

 NUCLEAR CHARGE:                   44
 NUMBER OF PRIMITIVE AOS:         708
 NUMBER OF SYMMETRY AOS:          558
 NUMBER OF CONTRACTIONS:          480   (  480A   )
 NUMBER OF INNER CORE ORBITALS:     0   (    0A   )
 NUMBER OF OUTER CORE ORBITALS:     6   (    6A   )
 NUMBER OF VALENCE ORBITALS:       24   (   24A   )


 NUCLEAR REPULSION ENERGY  192.62590796

 EXTRA SYMMETRY OF AOS IN SYMMETRY 1:   1 1 1 1 1 1 2 1 3 2   1 3 2 1 3 2 1 3 2 1   3 1 2 4 1 3 1 2 4 1   3 1 2 4 1 3 1 2 4 1
                                        3 2 1 3 2 4 1 3 2 1   3 2 4 1 3 2 1 3 2 4   1 3 1 2 4 1 3 1 2 4   3 1 2 4 1 3 1 2 4 3
                                        1 1 1 1 1 1 2 1 3 2   1 3 2 1 3 2 1 3 2 1   3 1 2 4 1 3 1 2 4 1   3 1 2 4 1 3 1 2 4 1
                                        3 2 1 3 2 4 1 3 2 1   3 2 4 1 3 2 1 3 2 4   1 3 1 2 4 1 3 1 2 4   3 1 2 4 1 3 1 2 4 3
                                        1 1 1 1 1 1 2 1 3 2   1 3 2 1 3 2 1 3 2 1   3 1 2 4 1 3 1 2 4 1   3 1 2 4 1 3 1 2 4 1
                                        3 2 1 3 2 4 1 3 2 1   3 2 4 1 3 2 1 3 2 4   1 3 1 2 4 1 3 1 2 4   3 1 2 4 1 3 1 2 4 3
                                        1 1 1 1 1 1 2 1 3 2   1 3 2 1 3 2 1 3 2 1   3 1 2 4 1 3 1 2 4 1   3 1 2 4 1 3 1 2 4 1
                                        3 2 1 3 2 4 1 3 2 1   3 2 4 1 3 2 1 3 2 4   1 3 1 2 4 1 3 1 2 4   3 1 2 4 1 3 1 2 4 3
                                        1 1 1 1 1 1 2 1 3 2   1 3 2 1 3 2 1 3 2 1   3 1 2 4 1 3 1 2 4 1   3 1 2 4 1 3 1 2 4 1
                                        3 2 1 3 2 4 1 3 2 1   3 2 4 1 3 2 1 3 2 4   1 3 1 2 4 1 3 1 2 4   3 1 2 4 1 3 1 2 4 3
                                        1 1 1 1 1 1 2 1 3 2   1 3 2 1 3 2 1 3 2 1   3 1 2 4 1 3 1 2 4 1   3 1 2 4 1 3 1 2 4 1
                                        3 2 1 3 2 4 1 3 2 1   3 2 4 1 3 2 1 3 2 4   1 3 1 2 4 1 3 1 2 4   3 1 2 4 1 3 1 2 4 3

 Eigenvalues of metric

         1 0.106E-05 0.276E-05 0.169E-04 0.190E-04 0.250E-04 0.261E-04 0.342E-04 0.495E-04


 OPERATOR DM      FOR CENTER  0  COORDINATES:    0.000000    0.000000    0.000000


 **********************************************************************************************************************************
 DATASETS  * FILE   NREC   LENGTH (MB)   RECORD NAMES
              1      18       36.73       500      610      700      900      950      970     1000      129      960     1100   
                                          VAR    BASINP    GEOM    SYMINP    ZMAT    AOBASIS   BASIS     P2S    ABASIS      S 
                                         1400     1410     1200     1210     1080     1600     1650     1700   
                                           T        V       H0       H01     AOSYM     SMH    MOLCAS    OPER   

 PROGRAMS   *        TOTAL       INT
 CPU TIMES  *         0.59      0.37
 REAL TIME  *         1.88 SEC
 DISK USED  *        37.22 MB (local),      297.75 MB (total)
 GA USED    *         0.00 MB       (max)       0.00 MB       (current)
 **********************************************************************************************************************************


 Program * Restricted Kohn-Sham

 Density functional group PBE=PBEX+PBEC
 Functional: PBEX(Automatically generated (new) PBEX)                          Gradient terms: 1
 Functional: PBEC(Automatically generated (new) PBEC)                          Gradient terms: 1

 Functional: PBEX                   Factor:  1.0000
 Functional: PBEC                   Factor:  1.0000


 Setting radial_scaling=1d0
 Radial grid threshold:                     5.0D-09
 Global grid threshold:                     1.0D-08
 Angular grid threshold:                    1.0D-09
 Fac_Neighbour:                                 4.0
 Size adjustment in partitioning scheme:   TREUTLER
 Skip grid points with weights lower than:  1.0D-20
 Grid orientation:                           T

 Generated new metagrid on record  1800.2 with target accuracy 1.0D-08 and 86032 points in CPU time    0.2
 Computed new grid on record 1800.1 in CPU time    0.3

 DFT orbital screening threshold (tolorb):   1.0D-09


 Integral-direct calculation

 Orbital guess generated from atomic densities. Full valence occupancy:   30

 Initial occupancy:  22

 NELEC=   44   SYM=1   MS2= 0   THRE=1.0D-09   THRD=1.0D-04   THRG=1.0D-04  HFMA2=F  DIIS_START=2   DIIS_MAX=10   DIIS_INCORE=F

 Level shifts:    0.00 (CLOSED)    0.00 (OPEN)    0.30 (GAP_MIN)

 ITER           ETOT              DE          GRAD        DDIFF     DIIS  NEXP   TIME(IT)  TIME(TOT)  DIAG
   1     -376.67765627    -376.67765627     0.00D+00     0.30D-01     0     0      34.20     35.99    start
   2     -376.39341281       0.28424346     0.48D-02     0.69D-02     1     0      33.16     69.15    diag
   3     -376.81049289      -0.41708008     0.83D-02     0.50D-02     2     0      32.86    102.01    diag
   4     -376.82407434      -0.01358146     0.16D-02     0.10D-02     3     0      31.82    133.83    diag
   5     -376.82836790      -0.00429355     0.80D-03     0.48D-03     4     0      31.31    165.14    diag
   6     -376.82857910      -0.00021120     0.16D-03     0.12D-03     5     0      30.46    195.60    diag
   7     -376.82859573      -0.00001663     0.49D-04     0.26D-04     6     0      29.25    224.85    diag
   8     -376.82859600      -0.00000027     0.58D-05     0.39D-05     7     0      27.66    252.51    fixocc
   9     -376.82859601      -0.00000000     0.56D-06     0.43D-06     8     0      25.56    278.07    diag
  10     -376.82859601      -0.00000000     0.96D-07     0.13D-06     9     0      23.85    301.92    diag/orth
  11     -376.82859601       0.00000000     0.21D-07     0.39D-07     0     0      21.61    323.53    diag

 Final occupancy:  22

 !RKS STATE 1.1 Energy               -376.828596005723
  RKS One-electron energy            -897.893608915085
  RKS Two-electron energy             373.277194163356
  RKS Kinetic energy                  376.591436900374
  RKS Nuclear energy                  192.625907963955
  RKS Virial quotient                  -1.000629751721
 Density functional                   -44.83808922     PBEX=-43.34212941 PBEC= -1.49595981

 !RKS STATE 1.1 Dipole moment           0.00000000    -0.00000024    -0.00000000
 Dipole moment /Debye                   0.00000000    -0.00000062    -0.00000000

 Orbital energies:

           1.1          2.1          3.1          4.1          5.1          6.1          7.1          8.1          9.1         10.1
    -18.818395   -18.818394   -18.804382   -18.804346   -10.038720   -10.038711    -1.072599    -1.051225    -1.030103    -1.010086

          11.1         12.1         13.1         14.1         15.1         16.1         17.1         18.1         19.1         20.1
     -0.636241    -0.479747    -0.474435    -0.467350    -0.467350    -0.447101    -0.447101    -0.345256    -0.345256    -0.304181

          21.1         22.1         23.1         24.1
     -0.304181    -0.289274    -0.037958    -0.024220


 HOMO     22.1    -0.289274 =      -7.8715eV
 LUMO     23.1    -0.037958 =      -1.0329eV
 LUMO-HOMO         0.251316 =       6.8387eV

 Orbitals saved in record  2101.2


 **********************************************************************************************************************************
 DATASETS  * FILE   NREC   LENGTH (MB)   RECORD NAMES
              1      19       36.73       500      610      700      900      950      970     1000      129      960     1100   
                                          VAR    BASINP    GEOM    SYMINP    ZMAT    AOBASIS   BASIS     P2S    ABASIS      S 
                                         1400     1410     1200     1210     1080     1600     1650     1700     1800   
                                           T        V       H0       H01     AOSYM     SMH    MOLCAS    OPER     GRID   

              2       5        4.04       700     1000      520     1800     2101   
                                         GEOM     BASIS   MCVARS    GRID      RKS  

              4       2        1.76      8000     8001   

 PROGRAMS   *        TOTAL   RKS-SCF       INT
 CPU TIMES  *       324.41    323.83      0.37
 REAL TIME  *       326.48 SEC
 DISK USED  *        56.74 MB (local),      453.91 MB (total)
 SF USED    *         1.76 MB
 GA USED    *         0.00 MB       (max)       0.00 MB       (current)
 **********************************************************************************************************************************
 SETTING EAB_PBE        =      -376.82859601  AU                              

 Dummy atoms: O2  C2  O3


 Recomputing one-electron integrals since nuclear charges changed


 PROGRAM * SEWARD (Integral evaluation for generally contracted gaussian basis sets)     Author: Roland Lindh, 1990

 Geometry written to block  1 of record 700


 Point group  C1  



 ATOMIC COORDINATES

 NR  ATOM    CHARGE       X              Y              Z

   1  C1      6.00    0.000000000    0.107687933    0.000000000
   2  O1      8.00    0.000000000    2.319083238    0.000000000
   3  O2      0.00    0.000000000    5.342645038    0.000000000
   4  C2      0.00    0.000000000    7.554040343    0.000000000
   5  O3      0.00    0.000000000    9.765435649    0.000000000
   6  O4      8.00    0.000000000   -2.103707373    0.000000000

 Bond lengths in Bohr (Angstrom)

 1-2  2.211395306  1-6  2.211395306  2-3  3.023561799  3-4  2.211395306  4-5  2.211395306
     ( 1.170220000)     ( 1.170220000)     ( 1.600000000)     ( 1.170220000)     ( 1.170220000)

 Bond angles

  1-2-3  179.99999915   2-1-6  180.00000000   2-3-4  180.00000000   3-4-5  180.00000000

 NUCLEAR CHARGE:                   22
 NUMBER OF PRIMITIVE AOS:         708
 NUMBER OF SYMMETRY AOS:          558
 NUMBER OF CONTRACTIONS:          480   (  480A   )
 NUMBER OF INNER CORE ORBITALS:     0   (    0A   )
 NUMBER OF OUTER CORE ORBITALS:     3   (    3A   )
 NUMBER OF VALENCE ORBITALS:       12   (   12A   )

 MOLECULE CHANGED: INITIALIZING OCCUPATION AND DUMP RECORDS


 NUCLEAR REPULSION ENERGY   57.88200765

 EXTRA SYMMETRY OF AOS IN SYMMETRY 1:   1 1 1 1 1 1 2 1 3 2   1 3 2 1 3 2 1 3 2 1   3 1 2 4 1 3 1 2 4 1   3 1 2 4 1 3 1 2 4 1
                                        3 2 1 3 2 4 1 3 2 1   3 2 4 1 3 2 1 3 2 4   1 3 1 2 4 1 3 1 2 4   3 1 2 4 1 3 1 2 4 3
                                        1 1 1 1 1 1 2 1 3 2   1 3 2 1 3 2 1 3 2 1   3 1 2 4 1 3 1 2 4 1   3 1 2 4 1 3 1 2 4 1
                                        3 2 1 3 2 4 1 3 2 1   3 2 4 1 3 2 1 3 2 4   1 3 1 2 4 1 3 1 2 4   3 1 2 4 1 3 1 2 4 3
                                        1 1 1 1 1 1 2 1 3 2   1 3 2 1 3 2 1 3 2 1   3 1 2 4 1 3 1 2 4 1   3 1 2 4 1 3 1 2 4 1
                                        3 2 1 3 2 4 1 3 2 1   3 2 4 1 3 2 1 3 2 4   1 3 1 2 4 1 3 1 2 4   3 1 2 4 1 3 1 2 4 3
                                        1 1 1 1 1 1 2 1 3 2   1 3 2 1 3 2 1 3 2 1   3 1 2 4 1 3 1 2 4 1   3 1 2 4 1 3 1 2 4 1
                                        3 2 1 3 2 4 1 3 2 1   3 2 4 1 3 2 1 3 2 4   1 3 1 2 4 1 3 1 2 4   3 1 2 4 1 3 1 2 4 3
                                        1 1 1 1 1 1 2 1 3 2   1 3 2 1 3 2 1 3 2 1   3 1 2 4 1 3 1 2 4 1   3 1 2 4 1 3 1 2 4 1
                                        3 2 1 3 2 4 1 3 2 1   3 2 4 1 3 2 1 3 2 4   1 3 1 2 4 1 3 1 2 4   3 1 2 4 1 3 1 2 4 3
                                        1 1 1 1 1 1 2 1 3 2   1 3 2 1 3 2 1 3 2 1   3 1 2 4 1 3 1 2 4 1   3 1 2 4 1 3 1 2 4 1
                                        3 2 1 3 2 4 1 3 2 1   3 2 4 1 3 2 1 3 2 4   1 3 1 2 4 1 3 1 2 4   3 1 2 4 1 3 1 2 4 3

 Eigenvalues of metric

         1 0.106E-05 0.276E-05 0.169E-04 0.190E-04 0.250E-04 0.261E-04 0.342E-04 0.495E-04


 OPERATOR DM      FOR CENTER  0  COORDINATES:    0.000000    0.000000    0.000000


 **********************************************************************************************************************************
 DATASETS  * FILE   NREC   LENGTH (MB)   RECORD NAMES
              1      19       36.73       500      610      700      900      950      970     1000      129      960     1100   
                                          VAR    BASINP    GEOM    SYMINP    ZMAT    AOBASIS   BASIS     P2S    ABASIS      S 
                                         1400     1410     1200     1210     1080     1600     1650     1700     1800   
                                           T        V       H0       H01     AOSYM     SMH    MOLCAS    OPER     GRID   

              2       5        4.04       700     1000      520     1800     2101   
                                         GEOM     BASIS   MCVARS    GRID      RKS  

 PROGRAMS   *        TOTAL       INT   RKS-SCF       INT
 CPU TIMES  *       324.56      0.15    323.83      0.37
 REAL TIME  *       326.69 SEC
 DISK USED  *        56.74 MB (local),      453.91 MB (total)
 SF USED    *         1.76 MB
 GA USED    *         0.00 MB       (max)       0.00 MB       (current)
 **********************************************************************************************************************************


 Program * Restricted Kohn-Sham

 Density functional group PBE=PBEX+PBEC
 Functional: PBEX(Automatically generated (new) PBEX)                          Gradient terms: 1
 Functional: PBEC(Automatically generated (new) PBEC)                          Gradient terms: 1

 Functional: PBEX                   Factor:  1.0000
 Functional: PBEC                   Factor:  1.0000

 Radial grid threshold:                     5.0D-09
 Accuracy mode for quadrature:              DEFAULT
 Global grid threshold:                     1.0D-08
 Angular grid threshold:                    1.0D-09
 Fac_Neighbour:                                 4.0
 Size adjustment in partitioning scheme:   TREUTLER
 Skip grid points with weights lower than:  1.0D-20
 Grid orientation:                           T

 Generated new metagrid on record  1800.2 with target accuracy 1.0D-08 and 86032 points in CPU time    0.2
 Computed new grid on record 1800.1 in CPU time    0.2

 DFT orbital screening threshold (tolorb):   1.0D-09


 Integral-direct calculation

 Orbital guess generated from atomic densities. Full valence occupancy:   15

 Initial occupancy:  11

 NELEC=   22   SYM=1   MS2= 0   THRE=1.0D-09   THRD=1.0D-04   THRG=1.0D-04  HFMA2=F  DIIS_START=2   DIIS_MAX=10   DIIS_INCORE=F

 Level shifts:    0.00 (CLOSED)    0.00 (OPEN)    0.30 (GAP_MIN)

 ITER           ETOT              DE          GRAD        DDIFF     DIIS  NEXP   TIME(IT)  TIME(TOT)  DIAG
   1     -188.41740248    -188.41740248     0.00D+00     0.21D-01     0     0      33.22     34.68    start
   2     -188.23932553       0.17807695     0.45D-02     0.50D-02     1     0      32.22     66.90    diag
   3     -188.48480470      -0.24547917     0.85D-02     0.36D-02     2     0      32.04     98.94    diag
   4     -188.48729762      -0.00249292     0.77D-03     0.46D-03     3     0      30.77    129.71    diag
   5     -188.48735549      -0.00005787     0.12D-03     0.56D-04     4     0      29.49    159.20    diag
   6     -188.48735744      -0.00000195     0.24D-04     0.10D-04     5     0      27.61    186.81    diag
   7     -188.48735745      -0.00000001     0.23D-05     0.10D-05     6     0      25.41    212.22    diag
   8     -188.48735745      -0.00000000     0.93D-06     0.52D-06     7     0      23.09    235.31    fixocc
   9     -188.48735746      -0.00000000     0.58D-06     0.21D-06     8     0      22.28    257.59    diag
  10     -188.48735746       0.00000000     0.18D-07     0.87D-08     9     0      18.27    275.86    diag/orth
  11     -188.48735746       0.00000000     0.84D-09     0.39D-08     0     0      15.65    291.51    diag

 Final occupancy:  11

 !RKS STATE 1.1 Energy               -188.487357455656
  RKS One-electron energy            -371.968859601020
  RKS Two-electron energy             147.950792317512
  RKS Kinetic energy                  187.818154658175
  RKS Nuclear energy                   57.882007652906
  RKS Virial quotient                  -1.003563035739
 Density functional                   -22.35129783     PBEX=-21.61281986 PBEC= -0.73847797

 !RKS STATE 1.1 Dipole moment          -0.00000000     0.00016391     0.00000000
 Dipole moment /Debye                  -0.00000000     0.00041663     0.00000000

 Orbital energies:

           1.1          2.1          3.1          4.1          5.1          6.1          7.1          8.1          9.1         10.1
    -18.831412   -18.831274   -10.061284    -1.069175    -1.032248    -0.508676    -0.466522    -0.465975    -0.465975    -0.333755

          11.1         12.1         13.1
     -0.333755    -0.034688    -0.017722


 HOMO     11.1    -0.333755 =      -9.0819eV
 LUMO     12.1    -0.034688 =      -0.9439eV
 LUMO-HOMO         0.299067 =       8.1380eV

 Orbitals saved in record  2201.2


 **********************************************************************************************************************************
 DATASETS  * FILE   NREC   LENGTH (MB)   RECORD NAMES
              1      19       36.73       500      610      700      900      950      970     1000      129      960     1100   
                                          VAR    BASINP    GEOM    SYMINP    ZMAT    AOBASIS   BASIS     P2S    ABASIS      S 
                                         1400     1410     1200     1210     1080     1600     1650     1700     1800   
                                           T        V       H0       H01     AOSYM     SMH    MOLCAS    OPER     GRID   

              2       6       10.31       700     1000      520     1800     2101     2201   
                                         GEOM     BASIS   MCVARS    GRID      RKS      RKS  

              4       2        1.76      8000     8001   

 PROGRAMS   *        TOTAL   RKS-SCF       INT   RKS-SCF       INT
 CPU TIMES  *       616.37    291.81      0.15    323.83      0.37
 REAL TIME  *       619.24 SEC
 DISK USED  *        63.01 MB (local),      504.07 MB (total)
 SF USED    *         4.39 MB
 GA USED    *         0.00 MB       (max)       0.00 MB       (current)
 **********************************************************************************************************************************
 SETTING EA_PBE         =      -188.48735746  AU                              

 Dummy atoms: C1  O1  O4


 Recomputing one-electron integrals since nuclear charges changed


 PROGRAM * SEWARD (Integral evaluation for generally contracted gaussian basis sets)     Author: Roland Lindh, 1990

 Geometry written to block  1 of record 700


 Point group  C1  



 ATOMIC COORDINATES

 NR  ATOM    CHARGE       X              Y              Z

   1  C1      0.00    0.000000000    0.107687933    0.000000000
   2  O1      0.00    0.000000000    2.319083238    0.000000000
   3  O2      8.00    0.000000000    5.342645038    0.000000000
   4  C2      6.00    0.000000000    7.554040343    0.000000000
   5  O3      8.00    0.000000000    9.765435649    0.000000000
   6  O4      0.00    0.000000000   -2.103707373    0.000000000

 Bond lengths in Bohr (Angstrom)

 1-2  2.211395306  1-6  2.211395306  2-3  3.023561799  3-4  2.211395306  4-5  2.211395306
     ( 1.170220000)     ( 1.170220000)     ( 1.600000000)     ( 1.170220000)     ( 1.170220000)

 Bond angles

  1-2-3  179.99999915   2-1-6  180.00000000   2-3-4  180.00000000   3-4-5  180.00000000

 NUCLEAR CHARGE:                   22
 NUMBER OF PRIMITIVE AOS:         708
 NUMBER OF SYMMETRY AOS:          558
 NUMBER OF CONTRACTIONS:          480   (  480A   )
 NUMBER OF INNER CORE ORBITALS:     0   (    0A   )
 NUMBER OF OUTER CORE ORBITALS:     3   (    3A   )
 NUMBER OF VALENCE ORBITALS:       12   (   12A   )

 MOLECULE CHANGED: INITIALIZING OCCUPATION AND DUMP RECORDS


 NUCLEAR REPULSION ENERGY   57.88200765

 EXTRA SYMMETRY OF AOS IN SYMMETRY 1:   1 1 1 1 1 1 2 1 3 2   1 3 2 1 3 2 1 3 2 1   3 1 2 4 1 3 1 2 4 1   3 1 2 4 1 3 1 2 4 1
                                        3 2 1 3 2 4 1 3 2 1   3 2 4 1 3 2 1 3 2 4   1 3 1 2 4 1 3 1 2 4   3 1 2 4 1 3 1 2 4 3
                                        1 1 1 1 1 1 2 1 3 2   1 3 2 1 3 2 1 3 2 1   3 1 2 4 1 3 1 2 4 1   3 1 2 4 1 3 1 2 4 1
                                        3 2 1 3 2 4 1 3 2 1   3 2 4 1 3 2 1 3 2 4   1 3 1 2 4 1 3 1 2 4   3 1 2 4 1 3 1 2 4 3
                                        1 1 1 1 1 1 2 1 3 2   1 3 2 1 3 2 1 3 2 1   3 1 2 4 1 3 1 2 4 1   3 1 2 4 1 3 1 2 4 1
                                        3 2 1 3 2 4 1 3 2 1   3 2 4 1 3 2 1 3 2 4   1 3 1 2 4 1 3 1 2 4   3 1 2 4 1 3 1 2 4 3
                                        1 1 1 1 1 1 2 1 3 2   1 3 2 1 3 2 1 3 2 1   3 1 2 4 1 3 1 2 4 1   3 1 2 4 1 3 1 2 4 1
                                        3 2 1 3 2 4 1 3 2 1   3 2 4 1 3 2 1 3 2 4   1 3 1 2 4 1 3 1 2 4   3 1 2 4 1 3 1 2 4 3
                                        1 1 1 1 1 1 2 1 3 2   1 3 2 1 3 2 1 3 2 1   3 1 2 4 1 3 1 2 4 1   3 1 2 4 1 3 1 2 4 1
                                        3 2 1 3 2 4 1 3 2 1   3 2 4 1 3 2 1 3 2 4   1 3 1 2 4 1 3 1 2 4   3 1 2 4 1 3 1 2 4 3
                                        1 1 1 1 1 1 2 1 3 2   1 3 2 1 3 2 1 3 2 1   3 1 2 4 1 3 1 2 4 1   3 1 2 4 1 3 1 2 4 1
                                        3 2 1 3 2 4 1 3 2 1   3 2 4 1 3 2 1 3 2 4   1 3 1 2 4 1 3 1 2 4   3 1 2 4 1 3 1 2 4 3

 Eigenvalues of metric

         1 0.106E-05 0.276E-05 0.169E-04 0.190E-04 0.250E-04 0.261E-04 0.342E-04 0.495E-04


 OPERATOR DM      FOR CENTER  0  COORDINATES:    0.000000    0.000000    0.000000


 **********************************************************************************************************************************
 DATASETS  * FILE   NREC   LENGTH (MB)   RECORD NAMES
              1      19       36.73       500      610      700      900      950      970     1000      129      960     1100   
                                          VAR    BASINP    GEOM    SYMINP    ZMAT    AOBASIS   BASIS     P2S    ABASIS      S 
                                         1400     1410     1200     1210     1080     1600     1650     1700     1800   
                                           T        V       H0       H01     AOSYM     SMH    MOLCAS    OPER     GRID   

              2       6       10.31       700     1000      520     1800     2101     2201   
                                         GEOM     BASIS   MCVARS    GRID      RKS      RKS  

 PROGRAMS   *        TOTAL       INT   RKS-SCF       INT   RKS-SCF       INT
 CPU TIMES  *       616.50      0.13    291.81      0.15    323.83      0.37
 REAL TIME  *       619.45 SEC
 DISK USED  *        63.01 MB (local),      504.07 MB (total)
 SF USED    *         4.39 MB
 GA USED    *         0.00 MB       (max)       0.00 MB       (current)
 **********************************************************************************************************************************


 Program * Restricted Kohn-Sham

 Density functional group PBE=PBEX+PBEC
 Functional: PBEX(Automatically generated (new) PBEX)                          Gradient terms: 1
 Functional: PBEC(Automatically generated (new) PBEC)                          Gradient terms: 1

 Functional: PBEX                   Factor:  1.0000
 Functional: PBEC                   Factor:  1.0000

 Radial grid threshold:                     5.0D-09
 Accuracy mode for quadrature:              DEFAULT
 Global grid threshold:                     1.0D-08
 Angular grid threshold:                    1.0D-09
 Fac_Neighbour:                                 4.0
 Size adjustment in partitioning scheme:   TREUTLER
 Skip grid points with weights lower than:  1.0D-20
 Grid orientation:                           T


 DFT orbital screening threshold (tolorb):   1.0D-09


 Integral-direct calculation

 Orbital guess generated from atomic densities. Full valence occupancy:   15

 Initial occupancy:  11

 NELEC=   22   SYM=1   MS2= 0   THRE=1.0D-09   THRD=1.0D-04   THRG=1.0D-04  HFMA2=F  DIIS_START=2   DIIS_MAX=10   DIIS_INCORE=F

 Level shifts:    0.00 (CLOSED)    0.00 (OPEN)    0.30 (GAP_MIN)

 ITER           ETOT              DE          GRAD        DDIFF     DIIS  NEXP   TIME(IT)  TIME(TOT)  DIAG
   1     -188.41740247    -188.41740247     0.00D+00     0.21D-01     0     0      33.29     34.51    start
   2     -188.23932555       0.17807693     0.45D-02     0.50D-02     1     0      32.22     66.73    diag
   3     -188.48480470      -0.24547915     0.85D-02     0.36D-02     2     0      31.89     98.62    diag
   4     -188.48729762      -0.00249292     0.77D-03     0.46D-03     3     0      30.93    129.55    diag
   5     -188.48735549      -0.00005787     0.12D-03     0.56D-04     4     0      29.54    159.09    diag
   6     -188.48735744      -0.00000195     0.24D-04     0.10D-04     5     0      27.58    186.67    diag
   7     -188.48735745      -0.00000001     0.23D-05     0.10D-05     6     0      25.26    211.93    diag
   8     -188.48735745      -0.00000000     0.92D-06     0.52D-06     7     0      23.18    235.11    fixocc
   9     -188.48735745      -0.00000000     0.58D-06     0.21D-06     8     0      22.32    257.43    diag
  10     -188.48735745       0.00000000     0.18D-07     0.87D-08     9     0      18.21    275.64    diag/orth
  11     -188.48735745       0.00000000     0.84D-09     0.36D-08     0     0      15.55    291.19    diag

 Final occupancy:  11

 !RKS STATE 1.1 Energy               -188.487357453252
  RKS One-electron energy            -371.968859726560
  RKS Two-electron energy             147.950792454645
  RKS Kinetic energy                  187.818154686139
  RKS Nuclear energy                   57.882007652906
  RKS Virial quotient                  -1.003563035577
 Density functional                   -22.35129783     PBEX=-21.61281987 PBEC= -0.73847797

 !RKS STATE 1.1 Dipole moment          -0.00000000    -0.00016396     0.00000000
 Dipole moment /Debye                  -0.00000000    -0.00041675     0.00000000

 Orbital energies:

           1.1          2.1          3.1          4.1          5.1          6.1          7.1          8.1          9.1         10.1
    -18.831412   -18.831274   -10.061284    -1.069175    -1.032248    -0.508676    -0.466522    -0.465975    -0.465975    -0.333755

          11.1         12.1         13.1
     -0.333755    -0.034688    -0.017722


 HOMO     11.1    -0.333755 =      -9.0819eV
 LUMO     12.1    -0.034688 =      -0.9439eV
 LUMO-HOMO         0.299067 =       8.1380eV

 Orbitals saved in record  2301.2


 **********************************************************************************************************************************
 DATASETS  * FILE   NREC   LENGTH (MB)   RECORD NAMES
              1      19       36.73       500      610      700      900      950      970     1000      129      960     1100   
                                          VAR    BASINP    GEOM    SYMINP    ZMAT    AOBASIS   BASIS     P2S    ABASIS      S 
                                         1400     1410     1200     1210     1080     1600     1650     1700     1800   
                                           T        V       H0       H01     AOSYM     SMH    MOLCAS    OPER     GRID   

              2       7       16.58       700     1000      520     1800     2101     2201     2301   
                                         GEOM     BASIS   MCVARS    GRID      RKS      RKS      RKS  

              4       2        1.76      8000     8001   

 PROGRAMS   *        TOTAL   RKS-SCF       INT   RKS-SCF       INT   RKS-SCF       INT
 CPU TIMES  *       907.74    291.24      0.13    291.81      0.15    323.83      0.37
 REAL TIME  *       911.44 SEC
 DISK USED  *        69.28 MB (local),      554.22 MB (total)
 SF USED    *         4.39 MB
 GA USED    *         0.00 MB       (max)       0.00 MB       (current)
 **********************************************************************************************************************************
 SETTING EB_PBE         =      -188.48735745  AU                              
 SETTING E_AB_INT       =         0.14611890  AU                              

 *** results in hartree
 E_AB_INT         =         0.14611890 AU

 RPBE/aug-cc-pVQZ energy=   -188.487357453252

         RKS-SCF         RKS-SCF         RKS-SCF
   -188.48735745   -188.48735746   -376.82859601
 **********************************************************************************************************************************
 Molpro calculation terminated
