
 Primary working directories    : /scratch/sirous/43374/molpro.QGeQa1JVDb
 Secondary working directories  : /scratch/sirous/43374/molpro.QGeQa1JVDb
 Wavefunction directory         : /scratch/sirous/43374/
 Main file repository           : /scratch/sirous/43374/molpro.QGeQa1JVDb/

 id        : karlovklimes

 Nodes                      nprocs
 nc-19.cc.karlov.mff.cuni.cz    4

 Using customized tuning parameters: mindgm=1; mindgv=20; mindgc=4; mindgr=1; noblas=0; minvec=7
 default implementation of scratch files=sf  


 Variables initialized (934), CPU time= 0.00 sec
 ***,CH3C6H4CN+CF3CN+BF3
 memory,500,m
 gdirect
 gthresh,energy=1.d-8,twoint=1.d-19,oneint=1.d-19,zero=1.d-15,orbital=1.d-8,grid=1.d-8
 symmetry,nosym
 geomtyp=xyz
                                                                                 ! Geometry
 geometry={
 O1        -0.687464896    -0.111744327     -0.019625472
 H1        -1.046121544    0.775938208     0.012706845
 H2        0.274042519    0.025850654     -0.003497262
 N1        2.184000217    0.101210727     0.005615243
 H3        2.479364648    -0.451427248     -0.789175620
 H4        2.494080712    -0.409510364     0.822474736
 C1        2.843335494    1.409574692     -0.034626395
 H5        2.532793072    1.991299652     0.829889025
 H6        3.934644784    1.370279720     -0.043582064
 H7        2.516623222    1.945492161     -0.922450207
 }
 
 
 
 basis=avqz
 
 
 
                                                                                 ! Dimer Calculation
 {rks,pbe,accu=1.d-8;orbital,2101.2}
 eab_PBE=energy
 
 
                                                                                 !monomer A
 dummy,4,5,6,7,8,9,10;                                                           ! NOW MONOMER B IS DUMMY
 {rks,pbe,accu=1.d-8;orbital,2201.2}
 ea_PBE=energy
                                                                                 !monomer B
 dummy,1,2,3;                                                                    !NOW MONOMER A IS DUMMY
 {rks,pbe,accu=1.d-8;orbital,2301.2}
 eb_PBE=energy
 
 E_AB_int=eab_PBE-ea_PBE-eb_PBE
 
 
 text,results in hartree
 show,E_AB_int
 
 Commands  initialized (763), CPU time= 0.02 sec, 617 directives.
 Default parameters read. Elapsed time= 0.19 sec

 Checking input...
 Passed
1


                                         ***  PROGRAM SYSTEM MOLPRO  ***
                                       Copyright, TTI GmbH Stuttgart, 2015
                                    Version 2019.2 linked Jun  8 2019 11:26:33


 **********************************************************************************************************************************
 LABEL *   CH3C6H4CN+CF3CN+BF3                                                           
  64 bit mpp version                                                                     DATE: 06-Oct-19          TIME: 22:19:35  
 **********************************************************************************************************************************

 SHA1:             8135a10abc80eafa5b3ae28ffc55be4890dc4c84
 **********************************************************************************************************************************

 THRESHOLDS:

 ZERO    =  1.00D-15  ONEINT  =  1.00D-19  TWOINT  =  1.00D-19  PREFAC  =  1.00D-14  XXXXXX  =  1.00D-09  EORDER  =  1.00D-04
 ENERGY  =  1.00D-08  ETEST   =  0.00D+00  EDENS   =  0.00D+00  THRDEDEF=  1.00D-06  GRADIENT=  1.00D-02  STEP    =  1.00D-03
 ORBITAL =  1.00D-08  CIVEC   =  1.00D-05  COEFF   =  1.00D-04  PRINTCI =  5.00D-02  PUNCHCI =  9.90D+01  OPTGRAD =  3.00D-04
 OPTENERG=  1.00D-06  OPTSTEP =  3.00D-04  THRGRAD =  1.00D-10  COMPRESS=  1.00D-11  VARMIN  =  1.00D-07  VARMAX  =  1.00D-03
 THRDOUB =  0.00D+00  THRDIV  =  1.00D-05  THRRED  =  1.00D-07  THRPSP  =  1.00D+00  THRDC   =  1.00D-10  THRCS   =  1.00D-10
 THRNRM  =  1.00D-08  THREQ   =  0.00D+00  THRDE   =  1.00D+00  THRREF  =  1.00D-05  SPARFAC =  1.00D+00  THRDLP  =  1.00D-07
 THRDIA  =  1.00D-10  THRDLS  =  1.00D-07  THRGPS  =  0.00D+00  THRKEX  =  0.00D+00  THRDIS  =  2.00D-01  THRVAR  =  1.00D-10
 THRLOC  =  1.00D-06  THRGAP  =  1.00D-06  THRLOCT = -1.00D+00  THRGAPT = -1.00D+00  THRORB  =  1.00D-06  THRMLTP =  0.00D+00
 THRCPQCI=  1.00D-10  KEXTA   =  0.00D+00  THRCOARS=  0.00D+00  SYMTOL  =  1.00D-06  GRADTOL =  1.00D-06  THROVL  =  1.00D-08
 THRORTH =  1.00D-08  GRID    =  1.00D-08  GRIDMAX =  1.00D-03  DTMAX   =  0.00D+00  THROCCDE=  1.00D-01  THROCCDE=  1.00D-01
 THRPRINT=  2.50D-01


 Variable memory set to  500000000 words,  buffer space 

 SETTING GEOMTYP        =    XYZ
 ZSYMEL=NOSYM

 SETTING BASIS          =    AVQZ


 Recomputing integrals since basis changed


 Using spherical harmonics

 Library entry O      S aug-cc-pVQZ          selected for orbital group  1
 Library entry O      P aug-cc-pVQZ          selected for orbital group  1
 Library entry O      D aug-cc-pVQZ          selected for orbital group  1
 Library entry O      F aug-cc-pVQZ          selected for orbital group  1
 Library entry O      G aug-cc-pVQZ          selected for orbital group  1
 Library entry H      S aug-cc-pVQZ          selected for orbital group  2
 Library entry H      P aug-cc-pVQZ          selected for orbital group  2
 Library entry H      D aug-cc-pVQZ          selected for orbital group  2
 Library entry H      F aug-cc-pVQZ          selected for orbital group  2
 Library entry N      S aug-cc-pVQZ          selected for orbital group  3
 Library entry N      P aug-cc-pVQZ          selected for orbital group  3
 Library entry N      D aug-cc-pVQZ          selected for orbital group  3
 Library entry N      F aug-cc-pVQZ          selected for orbital group  3
 Library entry N      G aug-cc-pVQZ          selected for orbital group  3
 Library entry C      S aug-cc-pVQZ          selected for orbital group  5
 Library entry C      P aug-cc-pVQZ          selected for orbital group  5
 Library entry C      D aug-cc-pVQZ          selected for orbital group  5
 Library entry C      F aug-cc-pVQZ          selected for orbital group  5
 Library entry C      G aug-cc-pVQZ          selected for orbital group  5


 PROGRAM * SEWARD (Integral evaluation for generally contracted gaussian basis sets)     Author: Roland Lindh, 1990

 Geometry written to block  1 of record 700


 Point group  C1  



 ATOMIC COORDINATES

 NR  ATOM    CHARGE       X              Y              Z

   1  O1      8.00   -1.299120374   -0.211166174   -0.037086767
   2  H1      1.00   -1.976883211    1.466310703    0.024012457
   3  H2      1.00    0.517865307    0.048850656   -0.006608867
   4  N1      7.00    4.127162266    0.191260555    0.010611271
   5  H3      1.00    4.685320148   -0.853073864   -1.491325786
   6  H4      1.00    4.713129478   -0.773862433    1.554251995
   7  C1      6.00    5.373125364    2.663710120   -0.065434403
   8  H5      1.00    4.786285236    3.763010974    1.568262971
   9  H6      1.00    7.435401039    2.589453385   -0.082358165
  10  H7      1.00    4.755728648    3.676447362   -1.743178255

 Bond lengths in Bohr (Angstrom)

 1-2  1.810255300  1-3  1.835749062  4-5  1.912587128  4-6  1.912497488  4-7  2.769695622
     ( 0.957945851)     ( 0.971436569)     ( 1.012097522)     ( 1.012050086)     ( 1.465659804)

  7- 8  2.054704556   7- 9  2.063681525   7-10  2.054662955
       ( 1.087302826)       ( 1.092053234)       ( 1.087280812)

 Bond angles

  2- 1- 3  103.81354080   4- 7- 8  109.10407840   4- 7- 9  114.68652183   4- 7-10  109.10154196

  5-4-6  105.59704101   5-4-7  109.54744639   6-4-7  109.56111076   8-7-9  108.13067149

  8- 7-10  107.44041837   9- 7-10  108.13881681

 NUCLEAR CHARGE:                   28
 NUMBER OF PRIMITIVE AOS:         753
 NUMBER OF SYMMETRY AOS:          615
 NUMBER OF CONTRACTIONS:          562   (  562A   )
 NUMBER OF CORE ORBITALS:           3   (    3A   )
 NUMBER OF VALENCE ORBITALS:       19   (   19A   )


 NUCLEAR REPULSION ENERGY   80.21715964


 Eigenvalues of metric

         1 0.741E-05 0.885E-05 0.172E-04 0.217E-04 0.250E-04 0.281E-04 0.368E-04 0.417E-04


 OPERATOR DM      FOR CENTER  0  COORDINATES:    0.000000    0.000000    0.000000


 **********************************************************************************************************************************
 DATASETS  * FILE   NREC   LENGTH (MB)   RECORD NAMES
              1      18       41.67       500      610      700      900      950      970     1000      129      960     1100   
                                          VAR    BASINP    GEOM    SYMINP    ZMAT    AOBASIS   BASIS     P2S    ABASIS      S 
                                         1400     1410     1200     1210     1080     1600     1650     1700   
                                           T        V       H0       H01     AOSYM     SMH    MOLCAS    OPER   

 PROGRAMS   *        TOTAL       INT
 CPU TIMES  *         0.94      0.76
 REAL TIME  *         2.15 SEC
 DISK USED  *        42.27 MB (local),      169.06 MB (total)
 GA USED    *         0.00 MB       (max)       0.00 MB       (current)
 **********************************************************************************************************************************

 Density functional group PBE=PBEX+PBEC
 Functional: PBEX(Automatically generated (new) PBEX)                          Gradient terms: 1
 Functional: PBEC(Automatically generated (new) PBEC)                          Gradient terms: 1
 Use libxcgrid:  F
 Use grid at  1800.2

 Functional: PBEX                      Factor:  1.0000
 Functional: PBEC                      Factor:  1.0000

 Generated new metagrid on record  1800.2 with target accuracy 1.0D-08 and 88690 points in CPU time    0.3
 Computed new grid on record 1800.1 in CPU time    0.3
  452899 words reserved for DFT integration

 PROGRAM * RKS-SCF (Restricted closed shell Kohn-Sham)     Authors: W. Meyer, H.-J. Werner, P.J. Knowles, 1993

 NUMBER OF ELECTRONS:      14+   14-    SPACE SYMMETRY=1    SPIN SYMMETRY: Singlet 
 CONVERGENCE THRESHOLDS:    1.00E-04 (Density)    1.00E-08 (Energy)
 INTEGRAL THRESHOLDS:       1.00E-11 (Initial)    1.00E-11 (Final)
 MAX. NUMBER OF ITERATIONS:       60
 INTERPOLATION TYPE:            DIIS
 INTERPOLATION STEPS:              2 (START)      1 (STEP)
 LEVEL SHIFTS:                  0.00 (CLOSED)  0.00 (OPEN) 



 Use fine grid record 1800.2 for energy threshold  1.0D-08
 Orbital guess generated from atomic densities. Full valence occupancy:   22

 Molecular orbital dump at record        2101.2

 Initial occupancy:  14

 Direct Fock-matrix evaluation.        Authors: Roland Lindh & Martin Schuetz (1993/96)

 Integral Threshold:                  0.1D-10
 Threshold for writing integrals:     0.1D-06
 Prescreening on density matrix:        ON 
 Calculation will be performed fully direct        

 ITERATION   DDIFF            GRAD            ENERGY        2-EL.EN.            DIPOLE MOMENTS         DIIS   CPU(IT)  CPU(TOT)
    1      0.000D+00      0.000D+00      -171.96368499    339.416647    1.63675    0.79135    0.04348    0    154.6    164.0     start
    2      0.000D+00      0.567D-02      -171.32654183    302.592615    0.36089   -0.26560   -0.01961    1    152.3    316.3     diag
    3      0.846D-02      0.113D-01      -172.15991367    327.533949    1.39547    0.71138    0.03018    2    151.9    468.2     diag
    4      0.597D-02      0.135D-02      -172.16917641    327.670823    1.30478    0.53431    0.02563    3    144.4    612.6     diag
    5      0.965D-03      0.593D-03      -172.17129282    327.001904    1.28133    0.55322    0.02693    4    141.7    754.3     diag
    6      0.357D-03      0.167D-03      -172.17144685    327.090978    1.29488    0.55935    0.02636    5    136.0    890.3     diag
    7      0.104D-03      0.676D-04      -172.17147357    327.104779    1.29403    0.55914    0.02655    6    132.3   1022.5     diag
    8      0.355D-04      0.970D-05      -172.17147414    327.117228    1.29468    0.56053    0.02653    7    125.1   1147.6     diag
    9      0.447D-05      0.847D-06      -172.17147415    327.117339    1.29477    0.56018    0.02656    8    110.6   1258.2     diag
   10      0.570D-06      0.271D-06      -172.17147415    327.117118    1.29466    0.56030    0.02654    0    102.4   1360.7     orth

 Final occupancy:  14

 !RKS STATE  1.1 Energy              -172.171474145114
 Nuclear energy                        80.21715964
 One-electron energy                 -392.61004450
 Two-electron energy                  163.55855920
 Density functional                   -23.33714849     PBEX=-22.43506551 PBEC= -0.90208297
 Virial quotient                       -1.00380246
 !RKS STATE  1.1 Dipole moment          1.29465587     0.56030452     0.02654462
 Dipole moment /Debye                   3.29047147     1.42405876     0.06746528

 Orbital energies:

         1.1          2.1          3.1          4.1          5.1          6.1          7.1          8.1          9.1         10.1
    -18.708003   -13.990450    -9.912309    -0.887147    -0.825349    -0.617050    -0.464133    -0.442554    -0.416909    -0.378090

        11.1         12.1         13.1         14.1         15.1         16.1
     -0.343428    -0.307474    -0.229315    -0.227680    -0.033284    -0.006686


 HOMO     14.1    -0.227680 =      -6.1955eV
 LUMO     15.1    -0.033284 =      -0.9057eV
 LUMO-HOMO         0.194396 =       5.2898eV


 **********************************************************************************************************************************
 DATASETS  * FILE   NREC   LENGTH (MB)   RECORD NAMES
              1      19       41.67       500      610      700      900      950      970     1000      129      960     1100   
                                          VAR    BASINP    GEOM    SYMINP    ZMAT    AOBASIS   BASIS     P2S    ABASIS      S 
                                         1400     1410     1200     1210     1080     1600     1650     1700     1800   
                                           T        V       H0       H01     AOSYM     SMH    MOLCAS    OPER     GRID   

              2       5        9.33       700     1000      520     1800     2101   
                                         GEOM     BASIS   MCVARS    GRID      RKS  

 PROGRAMS   *        TOTAL   RKS-SCF       INT
 CPU TIMES  *      1362.33   1361.39      0.76
 REAL TIME  *      1369.09 SEC
 DISK USED  *        72.65 MB (local),      290.58 MB (total)
 SF USED    *         3.80 MB
 GA USED    *         2.91 MB       (max)       2.90 MB       (current)
 **********************************************************************************************************************************
 SETTING EAB_PBE        =      -172.17147415  AU                              

 Dummy atoms: N1  H3  H4  C1  H5  H6  H7


 Recomputing one-electron integrals since nuclear charges changed


 PROGRAM * SEWARD (Integral evaluation for generally contracted gaussian basis sets)     Author: Roland Lindh, 1990

 Geometry written to block  1 of record 700


 Point group  C1  



 ATOMIC COORDINATES

 NR  ATOM    CHARGE       X              Y              Z

   1  O1      8.00   -1.299120374   -0.211166174   -0.037086767
   2  H1      1.00   -1.976883211    1.466310703    0.024012457
   3  H2      1.00    0.517865307    0.048850656   -0.006608867
   4  N1      0.00    4.127162266    0.191260555    0.010611271
   5  H3      0.00    4.685320148   -0.853073864   -1.491325786
   6  H4      0.00    4.713129478   -0.773862433    1.554251995
   7  C1      0.00    5.373125364    2.663710120   -0.065434403
   8  H5      0.00    4.786285236    3.763010974    1.568262971
   9  H6      0.00    7.435401039    2.589453385   -0.082358165
  10  H7      0.00    4.755728648    3.676447362   -1.743178255

 Bond lengths in Bohr (Angstrom)

 1-2  1.810255300  1-3  1.835749062  4-5  1.912587128  4-6  1.912497488  4-7  2.769695622
     ( 0.957945851)     ( 0.971436569)     ( 1.012097522)     ( 1.012050086)     ( 1.465659804)

  7- 8  2.054704556   7- 9  2.063681525   7-10  2.054662955
       ( 1.087302826)       ( 1.092053234)       ( 1.087280812)

 Bond angles

  2- 1- 3  103.81354080   4- 7- 8  109.10407840   4- 7- 9  114.68652183   4- 7-10  109.10154196

  5-4-6  105.59704101   5-4-7  109.54744639   6-4-7  109.56111076   8-7-9  108.13067149

  8- 7-10  107.44041837   9- 7-10  108.13881681

 NUCLEAR CHARGE:                   10
 NUMBER OF PRIMITIVE AOS:         753
 NUMBER OF SYMMETRY AOS:          615
 NUMBER OF CONTRACTIONS:          562   (  562A   )
 NUMBER OF CORE ORBITALS:           1   (    1A   )
 NUMBER OF VALENCE ORBITALS:        6   (    6A   )

 MOLECULE CHANGED: INITIALIZING OCCUPATION AND DUMP RECORDS


 NUCLEAR REPULSION ENERGY    9.12565577


 Eigenvalues of metric

         1 0.741E-05 0.885E-05 0.172E-04 0.217E-04 0.250E-04 0.281E-04 0.368E-04 0.417E-04


 OPERATOR DM      FOR CENTER  0  COORDINATES:    0.000000    0.000000    0.000000


 **********************************************************************************************************************************
 DATASETS  * FILE   NREC   LENGTH (MB)   RECORD NAMES
              1      19       41.67       500      610      700      900      950      970     1000      129      960     1100   
                                          VAR    BASINP    GEOM    SYMINP    ZMAT    AOBASIS   BASIS     P2S    ABASIS      S 
                                         1400     1410     1200     1210     1080     1600     1650     1700     1800   
                                           T        V       H0       H01     AOSYM     SMH    MOLCAS    OPER     GRID   

              2       5        9.33       700     1000      520     1800     2101   
                                         GEOM     BASIS   MCVARS    GRID      RKS  

 PROGRAMS   *        TOTAL       INT   RKS-SCF       INT
 CPU TIMES  *      1362.73      0.39   1361.39      0.76
 REAL TIME  *      1369.61 SEC
 DISK USED  *        72.65 MB (local),      290.58 MB (total)
 SF USED    *         3.80 MB
 GA USED    *         2.91 MB       (max)       2.90 MB       (current)
 **********************************************************************************************************************************

 Density functional group PBE=PBEX+PBEC
 Functional: PBEX(Automatically generated (new) PBEX)                          Gradient terms: 1
 Functional: PBEC(Automatically generated (new) PBEC)                          Gradient terms: 1
 Use libxcgrid:  F
 Use grid at  1800.2

 Functional: PBEX                      Factor:  1.0000
 Functional: PBEC                      Factor:  1.0000

 Generated new metagrid on record  1800.2 with target accuracy 1.0D-08 and 88690 points in CPU time    0.3
 Computed new grid on record 1800.1 in CPU time    0.4
  452899 words reserved for DFT integration

 PROGRAM * RKS-SCF (Restricted closed shell Kohn-Sham)     Authors: W. Meyer, H.-J. Werner, P.J. Knowles, 1993

 NUMBER OF ELECTRONS:       5+    5-    SPACE SYMMETRY=1    SPIN SYMMETRY: Singlet 
 CONVERGENCE THRESHOLDS:    1.00E-04 (Density)    1.00E-08 (Energy)
 INTEGRAL THRESHOLDS:       1.00E-11 (Initial)    1.00E-11 (Final)
 MAX. NUMBER OF ITERATIONS:       60
 INTERPOLATION TYPE:            DIIS
 INTERPOLATION STEPS:              2 (START)      1 (STEP)
 LEVEL SHIFTS:                  0.00 (CLOSED)  0.00 (OPEN) 



 Use fine grid record 1800.2 for energy threshold  1.0D-08
 Orbital guess generated from atomic densities. Full valence occupancy:    7

 Molecular orbital dump at record        2201.2

 Initial occupancy:   5

 Direct Fock-matrix evaluation.        Authors: Roland Lindh & Martin Schuetz (1993/96)

 Integral Threshold:                  0.1D-10
 Threshold for writing integrals:     0.1D-06
 Prescreening on density matrix:        ON 
 Calculation will be performed fully direct        

 ITERATION   DDIFF            GRAD            ENERGY        2-EL.EN.            DIPOLE MOMENTS         DIIS   CPU(IT)  CPU(TOT)
    1      0.000D+00      0.000D+00       -76.30068776     98.144239    0.56485    0.95049    0.04499    0    148.3    157.4     start
    2      0.000D+00      0.654D-02       -75.91002066     81.718656   -0.26746   -0.39274   -0.01903    1    148.2    305.5     diag
    3      0.509D-02      0.149D-01       -76.38594682     93.549533    0.37381    0.63874    0.03017    2    149.1    454.7     diag
    4      0.368D-02      0.391D-03       -76.38636691     93.145979    0.35739    0.61333    0.02895    3    140.1    594.7     diag
    5      0.166D-03      0.866D-04       -76.38638059     93.196098    0.35677    0.61187    0.02889    4    127.6    722.4     diag
    6      0.185D-04      0.198D-04       -76.38638142     93.207329    0.35798    0.61389    0.02898    5    116.5    838.8     diag
    7      0.462D-05      0.784D-06       -76.38638142     93.207320    0.35791    0.61380    0.02898    6     94.3    933.1     diag
    8      0.204D-06      0.662D-07       -76.38638142     93.207429    0.35793    0.61381    0.02898    0     62.3    995.4     orth

 Final occupancy:   5

 !RKS STATE  1.1 Energy               -76.386381418079
 Nuclear energy                         9.12565577
 One-electron energy                 -122.87992195
 Two-electron energy                   46.60371451
 Density functional                    -9.23582975     PBEX=-8.91155086 PBEC=-0.32427888
 Virial quotient                       -1.00359608
 !RKS STATE  1.1 Dipole moment          0.35792684     0.61381141     0.02897716
 Dipole moment /Debye                   0.90969971     1.56005081     0.07364777

 Orbital energies:

         1.1          2.1          3.1          4.1          5.1          6.1          7.1
    -18.754555    -0.929896    -0.481731    -0.344080    -0.266098    -0.035189     0.013588


 HOMO      5.1    -0.266098 =      -7.2409eV
 LUMO      6.1    -0.035189 =      -0.9575eV
 LUMO-HOMO         0.230910 =       6.2834eV


 **********************************************************************************************************************************
 DATASETS  * FILE   NREC   LENGTH (MB)   RECORD NAMES
              1      19       41.67       500      610      700      900      950      970     1000      129      960     1100   
                                          VAR    BASINP    GEOM    SYMINP    ZMAT    AOBASIS   BASIS     P2S    ABASIS      S 
                                         1400     1410     1200     1210     1080     1600     1650     1700     1800   
                                           T        V       H0       H01     AOSYM     SMH    MOLCAS    OPER     GRID   

              2       6       24.48       700     1000      520     1800     2101     2201   
                                         GEOM     BASIS   MCVARS    GRID      RKS      RKS  

 PROGRAMS   *        TOTAL   RKS-SCF       INT   RKS-SCF       INT
 CPU TIMES  *      2358.96    996.23      0.39   1361.39      0.76
 REAL TIME  *      2368.99 SEC
 DISK USED  *        85.27 MB (local),      341.07 MB (total)
 SF USED    *         3.80 MB
 GA USED    *         2.91 MB       (max)       2.90 MB       (current)
 **********************************************************************************************************************************
 SETTING EA_PBE         =       -76.38638142  AU                              

 Dummy atoms: O1  H1  H2


 Recomputing one-electron integrals since nuclear charges changed


 PROGRAM * SEWARD (Integral evaluation for generally contracted gaussian basis sets)     Author: Roland Lindh, 1990

 Geometry written to block  1 of record 700


 Point group  C1  



 ATOMIC COORDINATES

 NR  ATOM    CHARGE       X              Y              Z

   1  O1      0.00   -1.299120374   -0.211166174   -0.037086767
   2  H1      0.00   -1.976883211    1.466310703    0.024012457
   3  H2      0.00    0.517865307    0.048850656   -0.006608867
   4  N1      7.00    4.127162266    0.191260555    0.010611271
   5  H3      1.00    4.685320148   -0.853073864   -1.491325786
   6  H4      1.00    4.713129478   -0.773862433    1.554251995
   7  C1      6.00    5.373125364    2.663710120   -0.065434403
   8  H5      1.00    4.786285236    3.763010974    1.568262971
   9  H6      1.00    7.435401039    2.589453385   -0.082358165
  10  H7      1.00    4.755728648    3.676447362   -1.743178255

 Bond lengths in Bohr (Angstrom)

 1-2  1.810255300  1-3  1.835749062  4-5  1.912587128  4-6  1.912497488  4-7  2.769695622
     ( 0.957945851)     ( 0.971436569)     ( 1.012097522)     ( 1.012050086)     ( 1.465659804)

  7- 8  2.054704556   7- 9  2.063681525   7-10  2.054662955
       ( 1.087302826)       ( 1.092053234)       ( 1.087280812)

 Bond angles

  2- 1- 3  103.81354080   4- 7- 8  109.10407840   4- 7- 9  114.68652183   4- 7-10  109.10154196

  5-4-6  105.59704101   5-4-7  109.54744639   6-4-7  109.56111076   8-7-9  108.13067149

  8- 7-10  107.44041837   9- 7-10  108.13881681

 NUCLEAR CHARGE:                   18
 NUMBER OF PRIMITIVE AOS:         753
 NUMBER OF SYMMETRY AOS:          615
 NUMBER OF CONTRACTIONS:          562   (  562A   )
 NUMBER OF CORE ORBITALS:           2   (    2A   )
 NUMBER OF VALENCE ORBITALS:       13   (   13A   )

 MOLECULE CHANGED: INITIALIZING OCCUPATION AND DUMP RECORDS


 NUCLEAR REPULSION ENERGY   42.06267591


 Eigenvalues of metric

         1 0.741E-05 0.885E-05 0.172E-04 0.217E-04 0.250E-04 0.281E-04 0.368E-04 0.417E-04


 OPERATOR DM      FOR CENTER  0  COORDINATES:    0.000000    0.000000    0.000000


 **********************************************************************************************************************************
 DATASETS  * FILE   NREC   LENGTH (MB)   RECORD NAMES
              1      19       41.67       500      610      700      900      950      970     1000      129      960     1100   
                                          VAR    BASINP    GEOM    SYMINP    ZMAT    AOBASIS   BASIS     P2S    ABASIS      S 
                                         1400     1410     1200     1210     1080     1600     1650     1700     1800   
                                           T        V       H0       H01     AOSYM     SMH    MOLCAS    OPER     GRID   

              2       6       24.48       700     1000      520     1800     2101     2201   
                                         GEOM     BASIS   MCVARS    GRID      RKS      RKS  

 PROGRAMS   *        TOTAL       INT   RKS-SCF       INT   RKS-SCF       INT
 CPU TIMES  *      2359.39      0.42    996.23      0.39   1361.39      0.76
 REAL TIME  *      2369.57 SEC
 DISK USED  *        85.27 MB (local),      341.07 MB (total)
 SF USED    *         3.80 MB
 GA USED    *         2.91 MB       (max)       2.90 MB       (current)
 **********************************************************************************************************************************

 Density functional group PBE=PBEX+PBEC
 Functional: PBEX(Automatically generated (new) PBEX)                          Gradient terms: 1
 Functional: PBEC(Automatically generated (new) PBEC)                          Gradient terms: 1
 Use libxcgrid:  F
 Use grid at  1800.2

 Functional: PBEX                      Factor:  1.0000
 Functional: PBEC                      Factor:  1.0000

 Generated new metagrid on record  1800.2 with target accuracy 1.0D-08 and 88690 points in CPU time    0.3
 Computed new grid on record 1800.1 in CPU time    0.3
  452899 words reserved for DFT integration

 PROGRAM * RKS-SCF (Restricted closed shell Kohn-Sham)     Authors: W. Meyer, H.-J. Werner, P.J. Knowles, 1993

 NUMBER OF ELECTRONS:       9+    9-    SPACE SYMMETRY=1    SPIN SYMMETRY: Singlet 
 CONVERGENCE THRESHOLDS:    1.00E-04 (Density)    1.00E-08 (Energy)
 INTEGRAL THRESHOLDS:       1.00E-11 (Initial)    1.00E-11 (Final)
 MAX. NUMBER OF ITERATIONS:       60
 INTERPOLATION TYPE:            DIIS
 INTERPOLATION STEPS:              2 (START)      1 (STEP)
 LEVEL SHIFTS:                  0.00 (CLOSED)  0.00 (OPEN) 



 Use fine grid record 1800.2 for energy threshold  1.0D-08
 Orbital guess generated from atomic densities. Full valence occupancy:   15

 Molecular orbital dump at record        2301.2

 Initial occupancy:   9

 Direct Fock-matrix evaluation.        Authors: Roland Lindh & Martin Schuetz (1993/96)

 Integral Threshold:                  0.1D-10
 Threshold for writing integrals:     0.1D-06
 Prescreening on density matrix:        ON 
 Calculation will be performed fully direct        

 ITERATION   DDIFF            GRAD            ENERGY        2-EL.EN.            DIPOLE MOMENTS         DIIS   CPU(IT)  CPU(TOT)
    1      0.000D+00      0.000D+00       -95.63688358    183.525253    0.82296   -0.18592   -0.00276    0    153.1    162.7     start
    2      0.000D+00      0.530D-02       -95.30085590    161.529198   -0.25519    0.24299   -0.00365    1    151.2    313.9     diag
    3      0.669D-02      0.972D-02       -95.76843791    176.297348    0.61577   -0.04079   -0.00464    2    149.8    463.7     diag
    4      0.442D-02      0.109D-02       -95.77254713    175.961854    0.49648   -0.11006   -0.00170    3    141.6    605.3     diag
    5      0.669D-03      0.500D-03       -95.77359633    175.781219    0.51303   -0.08648   -0.00248    4    139.7    745.0     diag
    6      0.257D-03      0.833D-04       -95.77362445    175.800029    0.51308   -0.08654   -0.00247    5    133.2    878.3     diag
    7      0.340D-04      0.863D-05       -95.77362480    175.810787    0.51438   -0.08614   -0.00250    6    122.9   1001.2     diag
    8      0.504D-05      0.933D-06       -95.77362480    175.810294    0.51403   -0.08642   -0.00249    7    105.8   1106.9     diag
    9      0.635D-06      0.238D-06       -95.77362480    175.810221    0.51416   -0.08632   -0.00249    0     94.0   1201.0     orth

 Final occupancy:   9

 !RKS STATE  1.1 Energy               -95.773624804285
 Nuclear energy                        42.06267591
 One-electron energy                 -211.66150067
 Two-electron energy                   87.90511036
 Density functional                   -14.07991039     PBEX=-13.50720134 PBEC= -0.57270905
 Virial quotient                       -1.00430929
 !RKS STATE  1.1 Dipole moment          0.51415742    -0.08631604    -0.00249115
 Dipole moment /Debye                   1.30677222    -0.21937913    -0.00633146

 Orbital energies:

         1.1          2.1          3.1          4.1          5.1          6.1          7.1          8.1          9.1         10.1
    -13.963593    -9.894160    -0.800193    -0.596824    -0.440858    -0.394938    -0.358376    -0.324440    -0.200776    -0.022337

        11.1
      0.001563


 HOMO      9.1    -0.200776 =      -5.4634eV
 LUMO     10.1    -0.022337 =      -0.6078eV
 LUMO-HOMO         0.178439 =       4.8556eV


 **********************************************************************************************************************************
 DATASETS  * FILE   NREC   LENGTH (MB)   RECORD NAMES
              1      19       41.67       500      610      700      900      950      970     1000      129      960     1100   
                                          VAR    BASINP    GEOM    SYMINP    ZMAT    AOBASIS   BASIS     P2S    ABASIS      S 
                                         1400     1410     1200     1210     1080     1600     1650     1700     1800   
                                           T        V       H0       H01     AOSYM     SMH    MOLCAS    OPER     GRID   

              2       7       39.64       700     1000      520     1800     2101     2201     2301   
                                         GEOM     BASIS   MCVARS    GRID      RKS      RKS      RKS  

 PROGRAMS   *        TOTAL   RKS-SCF       INT   RKS-SCF       INT   RKS-SCF       INT
 CPU TIMES  *      3561.11   1201.72      0.42    996.23      0.39   1361.39      0.76
 REAL TIME  *      3575.13 SEC
 DISK USED  *       101.69 MB (local),      406.74 MB (total)
 SF USED    *         3.80 MB
 GA USED    *         2.91 MB       (max)       2.90 MB       (current)
 **********************************************************************************************************************************
 SETTING EB_PBE         =       -95.77362480  AU                              
 SETTING E_AB_INT       =        -0.01146792  AU                              

 *** results in hartree
 E_AB_INT         =        -0.01146792 AU
 Molecular orbitals read from record     2301.2  Type=RKS/CANONICAL (state 1.1)
 Occupation numbers read from record     2301.2  Type=RKS/RHF (state 1.1)
 Orbital energies read from record       2301.2  Type=RKS/CANONICAL (state 1.1)
 Redundancy group numbers read from rec  2301.2  Type=RKS/RHF (state 1.1)

 RPBE/aug-cc-pVQZ energy=    -95.773624804285

         RKS-SCF         RKS-SCF         RKS-SCF
    -95.77362480    -76.38638142   -172.17147415
 **********************************************************************************************************************************
 Molpro calculation terminated
