 vasp.6.1.2 22Jul20 (build Jan  6 2021 09:55:43) gamma-only                      
 executed on             LinuxPGI date 2021.03.01  02:13:01
 running on   32 total cores
 distrk:  each k-point on   32 cores,    1 groups
 distr:  one band on NCORE=   8 cores,    4 groups


--------------------------------------------------------------------------------------------------------


 INCAR:
 POTCAR:    PAW_PBE H_s 15May2010                 
 POTCAR:    PAW_PBE O_s 07Sep2000                 
 POTCAR:    PAW_PBE H_s 15May2010                 
   VRHFIN =H: ultrasoft test                                                                        
   LEXCH  = PE                                                                                      
   EATOM  =    12.4884 eV,    0.9179 Ry                                                             
                                                                                                    
   TITEL  = PAW_PBE H_s 15May2010                                                                   
   LULTRA =        F    use ultrasoft PP ?                                                          
   IUNSCR =        0    unscreen: 0-lin 1-nonlin 2-no                                               
   RPACOR =    0.000    partial core radius                                                         
   POMASS =    1.000; ZVAL   =    1.000    mass and valenz                                          
   RCORE  =    1.300    outmost cutoff radius                                                       
   RWIGS  =    0.700; RWIGS  =    0.370    wigner-seitz radius (au A)                               
   ENMAX  =  200.000; ENMIN  =  150.000 eV                                                          
   RCLOC  =    0.701    cutoff for local pot                                                        
   LCOR   =        T    correct aug charges                                                         
   LPAW   =        T    paw PP                                                                      
   EAUG   =  300.000                                                                                
   RMAX   =    1.330    core radius for proj-oper                                                   
   RAUG   =    1.200    factor for augmentation sphere                                              
   RDEP   =    1.337    radius for radial grids                                                     
   RDEPT  =    1.114    core radius for aug-charge                                                  
                                                                                                    
   Atomic configuration                                                                             
    2 entries                                                                                       
     n  l   j            E        occ.                                                              
     1  0  0.50        -6.4927   1.0000                                                             
     2  1  0.50        -3.4015   0.0000                                                             
   Description                                                                                      
     l       E           TYP  RCUT    TYP  RCUT                                                     
     0     -6.4927494     23  1.300                                                                 
     0      6.8029130     23  1.300                                                                 
     1     -4.0817478     23  1.300                                                                 
  local pseudopotential read in
  atomic valenz-charges read in
  non local Contribution for L=            0  read in
    real space projection operators read in
  non local Contribution for L=            0  read in
    real space projection operators read in
  non local Contribution for L=            1  read in
    real space projection operators read in
    PAW grid and wavefunctions read in
 
   number of l-projection  operators is LMAX  =            3
   number of lm-projection operators is LMMAX =            5
 
 POTCAR:    PAW_PBE O_s 07Sep2000                 
   VRHFIN =O: s2p4                                                                                  
   LEXCH  = PE                                                                                      
   EATOM  =   432.3788 eV,   31.7789 Ry                                                             
                                                                                                    
   TITEL  = PAW_PBE O_s 07Sep2000                                                                   
   LULTRA =        F    use ultrasoft PP ?                                                          
   IUNSCR =        0    unscreen: 0-lin 1-nonlin 2-no                                               
   RPACOR =    0.000    partial core radius                                                         
   POMASS =   16.000; ZVAL   =    6.000    mass and valenz                                          
   RCORE  =    1.850    outmost cutoff radius                                                       
   RWIGS  =    1.700; RWIGS  =    0.900    wigner-seitz radius (au A)                               
   ENMAX  =  282.853; ENMIN  =  212.140 eV                                                          
   RCLOC  =    0.804    cutoff for local pot                                                        
   LCOR   =        T    correct aug charges                                                         
   LPAW   =        T    paw PP                                                                      
   EAUG   =  412.352                                                                                
   RMAX   =    1.897    core radius for proj-oper                                                   
   RAUG   =    1.300    factor for augmentation sphere                                              
   RDEP   =    1.878    radius for radial grids                                                     
   RDEPT  =    1.572    core radius for aug-charge                                                  
                                                                                                    
   Atomic configuration                                                                             
    4 entries                                                                                       
     n  l   j            E        occ.                                                              
     1  0  0.50      -514.6923   2.0000                                                             
     2  0  0.50       -23.9615   2.0000                                                             
     2  1  0.50        -9.0305   4.0000                                                             
     3  2  1.50        -1.3606   0.0000                                                             
   Description                                                                                      
     l       E           TYP  RCUT    TYP  RCUT                                                     
     0    -23.9615315     23  1.500                                                                 
     0    -25.3221141     23  1.500                                                                 
     1     -9.0304908     23  1.850                                                                 
     1     -7.3935399     23  1.850                                                                 
  local pseudopotential read in
  atomic valenz-charges read in
  non local Contribution for L=            0  read in
    real space projection operators read in
  non local Contribution for L=            0  read in
    real space projection operators read in
  non local Contribution for L=            1  read in
    real space projection operators read in
  non local Contribution for L=            1  read in
    real space projection operators read in
    PAW grid and wavefunctions read in
 
   number of l-projection  operators is LMAX  =            4
   number of lm-projection operators is LMMAX =            8
 
  PAW_PBE H_s 15May2010                 :
 energy of atom  1       EATOM=  -12.4884
 kinetic energy error for atom=    0.0000 (will be added to EATOM!!)
  PAW_PBE O_s 07Sep2000                 :
 energy of atom  2       EATOM= -432.3788
 kinetic energy error for atom=    0.0004 (will be added to EATOM!!)
 
 
 POSCAR:  H  O
  positions in cartesian coordinates
  No initial velocities read in
 exchange correlation table for  LEXCH =        8
   RHO(1)=    0.500       N(1)  =     2000
   RHO(2)=  100.500       N(2)  =     4000
 


--------------------------------------------------------------------------------------------------------


 ion  position               nearest neighbor table
   1  0.001  0.018  0.978-   5 0.96
   2  1.000  0.018  0.022-   5 0.96
   3  0.001  0.164  0.000-   6 0.96
   4  0.028  0.197  1.000-   6 0.96
   5  0.000  0.035  0.000-   1 0.96   2 0.96
   6  0.001  0.191  0.000-   3 0.96   4 0.96
 
  LATTYP: Found a simple cubic cell.
 ALAT       =    35.0000000000
  
  Lattice vectors:
  
 A1 = (  35.0000000000,   0.0000000000,   0.0000000000)
 A2 = (   0.0000000000,  35.0000000000,   0.0000000000)
 A3 = (   0.0000000000,   0.0000000000,  35.0000000000)


Analysis of symmetry for initial positions (statically):
=====================================================================
 Subroutine PRICEL returns:
 Original cell was already a primitive cell.
 

 Routine SETGRP: Setting up the symmetry group for a 
 simple cubic supercell.


 Subroutine GETGRP returns: Found  1 space group operations
 (whereof  1 operations were pure point group operations)
 out of a pool of 48 trial point group operations.


The static configuration has the point symmetry C_1 .


Analysis of symmetry for dynamics (positions and initial velocities):
=====================================================================
 Subroutine PRICEL returns:
 Original cell was already a primitive cell.
 

 Routine SETGRP: Setting up the symmetry group for a 
 simple cubic supercell.


 Subroutine GETGRP returns: Found  1 space group operations
 (whereof  1 operations were pure point group operations)
 out of a pool of 48 trial point group operations.


The dynamic configuration has the point symmetry C_1 .


 Subroutine INISYM returns: Found  1 space group operations
 (whereof  1 operations are pure point group operations),
 and found     1 'primitive' translations


----------------------------------------------------------------------------------------

                                     Primitive cell                                     

  volume of cell :   42875.0000

  direct lattice vectors                    reciprocal lattice vectors
    35.000000000  0.000000000  0.000000000     0.028571429  0.000000000  0.000000000
     0.000000000 35.000000000  0.000000000     0.000000000  0.028571429  0.000000000
     0.000000000  0.000000000 35.000000000     0.000000000  0.000000000  0.028571429

  length of vectors
    35.000000000 35.000000000 35.000000000     0.028571429  0.028571429  0.028571429

  position of ions in fractional coordinates (direct lattice)
     0.000503079  0.018298976  0.978247097
     0.999617776  0.018046666  0.021558586
     0.000688177  0.163626144  0.000036905
     0.028137029  0.197137923  0.999533239
     0.000000000  0.035063029  0.000000000
     0.001349770  0.191085867  0.000072384

  ion indices of the primitive-cell ions
   primitive index   ion index
                 1           1
                 2           2
                 3           3
                 4           4
                 5           5
                 6           6

----------------------------------------------------------------------------------------

 
 
 KPOINTS: automatic mesh                          

Automatic generation of k-mesh.
Space group operators:
 irot       det(A)        alpha          n_x          n_y          n_z        tau_x        tau_y        tau_z
    1     1.000000     0.000000     1.000000     0.000000     0.000000     0.000000     0.000000     0.000000
 
 Subroutine IBZKPT returns following result:
 ===========================================
 
 Found      1 irreducible k-points:
 
 Following reciprocal coordinates:
            Coordinates               Weight
  0.000000  0.000000  0.000000      1.000000
 
 Following cartesian coordinates:
            Coordinates               Weight
  0.000000  0.000000  0.000000      1.000000
 


--------------------------------------------------------------------------------------------------------




 Dimension of arrays:
   k-points           NKPTS =      1   k-points in BZ     NKDIM =      1   number of bands    NBANDS=     12
   number of dos      NEDOS =    301   number of ions     NIONS =      6
   non local maximal  LDIM  =      4   non local SUM 2l+1 LMDIM =      8
   total plane-waves  NPLWV = ******
   max r-space proj   IRMAX =      1   max aug-charges    IRDMAX=  29269
   dimension x,y,z NGX =   378 NGY =  378 NGZ =  378
   dimension x,y,z NGXF=   756 NGYF=  756 NGZF=  756
   support grid    NGXF=   756 NGYF=  756 NGZF=  756
   ions per type =               4   2
   NGX,Y,Z   is equivalent  to a cutoff of  17.95, 17.95, 17.95 a.u.
   NGXF,Y,Z  is equivalent  to a cutoff of  35.91, 35.91, 35.91 a.u.

 SYSTEM =  C                                       
 POSCAR =   H  O                                   

 Startparameter for this run:
   NWRITE =      2    write-flag & timer
   PREC   = acc       normal or accurate (medium, high low for compatibility)
   ISTART =      0    job   : 0-new  1-cont  2-samecut
   ICHARG =      2    charge: 1-file 2-atom 10-const
   ISPIN  =      1    spin polarized calculation?
   LNONCOLLINEAR =      F non collinear calculations
   LSORBIT =      F    spin-orbit coupling
   INIWAV =      1    electr: 0-lowe 1-rand  2-diag
   LASPH  =      T    aspherical Exc in radial PAW
   METAGGA=      F    non-selfconsistent MetaGGA calc.

 Electronic Relaxation 1
   ENCUT  = 1000.0 eV  73.50 Ry    8.57 a.u.  90.25 90.25 90.25*2*pi/ulx,y,z
   ENINI  = 1000.0     initial cutoff
   ENAUG  =  412.4 eV  augmentation charge cutoff
   NELM   =     60;   NELMIN=  2; NELMDL= -5     # of ELM steps 
   EDIFF  = 0.1E-06   stopping-criterion for ELM
   LREAL  =      F    real-space projection
   NLSPLINE    = F    spline interpolate recip. space projectors
   LCOMPAT=      F    compatible to vasp.4.4
   GGA_COMPAT  = T    GGA compatible to vasp.4.4-vasp.4.6
   LMAXPAW     = -100 max onsite density
   LMAXMIX     =    2 max onsite mixed and CHGCAR
   VOSKOWN=      0    Vosko Wilk Nusair interpolation
   ROPT   =    0.00000   0.00000
 Ionic relaxation
   EDIFFG = 0.1E-05   stopping-criterion for IOM
   NSW    =      0    number of steps for IOM
   NBLOCK =      1;   KBLOCK =      1    inner block; outer block 
   IBRION =     -1    ionic relax: 0-MD 1-quasi-New 2-CG
   NFREE  =      0    steps in history (QN), initial steepest desc. (CG)
   ISIF   =      2    stress and relaxation
   IWAVPR =     10    prediction:  0-non 1-charg 2-wave 3-comb
   ISYM   =      2    0-nonsym 1-usesym 2-fastsym
   LCORR  =      T    Harris-Foulkes like correction to forces

   POTIM  = 0.5000    time-step for ionic-motion
   TEIN   =    0.0    initial temperature
   TEBEG  =    0.0;   TEEND  =   0.0 temperature during run
   SMASS  =  -3.00    Nose mass-parameter (am)
   estimated Nose-frequenzy (Omega)   =  0.10E-29 period in steps = 0.13E+47 mass=  -0.280E-25a.u.
   SCALEE = 1.0000    scale energy and forces
   NPACO  =    256;   APACO  = 16.0  distance and # of slots for P.C.
   PSTRESS=    0.0 pullay stress

  Mass of Ions in am
   POMASS =   1.00 16.00
  Ionic Valenz
   ZVAL   =   1.00  6.00
  Atomic Wigner-Seitz radii
   RWIGS  =  -1.00 -1.00
  virtual crystal weights 
   VCA    =   1.00  1.00
   NELECT =      16.0000    total number of electrons
   NUPDOWN=      -1.0000    fix difference up-down

 DOS related values:
   EMIN   =  10.00;   EMAX   =-10.00  energy-range for DOS
   EFERMI =   0.00
   ISMEAR =     0;   SIGMA  =   0.01  broadening in eV -4-tet -1-fermi 0-gaus

 Electronic relaxation 2 (details)
   IALGO  =     38    algorithm
   LDIAG  =      T    sub-space diagonalisation (order eigenvalues)
   LSUBROT=      F    optimize rotation matrix (better conditioning)
   TURBO    =      0    0=normal 1=particle mesh
   IRESTART =      0    0=no restart 2=restart with 2 vectors
   NREBOOT  =      0    no. of reboots
   NMIN     =      0    reboot dimension
   EREF     =   0.00    reference energy to select bands
   IMIX   =      4    mixing-type and parameters
     AMIX     =   0.40;   BMIX     =  1.00
     AMIX_MAG =   1.60;   BMIX_MAG =  1.00
     AMIN     =   0.10
     WC   =   100.;   INIMIX=   1;  MIXPRE=   1;  MAXMIX= -45

 Intra band minimization:
   WEIMIN = 0.0000     energy-eigenvalue tresh-hold
   EBREAK =  0.21E-08  absolut break condition
   DEPER  =   0.30     relativ break condition  

   TIME   =   0.40     timestep for ELM

  volume/ion in A,a.u.               =    7145.83     48222.46
  Fermi-wavevector in a.u.,A,eV,Ry     =   0.117864  0.222730  0.189010  0.013892
  Thomas-Fermi vector in A             =   0.732055
 
 Write flags
   LWAVE        =      T    write WAVECAR
   LDOWNSAMPLE  =      F    k-point downsampling of WAVECAR
   LCHARG       =      T    write CHGCAR
   LVTOT        =      F    write LOCPOT, total local potential
   LVHAR        =      F    write LOCPOT, Hartree potential only
   LELF         =      F    write electronic localiz. function (ELF)
   LORBIT       =      0    0 simple, 1 ext, 2 COOP (PROOUT), +10 PAW based schemes


 Dipole corrections
   LMONO  =      F    monopole corrections only (constant potential shift)
   LDIPOL =      F    correct potential (dipole corrections)
   IDIPOL =      4    1-x, 2-y, 3-z, 4-all directions 
   EPSILON=  1.0000000 bulk dielectric constant

 Exchange correlation treatment:
   GGA     =    --    GGA type
   LEXCH   =     8    internal setting for exchange type
   VOSKOWN=      0    Vosko Wilk Nusair interpolation
   LHFCALC =     F    Hartree Fock is set to
   LHFONE  =     F    Hartree Fock one center treatment
   AEXX    =    0.0000 exact exchange contribution

 Linear response parameters
   LEPSILON=     F    determine dielectric tensor
   LRPA    =     F    only Hartree local field effects (RPA)
   LNABLA  =     F    use nabla operator in PAW spheres
   LVEL    =     F    velocity operator in full k-point grid
   LINTERFAST=   F  fast interpolation
   KINTER  =     0    interpolate to denser k-point grid
   CSHIFT  =0.1000    complex shift for real part using Kramers Kronig
   OMEGAMAX=  -1.0    maximum frequency
   DEG_THRESHOLD= 0.2000000E-02 threshold for treating states as degnerate
   RTIME   =   -0.100 relaxation time in fs
  (WPLASMAI=    0.000 imaginary part of plasma frequency in eV, 0.658/RTIME)
   DFIELD  = 0.0000000 0.0000000 0.0000000 field for delta impulse in time
 
 Orbital magnetization related:
   ORBITALMAG=     F  switch on orbital magnetization
   LCHIMAG   =     F  perturbation theory with respect to B field
   DQ        =  0.001000  dq finite difference perturbation B field
   LLRAUG    =     F  two centre corrections for induced B field



--------------------------------------------------------------------------------------------------------


 Static calculation
 charge density and potential will be updated during run
 non-spin polarized calculation
 Variant of blocked Davidson
 Davidson routine will perform the subspace rotation
 perform sub-space diagonalisation
    after iterative eigenvector-optimisation
 modified Broyden-mixing scheme, WC =      100.0
 initial mixing is a Kerker type mixing with AMIX =  0.4000 and BMIX =      1.0000
 Hartree-type preconditioning will be used
 using additional bands             4
 reciprocal scheme for non local part
 calculate Harris-corrections to forces 
   (improved forces if not selfconsistent)
 use gradient corrections 
 use of overlap-Matrix (Vanderbilt PP)
 Gauss-broadening in eV      SIGMA  =   0.01


--------------------------------------------------------------------------------------------------------


  energy-cutoff  :     1000.00
  volume of cell :    42875.00
      direct lattice vectors                 reciprocal lattice vectors
    35.000000000  0.000000000  0.000000000     0.028571429  0.000000000  0.000000000
     0.000000000 35.000000000  0.000000000     0.000000000  0.028571429  0.000000000
     0.000000000  0.000000000 35.000000000     0.000000000  0.000000000  0.028571429

  length of vectors
    35.000000000 35.000000000 35.000000000     0.028571429  0.028571429  0.028571429


 
 k-points in units of 2pi/SCALE and weight: automatic mesh                          
   0.00000000  0.00000000  0.00000000       1.000
 
 k-points in reciprocal lattice and weights: automatic mesh                          
   0.00000000  0.00000000  0.00000000       1.000
 
 position of ions in fractional coordinates (direct lattice) 
   0.00050308  0.01829898  0.97824710
   0.99961778  0.01804667  0.02155859
   0.00068818  0.16362614  0.00003690
   0.02813703  0.19713792  0.99953324
   0.00000000  0.03506303  0.00000000
   0.00134977  0.19108587  0.00007238
 
 position of ions in cartesian coordinates  (Angst):
   0.01760775  0.64046416 34.23864840
  34.98662216  0.63163330  0.75455051
   0.02408619  5.72691505  0.00129166
   0.98479602  6.89982731 34.98366338
   0.00000000  1.22720600  0.00000000
   0.04724194  6.68800534  0.00253342
 


--------------------------------------------------------------------------------------------------------


 use parallel FFT for orbitals z direction half grid
 k-point   1 :   0.0000 0.0000 0.0000  plane waves: 1539209

 maximum and minimum number of plane-waves per node :    192406   192397

 maximum number of plane-waves:   1539209
 maximum index in each direction: 
   IXMAX=   90   IYMAX=   90   IZMAX=   90
   IXMIN=  -90   IYMIN=  -90   IZMIN=    0


 parallel 3D FFT for wavefunctions:
    minimum data exchange during FFTs selected (reduces bandwidth)
 parallel 3D FFT for charge:
    minimum data exchange during FFTs selected (reduces bandwidth)


 total amount of memory used by VASP MPI-rank0  1727998. kBytes
=======================================================================

   base      :      30000. kBytes
   nonl-proj :      43099. kBytes
   fftplans  :     601440. kBytes
   grid      :    1044223. kBytes
   one-center:          1. kBytes
   wavefun   :       9235. kBytes
 
     INWAV:  cpu time    0.0000: real time    0.0000
 Broyden mixing: mesh for mixing (old mesh)
   NGX =181   NGY =181   NGZ =181
  (NGX  =756   NGY  =756   NGZ  =756)
  gives a total of ****** points

 initial charge density was supplied:
 charge density of overlapping atoms calculated
 number of electron      16.0000000 magnetization 
 keeping initial charge density in first step


--------------------------------------------------------------------------------------------------------


 Maximum index for augmentation-charges          1122 (set IRDMAX)


--------------------------------------------------------------------------------------------------------


 First call to EWALD:  gamma=   0.051
 Maximum number of real-space cells 3x 3x 3
 Maximum number of reciprocal cells 3x 3x 3

    FEWALD:  cpu time    0.0008: real time    0.0008


--------------------------------------- Iteration      1(   1)  ---------------------------------------


    POTLOK:  cpu time   11.8393: real time   11.8566
    SETDIJ:  cpu time    0.0596: real time    0.0617
     EDDAV:  cpu time    6.0453: real time    7.1325
       DOS:  cpu time    0.0020: real time    0.0020
    --------------------------------------------
      LOOP:  cpu time   17.9463: real time   19.0528

 eigenvalue-minimisations  :    40
 total energy-change (2. order) : 0.1359822E+03  (-0.2611657E+03)
 number of electron      16.0000000 magnetization 
 augmentation part       16.0000000 magnetization 

 Free energy of the ion-electron system (eV)
  ---------------------------------------------------
  alpha Z        PSCENC =         0.01723541
  Ewald energy   TEWEN  =       398.08545311
  -Hartree energ DENC   =     -1108.25340054
  -exchange      EXHF   =         0.00000000
  -V(xc)+E(xc)   XCENC  =        64.23059002
  PAW double counting   =       700.82501663     -709.28092584
  entropy T*S    EENTRO =        -0.00000000
  eigenvalues    EBANDS =      -124.35198236
  atomic energy  EATOM  =       914.71024870
  Solvation  Ediel_sol  =         0.00000000
  ---------------------------------------------------
  free energy    TOTEN  =       135.98223512 eV

  energy without entropy =      135.98223512  energy(sigma->0) =      135.98223512


--------------------------------------------------------------------------------------------------------




--------------------------------------- Iteration      1(   2)  ---------------------------------------


     EDDAV:  cpu time    5.1371: real time    5.1457
       DOS:  cpu time    0.0018: real time    0.0018
    --------------------------------------------
      LOOP:  cpu time    5.1389: real time    5.1476

 eigenvalue-minimisations  :    32
 total energy-change (2. order) :-0.9531900E+02  (-0.8155614E+02)
 number of electron      16.0000000 magnetization 
 augmentation part       16.0000000 magnetization 

 Free energy of the ion-electron system (eV)
  ---------------------------------------------------
  alpha Z        PSCENC =         0.01723541
  Ewald energy   TEWEN  =       398.08545311
  -Hartree energ DENC   =     -1108.25340054
  -exchange      EXHF   =         0.00000000
  -V(xc)+E(xc)   XCENC  =        64.23059002
  PAW double counting   =       700.82501663     -709.28092584
  entropy T*S    EENTRO =        -0.00000000
  eigenvalues    EBANDS =      -219.67098443
  atomic energy  EATOM  =       914.71024870
  Solvation  Ediel_sol  =         0.00000000
  ---------------------------------------------------
  free energy    TOTEN  =        40.66323305 eV

  energy without entropy =       40.66323305  energy(sigma->0) =       40.66323305


--------------------------------------------------------------------------------------------------------




--------------------------------------- Iteration      1(   3)  ---------------------------------------


     EDDAV:  cpu time    4.6917: real time    4.6995
       DOS:  cpu time    0.0032: real time    0.0032
    --------------------------------------------
      LOOP:  cpu time    4.6948: real time    4.7027

 eigenvalue-minimisations  :    28
 total energy-change (2. order) :-0.6020623E+02  (-0.4637014E+02)
 number of electron      16.0000000 magnetization 
 augmentation part       16.0000000 magnetization 

 Free energy of the ion-electron system (eV)
  ---------------------------------------------------
  alpha Z        PSCENC =         0.01723541
  Ewald energy   TEWEN  =       398.08545311
  -Hartree energ DENC   =     -1108.25340054
  -exchange      EXHF   =         0.00000000
  -V(xc)+E(xc)   XCENC  =        64.23059002
  PAW double counting   =       700.82501663     -709.28092584
  entropy T*S    EENTRO =        -0.00000000
  eigenvalues    EBANDS =      -279.87721059
  atomic energy  EATOM  =       914.71024870
  Solvation  Ediel_sol  =         0.00000000
  ---------------------------------------------------
  free energy    TOTEN  =       -19.54299311 eV

  energy without entropy =      -19.54299311  energy(sigma->0) =      -19.54299311


--------------------------------------------------------------------------------------------------------




--------------------------------------- Iteration      1(   4)  ---------------------------------------


     EDDAV:  cpu time    4.6658: real time    4.6736
       DOS:  cpu time    0.0025: real time    0.0025
    --------------------------------------------
      LOOP:  cpu time    4.6684: real time    4.6761

 eigenvalue-minimisations  :    28
 total energy-change (2. order) :-0.1257993E+02  (-0.1257400E+02)
 number of electron      16.0000000 magnetization 
 augmentation part       16.0000000 magnetization 

 Free energy of the ion-electron system (eV)
  ---------------------------------------------------
  alpha Z        PSCENC =         0.01723541
  Ewald energy   TEWEN  =       398.08545311
  -Hartree energ DENC   =     -1108.25340054
  -exchange      EXHF   =         0.00000000
  -V(xc)+E(xc)   XCENC  =        64.23059002
  PAW double counting   =       700.82501663     -709.28092584
  entropy T*S    EENTRO =        -0.00000000
  eigenvalues    EBANDS =      -292.45714177
  atomic energy  EATOM  =       914.71024870
  Solvation  Ediel_sol  =         0.00000000
  ---------------------------------------------------
  free energy    TOTEN  =       -32.12292429 eV

  energy without entropy =      -32.12292429  energy(sigma->0) =      -32.12292429


--------------------------------------------------------------------------------------------------------




--------------------------------------- Iteration      1(   5)  ---------------------------------------


     EDDAV:  cpu time    5.1070: real time    5.1156
       DOS:  cpu time    0.0042: real time    0.0042
    CHARGE:  cpu time    1.5639: real time    1.5661
    MIXING:  cpu time    0.2141: real time    0.2145
    --------------------------------------------
      LOOP:  cpu time    6.8892: real time    6.9004

 eigenvalue-minimisations  :    32
 total energy-change (2. order) :-0.1449604E+00  (-0.1448837E+00)
 number of electron      16.0000000 magnetization 
 augmentation part        3.2957447 magnetization 

 Broyden mixing:
  rms(total) = 0.24654E+01    rms(broyden)= 0.24654E+01
  rms(prec ) = 0.24824E+01
  weight for this iteration     100.00

 Free energy of the ion-electron system (eV)
  ---------------------------------------------------
  alpha Z        PSCENC =         0.01723541
  Ewald energy   TEWEN  =       398.08545311
  -Hartree energ DENC   =     -1108.25340054
  -exchange      EXHF   =         0.00000000
  -V(xc)+E(xc)   XCENC  =        64.23059002
  PAW double counting   =       700.82501663     -709.28092584
  entropy T*S    EENTRO =        -0.00000000
  eigenvalues    EBANDS =      -292.60210213
  atomic energy  EATOM  =       914.71024870
  Solvation  Ediel_sol  =         0.00000000
  ---------------------------------------------------
  free energy    TOTEN  =       -32.26788465 eV

  energy without entropy =      -32.26788465  energy(sigma->0) =      -32.26788465


--------------------------------------------------------------------------------------------------------




--------------------------------------- Iteration      1(   6)  ---------------------------------------


    POTLOK:  cpu time   11.6488: real time   11.6657
    SETDIJ:  cpu time    0.0563: real time    0.0563
     EDDAV:  cpu time    4.6467: real time    4.6545
       DOS:  cpu time    0.0014: real time    0.0014
    CHARGE:  cpu time    1.5185: real time    1.5209
    MIXING:  cpu time    0.2139: real time    0.2217
    --------------------------------------------
      LOOP:  cpu time   18.0856: real time   18.1205

 eigenvalue-minimisations  :    28
 total energy-change (2. order) : 0.3977293E+01  (-0.1770094E+01)
 number of electron      16.0000000 magnetization 
 augmentation part        2.8048261 magnetization 

 Broyden mixing:
  rms(total) = 0.37876E+01    rms(broyden)= 0.37876E+01
  rms(prec ) = 0.37885E+01
  weight for this iteration     100.00

 eigenvalues of (default mixing * dielectric matrix)
  average eigenvalue GAMMA=   0.5817
  0.5817

 Free energy of the ion-electron system (eV)
  ---------------------------------------------------
  alpha Z        PSCENC =         0.01723541
  Ewald energy   TEWEN  =       398.08545311
  -Hartree energ DENC   =     -1156.19430326
  -exchange      EXHF   =         0.00000000
  -V(xc)+E(xc)   XCENC  =        66.89168489
  PAW double counting   =      1077.37411585    -1088.04140630
  entropy T*S    EENTRO =        -0.00000000
  eigenvalues    EBANDS =      -241.13362009
  atomic energy  EATOM  =       914.71024870
  Solvation  Ediel_sol  =         0.00000000
  ---------------------------------------------------
  free energy    TOTEN  =       -28.29059169 eV

  energy without entropy =      -28.29059169  energy(sigma->0) =      -28.29059169


--------------------------------------------------------------------------------------------------------




--------------------------------------- Iteration      1(   7)  ---------------------------------------


    POTLOK:  cpu time   11.6452: real time   11.6658
    SETDIJ:  cpu time    0.0604: real time    0.0604
     EDDAV:  cpu time    4.2006: real time    4.2076
       DOS:  cpu time    0.0024: real time    0.0024
    CHARGE:  cpu time    1.5239: real time    1.5263
    MIXING:  cpu time    0.2251: real time    0.2255
    --------------------------------------------
      LOOP:  cpu time   17.6576: real time   17.6881

 eigenvalue-minimisations  :    24
 total energy-change (2. order) :-0.1794155E+00  (-0.3348990E-01)
 number of electron      16.0000000 magnetization 
 augmentation part        2.8078264 magnetization 

 Broyden mixing:
  rms(total) = 0.46841E+01    rms(broyden)= 0.46841E+01
  rms(prec ) = 0.46851E+01
  weight for this iteration     100.00

 eigenvalues of (default mixing * dielectric matrix)
  average eigenvalue GAMMA=   1.6131
  0.9799  2.2463

 Free energy of the ion-electron system (eV)
  ---------------------------------------------------
  alpha Z        PSCENC =         0.01723541
  Ewald energy   TEWEN  =       398.08545311
  -Hartree energ DENC   =     -1152.43181902
  -exchange      EXHF   =         0.00000000
  -V(xc)+E(xc)   XCENC  =        66.71054452
  PAW double counting   =       863.78929812     -874.55023505
  entropy T*S    EENTRO =        -0.00000000
  eigenvalues    EBANDS =      -244.80073297
  atomic energy  EATOM  =       914.71024870
  Solvation  Ediel_sol  =         0.00000000
  ---------------------------------------------------
  free energy    TOTEN  =       -28.47000718 eV

  energy without entropy =      -28.47000718  energy(sigma->0) =      -28.47000718


--------------------------------------------------------------------------------------------------------




--------------------------------------- Iteration      1(   8)  ---------------------------------------


    POTLOK:  cpu time   11.7196: real time   11.7366
    SETDIJ:  cpu time    0.0577: real time    0.0577
     EDDAV:  cpu time    4.6847: real time    4.6925
       DOS:  cpu time    0.0022: real time    0.0022
    CHARGE:  cpu time    1.5158: real time    1.5182
    MIXING:  cpu time    0.2281: real time    0.2284
    --------------------------------------------
      LOOP:  cpu time   18.2081: real time   18.2355

 eigenvalue-minimisations  :    28
 total energy-change (2. order) : 0.5316951E+00  (-0.7163866E-01)
 number of electron      16.0000000 magnetization 
 augmentation part        2.7342464 magnetization 

 Broyden mixing:
  rms(total) = 0.51597E+00    rms(broyden)= 0.51597E+00
  rms(prec ) = 0.51672E+00
  weight for this iteration     100.00

 eigenvalues of (default mixing * dielectric matrix)
  average eigenvalue GAMMA=   1.3316
  2.2808  1.1116  0.6025

 Free energy of the ion-electron system (eV)
  ---------------------------------------------------
  alpha Z        PSCENC =         0.01723541
  Ewald energy   TEWEN  =       398.08545311
  -Hartree energ DENC   =     -1175.70076425
  -exchange      EXHF   =         0.00000000
  -V(xc)+E(xc)   XCENC  =        67.90053087
  PAW double counting   =      2414.63877891    -2424.95174287
  entropy T*S    EENTRO =        -0.00000000
  eigenvalues    EBANDS =      -222.63805191
  atomic energy  EATOM  =       914.71024870
  Solvation  Ediel_sol  =         0.00000000
  ---------------------------------------------------
  free energy    TOTEN  =       -27.93831203 eV

  energy without entropy =      -27.93831203  energy(sigma->0) =      -27.93831203


--------------------------------------------------------------------------------------------------------




--------------------------------------- Iteration      1(   9)  ---------------------------------------


    POTLOK:  cpu time   11.6984: real time   11.7163
    SETDIJ:  cpu time    0.0574: real time    0.0574
     EDDAV:  cpu time    5.1345: real time    5.1430
       DOS:  cpu time    0.0011: real time    0.0011
    CHARGE:  cpu time    1.5228: real time    1.5251
    MIXING:  cpu time    0.2573: real time    0.2577
    --------------------------------------------
      LOOP:  cpu time   18.6715: real time   18.7006

 eigenvalue-minimisations  :    32
 total energy-change (2. order) : 0.1763356E-01  (-0.6840165E-02)
 number of electron      16.0000000 magnetization 
 augmentation part        2.7628322 magnetization 

 Broyden mixing:
  rms(total) = 0.15485E+00    rms(broyden)= 0.15485E+00
  rms(prec ) = 0.15577E+00
  weight for this iteration     100.00

 eigenvalues of (default mixing * dielectric matrix)
  average eigenvalue GAMMA=   1.1013
  2.2525  1.0948  0.5288  0.5288

 Free energy of the ion-electron system (eV)
  ---------------------------------------------------
  alpha Z        PSCENC =         0.01723541
  Ewald energy   TEWEN  =       398.08545311
  -Hartree energ DENC   =     -1174.66833737
  -exchange      EXHF   =         0.00000000
  -V(xc)+E(xc)   XCENC  =        67.83368678
  PAW double counting   =      2477.70736872    -2487.87613210
  entropy T*S    EENTRO =        -0.00000000
  eigenvalues    EBANDS =      -223.73020172
  atomic energy  EATOM  =       914.71024870
  Solvation  Ediel_sol  =         0.00000000
  ---------------------------------------------------
  free energy    TOTEN  =       -27.92067847 eV

  energy without entropy =      -27.92067847  energy(sigma->0) =      -27.92067847


--------------------------------------------------------------------------------------------------------




--------------------------------------- Iteration      1(  10)  ---------------------------------------


    POTLOK:  cpu time   11.6781: real time   11.6949
    SETDIJ:  cpu time    0.0570: real time    0.0570
     EDDAV:  cpu time    5.0913: real time    5.0999
       DOS:  cpu time    0.0019: real time    0.0019
    CHARGE:  cpu time    1.5324: real time    1.5347
    MIXING:  cpu time    0.2653: real time    0.2657
    --------------------------------------------
      LOOP:  cpu time   18.6259: real time   18.6540

 eigenvalue-minimisations  :    32
 total energy-change (2. order) :-0.1039602E-02  (-0.1756306E-03)
 number of electron      16.0000000 magnetization 
 augmentation part        2.7655047 magnetization 

 Broyden mixing:
  rms(total) = 0.13637E+00    rms(broyden)= 0.13637E+00
  rms(prec ) = 0.13721E+00
  weight for this iteration     100.00

 eigenvalues of (default mixing * dielectric matrix)
  average eigenvalue GAMMA=   1.4139
  2.2153  1.5341  1.5341  0.7495  1.0361

 Free energy of the ion-electron system (eV)
  ---------------------------------------------------
  alpha Z        PSCENC =         0.01723541
  Ewald energy   TEWEN  =       398.08545311
  -Hartree energ DENC   =     -1174.80872288
  -exchange      EXHF   =         0.00000000
  -V(xc)+E(xc)   XCENC  =        67.83720060
  PAW double counting   =      2470.21692427    -2480.38536509
  entropy T*S    EENTRO =        -0.00000000
  eigenvalues    EBANDS =      -223.59469220
  atomic energy  EATOM  =       914.71024870
  Solvation  Ediel_sol  =         0.00000000
  ---------------------------------------------------
  free energy    TOTEN  =       -27.92171807 eV

  energy without entropy =      -27.92171807  energy(sigma->0) =      -27.92171807


--------------------------------------------------------------------------------------------------------




--------------------------------------- Iteration      1(  11)  ---------------------------------------


    POTLOK:  cpu time   11.6858: real time   11.7026
    SETDIJ:  cpu time    0.0600: real time    0.0600
     EDDAV:  cpu time    5.1092: real time    5.1178
       DOS:  cpu time    0.0005: real time    0.0005
    CHARGE:  cpu time    1.5136: real time    1.5159
    MIXING:  cpu time    0.3529: real time    0.3533
    --------------------------------------------
      LOOP:  cpu time   18.7220: real time   18.7503

 eigenvalue-minimisations  :    32
 total energy-change (2. order) :-0.5672158E-02  (-0.1029073E-02)
 number of electron      16.0000000 magnetization 
 augmentation part        2.7718710 magnetization 

 Broyden mixing:
  rms(total) = 0.20113E-01    rms(broyden)= 0.20113E-01
  rms(prec ) = 0.21653E-01
  weight for this iteration     100.00

 eigenvalues of (default mixing * dielectric matrix)
  average eigenvalue GAMMA=   1.4299
  2.5230  2.5230  1.1534  0.8402  0.8402  0.6995

 Free energy of the ion-electron system (eV)
  ---------------------------------------------------
  alpha Z        PSCENC =         0.01723541
  Ewald energy   TEWEN  =       398.08545311
  -Hartree energ DENC   =     -1176.42488164
  -exchange      EXHF   =         0.00000000
  -V(xc)+E(xc)   XCENC  =        67.89972365
  PAW double counting   =      2478.99773402    -2489.15139112
  entropy T*S    EENTRO =        -0.00000000
  eigenvalues    EBANDS =      -222.06151235
  atomic energy  EATOM  =       914.71024870
  Solvation  Ediel_sol  =         0.00000000
  ---------------------------------------------------
  free energy    TOTEN  =       -27.92739023 eV

  energy without entropy =      -27.92739023  energy(sigma->0) =      -27.92739023


--------------------------------------------------------------------------------------------------------




--------------------------------------- Iteration      1(  12)  ---------------------------------------


    POTLOK:  cpu time   11.7003: real time   11.7172
    SETDIJ:  cpu time    0.0570: real time    0.0570
     EDDAV:  cpu time    5.1280: real time    5.1365
       DOS:  cpu time    0.0016: real time    0.0016
    CHARGE:  cpu time    1.5315: real time    1.5338
    MIXING:  cpu time    0.2801: real time    0.2806
    --------------------------------------------
      LOOP:  cpu time   18.6986: real time   18.7267

 eigenvalue-minimisations  :    32
 total energy-change (2. order) :-0.3568781E-02  (-0.1614775E-03)
 number of electron      16.0000000 magnetization 
 augmentation part        2.7743740 magnetization 

 Broyden mixing:
  rms(total) = 0.13817E-01    rms(broyden)= 0.13817E-01
  rms(prec ) = 0.15128E-01
  weight for this iteration     100.00

 eigenvalues of (default mixing * dielectric matrix)
  average eigenvalue GAMMA=   1.4209
  2.4757  2.4757  1.1669  1.1669  1.0360  0.8127  0.8127

 Free energy of the ion-electron system (eV)
  ---------------------------------------------------
  alpha Z        PSCENC =         0.01723541
  Ewald energy   TEWEN  =       398.08545311
  -Hartree energ DENC   =     -1176.94765140
  -exchange      EXHF   =         0.00000000
  -V(xc)+E(xc)   XCENC  =        67.91372138
  PAW double counting   =      2473.92624064    -2484.07242585
  entropy T*S    EENTRO =        -0.00000000
  eigenvalues    EBANDS =      -221.56378100
  atomic energy  EATOM  =       914.71024870
  Solvation  Ediel_sol  =         0.00000000
  ---------------------------------------------------
  free energy    TOTEN  =       -27.93095901 eV

  energy without entropy =      -27.93095901  energy(sigma->0) =      -27.93095901


--------------------------------------------------------------------------------------------------------




--------------------------------------- Iteration      1(  13)  ---------------------------------------


    POTLOK:  cpu time   11.6833: real time   11.7002
    SETDIJ:  cpu time    0.0600: real time    0.0600
     EDDAV:  cpu time    5.1000: real time    5.1083
       DOS:  cpu time    0.0019: real time    0.0019
    CHARGE:  cpu time    1.5201: real time    1.5224
    MIXING:  cpu time    0.2763: real time    0.2768
    --------------------------------------------
      LOOP:  cpu time   18.6415: real time   18.6696

 eigenvalue-minimisations  :    32
 total energy-change (2. order) :-0.4128097E-02  (-0.5397953E-04)
 number of electron      16.0000000 magnetization 
 augmentation part        2.7735152 magnetization 

 Broyden mixing:
  rms(total) = 0.75207E-02    rms(broyden)= 0.75207E-02
  rms(prec ) = 0.88559E-02
  weight for this iteration     100.00

 eigenvalues of (default mixing * dielectric matrix)
  average eigenvalue GAMMA=   1.5292
  3.0863  2.3981  1.5532  1.5532  1.1083  0.7605  0.8868  0.8868

 Free energy of the ion-electron system (eV)
  ---------------------------------------------------
  alpha Z        PSCENC =         0.01723541
  Ewald energy   TEWEN  =       398.08545311
  -Hartree energ DENC   =     -1177.35164417
  -exchange      EXHF   =         0.00000000
  -V(xc)+E(xc)   XCENC  =        67.91591084
  PAW double counting   =      2471.81719905    -2481.95720840
  entropy T*S    EENTRO =        -0.00000000
  eigenvalues    EBANDS =      -221.17228165
  atomic energy  EATOM  =       914.71024870
  Solvation  Ediel_sol  =         0.00000000
  ---------------------------------------------------
  free energy    TOTEN  =       -27.93508711 eV

  energy without entropy =      -27.93508711  energy(sigma->0) =      -27.93508711


--------------------------------------------------------------------------------------------------------




--------------------------------------- Iteration      1(  14)  ---------------------------------------


    POTLOK:  cpu time   11.6903: real time   11.7070
    SETDIJ:  cpu time    0.0617: real time    0.0618
     EDDAV:  cpu time    4.1704: real time    4.1772
       DOS:  cpu time    0.0020: real time    0.0020
    CHARGE:  cpu time    1.5268: real time    1.5291
    MIXING:  cpu time    0.2872: real time    0.2876
    --------------------------------------------
      LOOP:  cpu time   17.7384: real time   17.7647

 eigenvalue-minimisations  :    24
 total energy-change (2. order) :-0.3825192E-02  (-0.4702771E-04)
 number of electron      16.0000000 magnetization 
 augmentation part        2.7731388 magnetization 

 Broyden mixing:
  rms(total) = 0.96753E-02    rms(broyden)= 0.96753E-02
  rms(prec ) = 0.10227E-01
  weight for this iteration     100.00

 eigenvalues of (default mixing * dielectric matrix)
  average eigenvalue GAMMA=   1.8211
  4.4571  2.8278  2.3018  1.8799  1.3376  0.7856  0.9456  0.9272  0.9272

 Free energy of the ion-electron system (eV)
  ---------------------------------------------------
  alpha Z        PSCENC =         0.01723541
  Ewald energy   TEWEN  =       398.08545311
  -Hartree energ DENC   =     -1177.74760188
  -exchange      EXHF   =         0.00000000
  -V(xc)+E(xc)   XCENC  =        67.91931270
  PAW double counting   =      2472.14080338    -2482.27466898
  entropy T*S    EENTRO =        -0.00000000
  eigenvalues    EBANDS =      -220.78969474
  atomic energy  EATOM  =       914.71024870
  Solvation  Ediel_sol  =         0.00000000
  ---------------------------------------------------
  free energy    TOTEN  =       -27.93891230 eV

  energy without entropy =      -27.93891230  energy(sigma->0) =      -27.93891230


--------------------------------------------------------------------------------------------------------




--------------------------------------- Iteration      1(  15)  ---------------------------------------


    POTLOK:  cpu time   11.7202: real time   11.7371
    SETDIJ:  cpu time    0.0591: real time    0.0591
     EDDAV:  cpu time    4.6832: real time    4.6910
       DOS:  cpu time    0.0008: real time    0.0008
    CHARGE:  cpu time    1.5486: real time    1.5509
    MIXING:  cpu time    0.2963: real time    0.2969
    --------------------------------------------
      LOOP:  cpu time   18.3082: real time   18.3358

 eigenvalue-minimisations  :    28
 total energy-change (2. order) :-0.5821728E-02  (-0.1319164E-03)
 number of electron      16.0000000 magnetization 
 augmentation part        2.7716126 magnetization 

 Broyden mixing:
  rms(total) = 0.52414E-02    rms(broyden)= 0.52414E-02
  rms(prec ) = 0.54122E-02
  weight for this iteration     100.00

 eigenvalues of (default mixing * dielectric matrix)
  average eigenvalue GAMMA=   1.8507
  5.3818  2.8807  2.3957  1.8905  1.3336  1.1337  0.9175  0.9175  0.8056  0.8501

 Free energy of the ion-electron system (eV)
  ---------------------------------------------------
  alpha Z        PSCENC =         0.01723541
  Ewald energy   TEWEN  =       398.08545311
  -Hartree energ DENC   =     -1178.25028687
  -exchange      EXHF   =         0.00000000
  -V(xc)+E(xc)   XCENC  =        67.91869310
  PAW double counting   =      2468.04992194    -2478.18157469
  entropy T*S    EENTRO =        -0.00000000
  eigenvalues    EBANDS =      -220.29442473
  atomic energy  EATOM  =       914.71024870
  Solvation  Ediel_sol  =         0.00000000
  ---------------------------------------------------
  free energy    TOTEN  =       -27.94473403 eV

  energy without entropy =      -27.94473403  energy(sigma->0) =      -27.94473403


--------------------------------------------------------------------------------------------------------




--------------------------------------- Iteration      1(  16)  ---------------------------------------


    POTLOK:  cpu time   11.7225: real time   11.7394
    SETDIJ:  cpu time    0.0631: real time    0.0631
     EDDAV:  cpu time    6.0806: real time    6.0907
       DOS:  cpu time    0.0019: real time    0.0019
    CHARGE:  cpu time    1.5047: real time    1.5068
    MIXING:  cpu time    0.3275: real time    0.3280
    --------------------------------------------
      LOOP:  cpu time   19.7003: real time   19.7300

 eigenvalue-minimisations  :    40
 total energy-change (2. order) :-0.1165924E-02  (-0.8341225E-05)
 number of electron      16.0000000 magnetization 
 augmentation part        2.7716508 magnetization 

 Broyden mixing:
  rms(total) = 0.28640E-02    rms(broyden)= 0.28640E-02
  rms(prec ) = 0.30262E-02
  weight for this iteration     100.00

 eigenvalues of (default mixing * dielectric matrix)
  average eigenvalue GAMMA=   1.7522
  5.0401  2.9777  2.1593  2.1593  1.3294  1.3294  0.9521  0.9521  0.8247  0.8247
  0.7254

 Free energy of the ion-electron system (eV)
  ---------------------------------------------------
  alpha Z        PSCENC =         0.01723541
  Ewald energy   TEWEN  =       398.08545311
  -Hartree energ DENC   =     -1178.29531476
  -exchange      EXHF   =         0.00000000
  -V(xc)+E(xc)   XCENC  =        67.91650824
  PAW double counting   =      2468.49357554    -2478.62353538
  entropy T*S    EENTRO =        -0.00000000
  eigenvalues    EBANDS =      -220.25007081
  atomic energy  EATOM  =       914.71024870
  Solvation  Ediel_sol  =         0.00000000
  ---------------------------------------------------
  free energy    TOTEN  =       -27.94589995 eV

  energy without entropy =      -27.94589995  energy(sigma->0) =      -27.94589995


--------------------------------------------------------------------------------------------------------




--------------------------------------- Iteration      1(  17)  ---------------------------------------


    POTLOK:  cpu time   11.7267: real time   11.7435
    SETDIJ:  cpu time    0.0579: real time    0.0579
     EDDAV:  cpu time    4.6711: real time    4.6789
       DOS:  cpu time    0.0033: real time    0.0033
    CHARGE:  cpu time    1.5356: real time    1.5379
    MIXING:  cpu time    0.4213: real time    0.4219
    --------------------------------------------
      LOOP:  cpu time   18.4159: real time   18.4434

 eigenvalue-minimisations  :    28
 total energy-change (2. order) :-0.6572272E-03  (-0.2153338E-05)
 number of electron      16.0000000 magnetization 
 augmentation part        2.7719333 magnetization 

 Broyden mixing:
  rms(total) = 0.14466E-02    rms(broyden)= 0.14466E-02
  rms(prec ) = 0.16574E-02
  weight for this iteration     100.00

 eigenvalues of (default mixing * dielectric matrix)
  average eigenvalue GAMMA=   2.0015
  7.1887  3.4387  2.2361  2.2361  2.2465  1.1379  1.1379  0.7936  0.9235  0.9235
  0.8778  0.8778

 Free energy of the ion-electron system (eV)
  ---------------------------------------------------
  alpha Z        PSCENC =         0.01723541
  Ewald energy   TEWEN  =       398.08545311
  -Hartree energ DENC   =     -1178.27237330
  -exchange      EXHF   =         0.00000000
  -V(xc)+E(xc)   XCENC  =        67.91437531
  PAW double counting   =      2468.08461148    -2478.21455978
  entropy T*S    EENTRO =        -0.00000000
  eigenvalues    EBANDS =      -220.27154811
  atomic energy  EATOM  =       914.71024870
  Solvation  Ediel_sol  =         0.00000000
  ---------------------------------------------------
  free energy    TOTEN  =       -27.94655718 eV

  energy without entropy =      -27.94655718  energy(sigma->0) =      -27.94655718


--------------------------------------------------------------------------------------------------------




--------------------------------------- Iteration      1(  18)  ---------------------------------------


    POTLOK:  cpu time   11.7133: real time   11.7302
    SETDIJ:  cpu time    0.0597: real time    0.0597
     EDDAV:  cpu time    4.6898: real time    4.6974
       DOS:  cpu time    0.0012: real time    0.0012
    CHARGE:  cpu time    1.5213: real time    1.5237
    MIXING:  cpu time    0.3571: real time    0.3576
    --------------------------------------------
      LOOP:  cpu time   18.3425: real time   18.3698

 eigenvalue-minimisations  :    28
 total energy-change (2. order) :-0.1459825E-02  (-0.1472659E-04)
 number of electron      16.0000000 magnetization 
 augmentation part        2.7719714 magnetization 

 Broyden mixing:
  rms(total) = 0.68530E-03    rms(broyden)= 0.68530E-03
  rms(prec ) = 0.74001E-03
  weight for this iteration     100.00

 eigenvalues of (default mixing * dielectric matrix)
  average eigenvalue GAMMA=   1.9789
  7.6245  3.5501  2.2469  2.2469  2.2788  1.1802  1.1802  0.7887  0.8984  0.8944
  0.8944  0.9712  0.9712

 Free energy of the ion-electron system (eV)
  ---------------------------------------------------
  alpha Z        PSCENC =         0.01723541
  Ewald energy   TEWEN  =       398.08545311
  -Hartree energ DENC   =     -1178.33633465
  -exchange      EXHF   =         0.00000000
  -V(xc)+E(xc)   XCENC  =        67.91201926
  PAW double counting   =      2468.18267351    -2478.31268818
  entropy T*S    EENTRO =        -0.00000000
  eigenvalues    EBANDS =      -220.20662416
  atomic energy  EATOM  =       914.71024870
  Solvation  Ediel_sol  =         0.00000000
  ---------------------------------------------------
  free energy    TOTEN  =       -27.94801701 eV

  energy without entropy =      -27.94801701  energy(sigma->0) =      -27.94801701


--------------------------------------------------------------------------------------------------------




--------------------------------------- Iteration      1(  19)  ---------------------------------------


    POTLOK:  cpu time   11.7222: real time   11.7392
    SETDIJ:  cpu time    0.0634: real time    0.0634
     EDDAV:  cpu time    6.0775: real time    6.0876
       DOS:  cpu time    0.0020: real time    0.0020
    CHARGE:  cpu time    1.5272: real time    1.5296
    MIXING:  cpu time    0.3753: real time    0.3759
    --------------------------------------------
      LOOP:  cpu time   19.7677: real time   19.7977

 eigenvalue-minimisations  :    40
 total energy-change (2. order) :-0.2237164E-03  (-0.8536242E-06)
 number of electron      16.0000000 magnetization 
 augmentation part        2.7718504 magnetization 

 Broyden mixing:
  rms(total) = 0.39950E-03    rms(broyden)= 0.39950E-03
  rms(prec ) = 0.44923E-03
  weight for this iteration     100.00

 eigenvalues of (default mixing * dielectric matrix)
  average eigenvalue GAMMA=   2.0734
  8.6208  4.1117  2.5353  2.5353  1.7999  1.7999  1.1590  1.1590  0.9902  0.7889
  0.8942  0.8942  0.8697  0.8697

 Free energy of the ion-electron system (eV)
  ---------------------------------------------------
  alpha Z        PSCENC =         0.01723541
  Ewald energy   TEWEN  =       398.08545311
  -Hartree energ DENC   =     -1178.34351111
  -exchange      EXHF   =         0.00000000
  -V(xc)+E(xc)   XCENC  =        67.91205519
  PAW double counting   =      2468.34664069    -2478.47695778
  entropy T*S    EENTRO =        -0.00000000
  eigenvalues    EBANDS =      -220.19940493
  atomic energy  EATOM  =       914.71024870
  Solvation  Ediel_sol  =         0.00000000
  ---------------------------------------------------
  free energy    TOTEN  =       -27.94824072 eV

  energy without entropy =      -27.94824072  energy(sigma->0) =      -27.94824072


--------------------------------------------------------------------------------------------------------




--------------------------------------- Iteration      1(  20)  ---------------------------------------


    POTLOK:  cpu time   11.6840: real time   11.7009
    SETDIJ:  cpu time    0.0585: real time    0.0585
     EDDAV:  cpu time    4.2039: real time    4.2108
       DOS:  cpu time    0.0017: real time    0.0017
    CHARGE:  cpu time    1.5368: real time    1.5391
    MIXING:  cpu time    0.3708: real time    0.3714
    --------------------------------------------
      LOOP:  cpu time   17.8557: real time   17.8824

 eigenvalue-minimisations  :    24
 total energy-change (2. order) :-0.2609051E-03  (-0.8949677E-06)
 number of electron      16.0000000 magnetization 
 augmentation part        2.7719406 magnetization 

 Broyden mixing:
  rms(total) = 0.58558E-03    rms(broyden)= 0.58558E-03
  rms(prec ) = 0.59736E-03
  weight for this iteration     100.00

 eigenvalues of (default mixing * dielectric matrix)
  average eigenvalue GAMMA=   2.1111
  8.8754  4.6313  2.5431  2.5431  2.2212  2.2212  1.2085  1.2085  0.7926  0.9435
  0.8666  0.9498  0.9498  0.8559  0.8559

 Free energy of the ion-electron system (eV)
  ---------------------------------------------------
  alpha Z        PSCENC =         0.01723541
  Ewald energy   TEWEN  =       398.08545311
  -Hartree energ DENC   =     -1178.33590941
  -exchange      EXHF   =         0.00000000
  -V(xc)+E(xc)   XCENC  =        67.91117399
  PAW double counting   =      2468.40652642    -2478.53653077
  entropy T*S    EENTRO =        -0.00000000
  eigenvalues    EBANDS =      -220.20669907
  atomic energy  EATOM  =       914.71024870
  Solvation  Ediel_sol  =         0.00000000
  ---------------------------------------------------
  free energy    TOTEN  =       -27.94850163 eV

  energy without entropy =      -27.94850163  energy(sigma->0) =      -27.94850163


--------------------------------------------------------------------------------------------------------




--------------------------------------- Iteration      1(  21)  ---------------------------------------


    POTLOK:  cpu time   11.6860: real time   11.7029
    SETDIJ:  cpu time    0.0616: real time    0.0616
     EDDAV:  cpu time    4.2295: real time    4.2364
       DOS:  cpu time    0.0009: real time    0.0009
    CHARGE:  cpu time    1.5256: real time    1.5278
    MIXING:  cpu time    0.3951: real time    0.3957
    --------------------------------------------
      LOOP:  cpu time   17.8986: real time   17.9254

 eigenvalue-minimisations  :    24
 total energy-change (2. order) :-0.1245227E-03  (-0.3057705E-06)
 number of electron      16.0000000 magnetization 
 augmentation part        2.7718623 magnetization 

 Broyden mixing:
  rms(total) = 0.17497E-03    rms(broyden)= 0.17497E-03
  rms(prec ) = 0.18630E-03
  weight for this iteration     100.00

 eigenvalues of (default mixing * dielectric matrix)
  average eigenvalue GAMMA=   2.1098
  8.9607  4.8772  3.3194  2.4204  2.4204  2.0550  1.3130  1.0711  1.0711  1.1520
  0.8398  0.8398  0.7915  0.9067  0.8595  0.8595

 Free energy of the ion-electron system (eV)
  ---------------------------------------------------
  alpha Z        PSCENC =         0.01723541
  Ewald energy   TEWEN  =       398.08545311
  -Hartree energ DENC   =     -1178.34017302
  -exchange      EXHF   =         0.00000000
  -V(xc)+E(xc)   XCENC  =        67.91123947
  PAW double counting   =      2468.45002100    -2478.58006594
  entropy T*S    EENTRO =        -0.00000000
  eigenvalues    EBANDS =      -220.20258488
  atomic energy  EATOM  =       914.71024870
  Solvation  Ediel_sol  =         0.00000000
  ---------------------------------------------------
  free energy    TOTEN  =       -27.94862615 eV

  energy without entropy =      -27.94862615  energy(sigma->0) =      -27.94862615


--------------------------------------------------------------------------------------------------------




--------------------------------------- Iteration      1(  22)  ---------------------------------------


    POTLOK:  cpu time   11.6636: real time   11.6806
    SETDIJ:  cpu time    0.0597: real time    0.0597
     EDDAV:  cpu time    6.0318: real time    6.0419
       DOS:  cpu time    0.0016: real time    0.0016
    CHARGE:  cpu time    1.5381: real time    1.5404
    MIXING:  cpu time    0.4111: real time    0.4118
    --------------------------------------------
      LOOP:  cpu time   19.7059: real time   19.7360

 eigenvalue-minimisations  :    40
 total energy-change (2. order) :-0.5696953E-04  (-0.6468379E-07)
 number of electron      16.0000000 magnetization 
 augmentation part        2.7718578 magnetization 

 Broyden mixing:
  rms(total) = 0.13084E-03    rms(broyden)= 0.13084E-03
  rms(prec ) = 0.13677E-03
  weight for this iteration     100.00

 eigenvalues of (default mixing * dielectric matrix)
  average eigenvalue GAMMA=   2.1382
  9.1709  5.4234  3.4990  2.5939  2.4283  1.8147  1.8147  1.2547  1.2547  1.0382
  0.9288  0.9288  0.7904  0.8618  0.8618  0.8426  0.8426

 Free energy of the ion-electron system (eV)
  ---------------------------------------------------
  alpha Z        PSCENC =         0.01723541
  Ewald energy   TEWEN  =       398.08545311
  -Hartree energ DENC   =     -1178.34144477
  -exchange      EXHF   =         0.00000000
  -V(xc)+E(xc)   XCENC  =        67.91122430
  PAW double counting   =      2468.42752520    -2478.55748223
  entropy T*S    EENTRO =        -0.00000000
  eigenvalues    EBANDS =      -220.20144285
  atomic energy  EATOM  =       914.71024870
  Solvation  Ediel_sol  =         0.00000000
  ---------------------------------------------------
  free energy    TOTEN  =       -27.94868312 eV

  energy without entropy =      -27.94868312  energy(sigma->0) =      -27.94868312


--------------------------------------------------------------------------------------------------------




--------------------------------------- Iteration      1(  23)  ---------------------------------------


    POTLOK:  cpu time   11.6781: real time   11.6948
    SETDIJ:  cpu time    0.0585: real time    0.0586
     EDDAV:  cpu time    4.1932: real time    4.2001
       DOS:  cpu time    0.0033: real time    0.0033
    CHARGE:  cpu time    1.5325: real time    1.5349
    MIXING:  cpu time    0.4509: real time    0.4516
    --------------------------------------------
      LOOP:  cpu time   17.9166: real time   17.9432

 eigenvalue-minimisations  :    24
 total energy-change (2. order) :-0.2949774E-04  (-0.1688615E-07)
 number of electron      16.0000000 magnetization 
 augmentation part        2.7718635 magnetization 

 Broyden mixing:
  rms(total) = 0.12124E-03    rms(broyden)= 0.12124E-03
  rms(prec ) = 0.12359E-03
  weight for this iteration     100.00

 eigenvalues of (default mixing * dielectric matrix)
  average eigenvalue GAMMA=   2.1719
  9.2292  6.0124  3.7333  2.5511  2.5511  2.1586  2.1586  1.2471  1.2471  1.0176
  1.0176  0.9445  0.9445  0.9767  0.7935  0.8522  0.8296  0.8296

 Free energy of the ion-electron system (eV)
  ---------------------------------------------------
  alpha Z        PSCENC =         0.01723541
  Ewald energy   TEWEN  =       398.08545311
  -Hartree energ DENC   =     -1178.34018682
  -exchange      EXHF   =         0.00000000
  -V(xc)+E(xc)   XCENC  =        67.91108506
  PAW double counting   =      2468.36208976    -2478.49204011
  entropy T*S    EENTRO =        -0.00000000
  eigenvalues    EBANDS =      -220.20259772
  atomic energy  EATOM  =       914.71024870
  Solvation  Ediel_sol  =         0.00000000
  ---------------------------------------------------
  free energy    TOTEN  =       -27.94871262 eV

  energy without entropy =      -27.94871262  energy(sigma->0) =      -27.94871262


--------------------------------------------------------------------------------------------------------




--------------------------------------- Iteration      1(  24)  ---------------------------------------


    POTLOK:  cpu time   11.6422: real time   11.6590
    SETDIJ:  cpu time    0.0592: real time    0.0592
     EDDAV:  cpu time    3.2773: real time    3.2850
       DOS:  cpu time    0.0009: real time    0.0009
    CHARGE:  cpu time    1.5220: real time    1.5242
    MIXING:  cpu time    0.4527: real time    0.4535
    --------------------------------------------
      LOOP:  cpu time   16.9543: real time   16.9819

 eigenvalue-minimisations  :    16
 total energy-change (2. order) :-0.1734674E-04  (-0.8036345E-08)
 number of electron      16.0000000 magnetization 
 augmentation part        2.7718771 magnetization 

 Broyden mixing:
  rms(total) = 0.37018E-04    rms(broyden)= 0.37018E-04
  rms(prec ) = 0.39319E-04
  weight for this iteration     100.00

 eigenvalues of (default mixing * dielectric matrix)
  average eigenvalue GAMMA=   2.2184
  9.5132  6.3732  4.2244  2.9145  2.1661  2.1661  2.2301  2.0488  1.2225  1.2225
  0.9737  0.9737  0.9760  0.7924  0.8688  0.9052  0.9052  0.8368  0.8368

 Free energy of the ion-electron system (eV)
  ---------------------------------------------------
  alpha Z        PSCENC =         0.01723541
  Ewald energy   TEWEN  =       398.08545311
  -Hartree energ DENC   =     -1178.33929087
  -exchange      EXHF   =         0.00000000
  -V(xc)+E(xc)   XCENC  =        67.91101205
  PAW double counting   =      2468.36048727    -2478.49043484
  entropy T*S    EENTRO =        -0.00000000
  eigenvalues    EBANDS =      -220.20344078
  atomic energy  EATOM  =       914.71024870
  Solvation  Ediel_sol  =         0.00000000
  ---------------------------------------------------
  free energy    TOTEN  =       -27.94872997 eV

  energy without entropy =      -27.94872997  energy(sigma->0) =      -27.94872997


--------------------------------------------------------------------------------------------------------




--------------------------------------- Iteration      1(  25)  ---------------------------------------


    POTLOK:  cpu time   11.6645: real time   11.6816
    SETDIJ:  cpu time    0.0625: real time    0.0626
     EDDAV:  cpu time    3.2790: real time    3.2843
       DOS:  cpu time    0.0011: real time    0.0011
    CHARGE:  cpu time    1.5155: real time    1.5178
    MIXING:  cpu time    0.5981: real time    0.5989
    --------------------------------------------
      LOOP:  cpu time   17.1207: real time   17.1462

 eigenvalue-minimisations  :    16
 total energy-change (2. order) :-0.8962264E-05  (-0.5633158E-08)
 number of electron      16.0000000 magnetization 
 augmentation part        2.7718793 magnetization 

 Broyden mixing:
  rms(total) = 0.26706E-04    rms(broyden)= 0.26706E-04
  rms(prec ) = 0.27804E-04
  weight for this iteration     100.00

 eigenvalues of (default mixing * dielectric matrix)
  average eigenvalue GAMMA=   2.2153
  9.5977  6.5949  4.4553  2.7735  2.6464  2.4332  2.4332  1.8929  1.3477  0.9885
  0.9885  1.1476  1.1476  0.8384  0.8384  0.7926  0.8810  0.9115  0.9115  0.6859

 Free energy of the ion-electron system (eV)
  ---------------------------------------------------
  alpha Z        PSCENC =         0.01723541
  Ewald energy   TEWEN  =       398.08545311
  -Hartree energ DENC   =     -1178.33944158
  -exchange      EXHF   =         0.00000000
  -V(xc)+E(xc)   XCENC  =        67.91099315
  PAW double counting   =      2468.35504009    -2478.48499389
  entropy T*S    EENTRO =        -0.00000000
  eigenvalues    EBANDS =      -220.20327391
  atomic energy  EATOM  =       914.71024870
  Solvation  Ediel_sol  =         0.00000000
  ---------------------------------------------------
  free energy    TOTEN  =       -27.94873893 eV

  energy without entropy =      -27.94873893  energy(sigma->0) =      -27.94873893


--------------------------------------------------------------------------------------------------------




--------------------------------------- Iteration      1(  26)  ---------------------------------------


    POTLOK:  cpu time   11.6930: real time   11.7099
    SETDIJ:  cpu time    0.0601: real time    0.0601
     EDDAV:  cpu time    4.2121: real time    4.2189
       DOS:  cpu time    0.0010: real time    0.0010
    CHARGE:  cpu time    1.5249: real time    1.5272
    MIXING:  cpu time    0.5312: real time    0.5320
    --------------------------------------------
      LOOP:  cpu time   18.0222: real time   18.0491

 eigenvalue-minimisations  :    24
 total energy-change (2. order) :-0.4395135E-05  (-0.2354685E-08)
 number of electron      16.0000000 magnetization 
 augmentation part        2.7718789 magnetization 

 Broyden mixing:
  rms(total) = 0.14371E-04    rms(broyden)= 0.14371E-04
  rms(prec ) = 0.15083E-04
  weight for this iteration     100.00

 eigenvalues of (default mixing * dielectric matrix)
  average eigenvalue GAMMA=   2.2100
  9.5714  6.8067  4.6341  3.5093  2.6286  2.4409  2.0353  2.0353  1.3862  1.3862
  1.0056  1.0056  1.0118  1.0118  1.0094  0.8396  0.8396  0.7932  0.8537  0.8031
  0.8031

 Free energy of the ion-electron system (eV)
  ---------------------------------------------------
  alpha Z        PSCENC =         0.01723541
  Ewald energy   TEWEN  =       398.08545311
  -Hartree energ DENC   =     -1178.33977229
  -exchange      EXHF   =         0.00000000
  -V(xc)+E(xc)   XCENC  =        67.91101258
  PAW double counting   =      2468.36952391    -2478.49949957
  entropy T*S    EENTRO =        -0.00000000
  eigenvalues    EBANDS =      -220.20294518
  atomic energy  EATOM  =       914.71024870
  Solvation  Ediel_sol  =         0.00000000
  ---------------------------------------------------
  free energy    TOTEN  =       -27.94874332 eV

  energy without entropy =      -27.94874332  energy(sigma->0) =      -27.94874332


--------------------------------------------------------------------------------------------------------




--------------------------------------- Iteration      1(  27)  ---------------------------------------


    POTLOK:  cpu time   11.6626: real time   11.6791
    SETDIJ:  cpu time    0.0595: real time    0.0596
     EDDAV:  cpu time    3.2868: real time    3.2923
       DOS:  cpu time    0.0008: real time    0.0008
    CHARGE:  cpu time    1.5335: real time    1.5359
    MIXING:  cpu time    0.5266: real time    0.5275
    --------------------------------------------
      LOOP:  cpu time   17.0698: real time   17.0951

 eigenvalue-minimisations  :    16
 total energy-change (2. order) :-0.1709917E-05  (-0.1374756E-08)
 number of electron      16.0000000 magnetization 
 augmentation part        2.7718772 magnetization 

 Broyden mixing:
  rms(total) = 0.12574E-04    rms(broyden)= 0.12574E-04
  rms(prec ) = 0.12885E-04
  weight for this iteration     100.00

 eigenvalues of (default mixing * dielectric matrix)
  average eigenvalue GAMMA=   2.2172
  9.6483  7.1078  4.9179  3.5570  2.5476  2.5476  2.2385  2.2385  1.8600  1.3583
  1.1496  0.9751  0.9751  1.0500  0.8380  0.8380  0.9318  0.8777  0.8777  0.7941
  0.8230  0.6263

 Free energy of the ion-electron system (eV)
  ---------------------------------------------------
  alpha Z        PSCENC =         0.01723541
  Ewald energy   TEWEN  =       398.08545311
  -Hartree energ DENC   =     -1178.33995596
  -exchange      EXHF   =         0.00000000
  -V(xc)+E(xc)   XCENC  =        67.91102525
  PAW double counting   =      2468.37290141    -2478.50288540
  entropy T*S    EENTRO =        -0.00000000
  eigenvalues    EBANDS =      -220.20276756
  atomic energy  EATOM  =       914.71024870
  Solvation  Ediel_sol  =         0.00000000
  ---------------------------------------------------
  free energy    TOTEN  =       -27.94874503 eV

  energy without entropy =      -27.94874503  energy(sigma->0) =      -27.94874503


--------------------------------------------------------------------------------------------------------




--------------------------------------- Iteration      1(  28)  ---------------------------------------


    POTLOK:  cpu time   11.6708: real time   11.6877
    SETDIJ:  cpu time    0.0623: real time    0.0623
     EDDAV:  cpu time    4.2498: real time    4.2570
       DOS:  cpu time    0.0009: real time    0.0009
    CHARGE:  cpu time    1.5269: real time    1.5291
    MIXING:  cpu time    0.5597: real time    0.5606
    --------------------------------------------
      LOOP:  cpu time   18.0703: real time   18.0976

 eigenvalue-minimisations  :    24
 total energy-change (2. order) :-0.8097761E-06  (-0.7549286E-09)
 number of electron      16.0000000 magnetization 
 augmentation part        2.7718756 magnetization 

 Broyden mixing:
  rms(total) = 0.10963E-04    rms(broyden)= 0.10963E-04
  rms(prec ) = 0.11122E-04
  weight for this iteration     100.00

 eigenvalues of (default mixing * dielectric matrix)
  average eigenvalue GAMMA=   2.2058
  9.6778  7.3274  5.1684  3.6317  2.5989  2.4371  2.4371  2.1444  2.1444  1.2781
  1.2781  0.9867  0.9867  1.0249  0.8402  0.8402  0.9209  0.9209  0.9008  0.9008
  0.7953  0.8202  0.6732

 Free energy of the ion-electron system (eV)
  ---------------------------------------------------
  alpha Z        PSCENC =         0.01723541
  Ewald energy   TEWEN  =       398.08545311
  -Hartree energ DENC   =     -1178.34011000
  -exchange      EXHF   =         0.00000000
  -V(xc)+E(xc)   XCENC  =        67.91103135
  PAW double counting   =      2468.37397721    -2478.50395239
  entropy T*S    EENTRO =        -0.00000000
  eigenvalues    EBANDS =      -220.20262922
  atomic energy  EATOM  =       914.71024870
  Solvation  Ediel_sol  =         0.00000000
  ---------------------------------------------------
  free energy    TOTEN  =       -27.94874584 eV

  energy without entropy =      -27.94874584  energy(sigma->0) =      -27.94874584


--------------------------------------------------------------------------------------------------------




--------------------------------------- Iteration      1(  29)  ---------------------------------------


    POTLOK:  cpu time   11.6555: real time   11.6723
    SETDIJ:  cpu time    0.0554: real time    0.0555
     EDDAV:  cpu time    3.3158: real time    3.3212
       DOS:  cpu time    0.0010: real time    0.0010
    CHARGE:  cpu time    1.5352: real time    1.5375
    MIXING:  cpu time    0.6715: real time    0.6725
    --------------------------------------------
      LOOP:  cpu time   17.2345: real time   17.2600

 eigenvalue-minimisations  :    16
 total energy-change (2. order) :-0.5945153E-06  (-0.5791438E-09)
 number of electron      16.0000000 magnetization 
 augmentation part        2.7718753 magnetization 

 Broyden mixing:
  rms(total) = 0.40761E-05    rms(broyden)= 0.40761E-05
  rms(prec ) = 0.42716E-05
  weight for this iteration     100.00

 eigenvalues of (default mixing * dielectric matrix)
  average eigenvalue GAMMA=   2.2223
  9.7206  7.4242  5.4526  3.9084  2.9034  2.4032  2.4032  2.1413  2.1413  1.5475
  1.5475  1.1491  1.1491  0.9691  0.9691  0.8376  0.8376  0.9262  0.9262  0.9480
  0.8807  0.7926  0.6782  0.6782

 Free energy of the ion-electron system (eV)
  ---------------------------------------------------
  alpha Z        PSCENC =         0.01723541
  Ewald energy   TEWEN  =       398.08545311
  -Hartree energ DENC   =     -1178.34015345
  -exchange      EXHF   =         0.00000000
  -V(xc)+E(xc)   XCENC  =        67.91103275
  PAW double counting   =      2468.37827846    -2478.50824539
  entropy T*S    EENTRO =        -0.00000000
  eigenvalues    EBANDS =      -220.20259602
  atomic energy  EATOM  =       914.71024870
  Solvation  Ediel_sol  =         0.00000000
  ---------------------------------------------------
  free energy    TOTEN  =       -27.94874644 eV

  energy without entropy =      -27.94874644  energy(sigma->0) =      -27.94874644


--------------------------------------------------------------------------------------------------------




--------------------------------------- Iteration      1(  30)  ---------------------------------------


    POTLOK:  cpu time   11.6618: real time   11.6787
    SETDIJ:  cpu time    0.0581: real time    0.0581
     EDDAV:  cpu time    3.2931: real time    3.2985
       DOS:  cpu time    0.0008: real time    0.0008
    CHARGE:  cpu time    1.5331: real time    1.5354
    MIXING:  cpu time    0.5968: real time    0.5978
    --------------------------------------------
      LOOP:  cpu time   17.1438: real time   17.1694

 eigenvalue-minimisations  :    16
 total energy-change (2. order) :-0.4046067E-06  (-0.4732588E-09)
 number of electron      16.0000000 magnetization 
 augmentation part        2.7718757 magnetization 

 Broyden mixing:
  rms(total) = 0.53466E-05    rms(broyden)= 0.53466E-05
  rms(prec ) = 0.53953E-05
  weight for this iteration     100.00

 eigenvalues of (default mixing * dielectric matrix)
  average eigenvalue GAMMA=   2.2718
  9.7653  7.7450  5.8623  4.3610  3.2072  2.6885  2.2753  2.2753  2.3126  1.7544
  1.7544  1.1661  1.1661  0.9774  0.9774  0.8383  0.8383  1.0053  0.9190  0.9190
  0.8880  0.7930  0.8239  0.8239  0.6576

 Free energy of the ion-electron system (eV)
  ---------------------------------------------------
  alpha Z        PSCENC =         0.01723541
  Ewald energy   TEWEN  =       398.08545311
  -Hartree energ DENC   =     -1178.34009014
  -exchange      EXHF   =         0.00000000
  -V(xc)+E(xc)   XCENC  =        67.91102849
  PAW double counting   =      2468.37778200    -2478.50774476
  entropy T*S    EENTRO =        -0.00000000
  eigenvalues    EBANDS =      -220.20265966
  atomic energy  EATOM  =       914.71024870
  Solvation  Ediel_sol  =         0.00000000
  ---------------------------------------------------
  free energy    TOTEN  =       -27.94874684 eV

  energy without entropy =      -27.94874684  energy(sigma->0) =      -27.94874684


--------------------------------------------------------------------------------------------------------




--------------------------------------- Iteration      1(  31)  ---------------------------------------


    POTLOK:  cpu time   11.6457: real time   11.6625
    SETDIJ:  cpu time    0.0584: real time    0.0585
     EDDAV:  cpu time    3.3113: real time    3.3169
       DOS:  cpu time    0.0002: real time    0.0002
    CHARGE:  cpu time    1.5318: real time    1.5342
    MIXING:  cpu time    0.6107: real time    0.6139
    --------------------------------------------
      LOOP:  cpu time   17.1582: real time   17.1861

 eigenvalue-minimisations  :    16
 total energy-change (2. order) :-0.2238685E-06  (-0.3854890E-09)
 number of electron      16.0000000 magnetization 
 augmentation part        2.7718760 magnetization 

 Broyden mixing:
  rms(total) = 0.25488E-05    rms(broyden)= 0.25488E-05
  rms(prec ) = 0.25715E-05
  weight for this iteration     100.00

 eigenvalues of (default mixing * dielectric matrix)
  average eigenvalue GAMMA=   2.2333
  9.7456  7.8331  5.9071  4.3696  3.2460  2.6217  2.2400  2.2400  2.2997  2.1388
  1.3592  1.3592  1.2138  1.2138  0.9722  0.9722  0.8364  0.8364  0.9895  0.9048
  0.9048  0.8786  0.7925  0.7752  0.7463  0.6701

 Free energy of the ion-electron system (eV)
  ---------------------------------------------------
  alpha Z        PSCENC =         0.01723541
  Ewald energy   TEWEN  =       398.08545311
  -Hartree energ DENC   =     -1178.34002741
  -exchange      EXHF   =         0.00000000
  -V(xc)+E(xc)   XCENC  =        67.91102509
  PAW double counting   =      2468.37537846    -2478.50534119
  entropy T*S    EENTRO =        -0.00000000
  eigenvalues    EBANDS =      -220.20271923
  atomic energy  EATOM  =       914.71024870
  Solvation  Ediel_sol  =         0.00000000
  ---------------------------------------------------
  free energy    TOTEN  =       -27.94874707 eV

  energy without entropy =      -27.94874707  energy(sigma->0) =      -27.94874707


--------------------------------------------------------------------------------------------------------




--------------------------------------- Iteration      1(  32)  ---------------------------------------


    POTLOK:  cpu time   11.6423: real time   11.6591
    SETDIJ:  cpu time    0.0548: real time    0.0548
     EDDAV:  cpu time    4.2292: real time    4.2362
       DOS:  cpu time    0.0018: real time    0.0018
    --------------------------------------------
      LOOP:  cpu time   15.9281: real time   15.9519

 eigenvalue-minimisations  :    24
 total energy-change (2. order) :-0.3112609E-07  (-0.3093010E-09)
 number of electron      16.0000000 magnetization 
 augmentation part        2.7718760 magnetization 

 Free energy of the ion-electron system (eV)
  ---------------------------------------------------
  alpha Z        PSCENC =         0.01723541
  Ewald energy   TEWEN  =       398.08545311
  -Hartree energ DENC   =     -1178.34003132
  -exchange      EXHF   =         0.00000000
  -V(xc)+E(xc)   XCENC  =        67.91102556
  PAW double counting   =      2468.37544579    -2478.50540954
  entropy T*S    EENTRO =        -0.00000000
  eigenvalues    EBANDS =      -220.20271480
  atomic energy  EATOM  =       914.71024870
  Solvation  Ediel_sol  =         0.00000000
  ---------------------------------------------------
  free energy    TOTEN  =       -27.94874710 eV

  energy without entropy =      -27.94874710  energy(sigma->0) =      -27.94874710


--------------------------------------------------------------------------------------------------------




 average (electrostatic) potential at core
  the test charge radii are     0.6256  0.8742
  (the norm of the test charge is              1.0000)
       1 -41.5742       2 -41.5738       3 -41.2085       4 -41.2568       5 -90.8746
       6 -90.5342
 
 
 
 E-fermi :  -7.0011     XC(G=0):  -0.0346     alpha+bet : -0.0064


 k-point     1 :       0.0000    0.0000    0.0000
  band No.  band energies     occupation 
      1     -25.6488      2.00000
      2     -25.3099      2.00000
      3     -13.3044      2.00000
      4     -12.9644      2.00000
      5      -9.3872      2.00000
      6      -9.0377      2.00000
      7      -7.3920      2.00000
      8      -7.0570      2.00000
      9      -1.1529      0.00000
     10      -0.7294      0.00000
     11      -0.0022      0.00000
     12       0.0870      0.00000


--------------------------------------------------------------------------------------------------------


 soft charge-density along one line, spin component            1
         0         1         2         3         4         5         6         7         8         9
 total charge-density along one line
 
 pseudopotential strength for first ion, spin component:            1
 -2.345  -3.724  -0.014  -0.020   0.000
 -3.724  -5.746  -0.028  -0.040   0.001
 -0.014  -0.028  -0.115   0.015  -0.000
 -0.020  -0.040   0.015  -0.105  -0.001
  0.000   0.001  -0.000  -0.001  -0.128
 total augmentation occupancy for first ion, spin component:            1
  2.825  -0.512   0.636   0.833  -0.019
 -0.512   0.212  -0.085  -0.090   0.002
  0.636  -0.085   0.196   0.173  -0.004
  0.833  -0.090   0.173   0.296  -0.005
 -0.019   0.002  -0.004  -0.005   0.103


------------------------ aborting loop because EDIFF is reached ----------------------------------------



 DIPCOR: dipole corrections for dipol
 direction  1 min pos   396, direction  2 min pos   424, direction  3 min pos   414,
 dipolmoment          -0.301766      0.654782      0.008833 electrons x Angstroem
 Tr[quadrupol]         8.282388

 energy correction for charged system         0.000000 eV
 dipol+quadrupol energy correction            0.000366 eV
 added-field ion interaction          0.000000 eV  (added to PSCEN)

 
  *************** adding dipol energy to TOTEN NOW **************** 
    CHARGE:  cpu time    1.5238: real time    1.5261
    FORLOC:  cpu time    0.5183: real time    0.5190
    FORNL :  cpu time    0.1306: real time    0.1308
    STRESS:  cpu time    2.1125: real time    2.1158
    FORHAR:  cpu time    3.3426: real time    3.3477
    MIXING:  cpu time    0.6505: real time    0.6516
    OFIELD:  cpu time    0.0000: real time    0.0000

  FORCE on cell =-STRESS in cart. coord.  units (eV):
  Direction    XX          YY          ZZ          XY          YZ          ZX
  --------------------------------------------------------------------------------------
  Alpha Z     0.01724     0.01724     0.01724
  Ewald      39.49775   287.14847    71.43869    30.13547    -0.63594    -4.28575
  Hartree   332.00590   509.26644   337.06768     7.50137    -0.06295    -0.73736
  E(xc)     -72.14332   -71.81280   -72.03116     0.09092    -0.00227    -0.01724
  Local    -659.34859 -1058.19810  -686.45330   -29.58789     0.49361     3.62277
  n-local    27.98740    24.01690    27.33737    -0.52169     0.00968     0.18453
  augment    90.66150    85.63570    88.83719    -1.48953     0.03760     0.26760
  Kinetic   242.96860   226.91660   236.14099    -5.56746     0.14546     0.88453
  Fock        0.00000     0.00000     0.00000     0.00000     0.00000     0.00000
  -------------------------------------------------------------------------------------
  Total       1.64647     2.99045     2.35471     0.56119    -0.01482    -0.08092
  in kB       0.06153     0.11175     0.08799     0.02097    -0.00055    -0.00302
  external pressure =        0.09 kB  Pullay stress =        0.00 kB


 VOLUME and BASIS-vectors are now :
 -----------------------------------------------------------------------------
  energy-cutoff  :     1000.00
  volume of cell :    42875.00
      direct lattice vectors                 reciprocal lattice vectors
    35.000000000  0.000000000  0.000000000     0.028571429  0.000000000  0.000000000
     0.000000000 35.000000000  0.000000000     0.000000000  0.028571429  0.000000000
     0.000000000  0.000000000 35.000000000     0.000000000  0.000000000  0.028571429

  length of vectors
    35.000000000 35.000000000 35.000000000     0.028571429  0.028571429  0.028571429


 FORCES acting on ions
    electron-ion (+dipol)            ewald-force                    non-local-force                 convergence-correction
 -----------------------------------------------------------------------------------------------
   -.160E+01 0.546E+02 0.728E+02   0.178E+01 -.601E+02 -.807E+02   -.144E+00 0.453E+01 0.633E+01   -.106E-06 -.240E-06 -.470E-06
   0.136E+01 0.554E+02 -.722E+02   -.151E+01 -.611E+02 0.800E+02   0.114E+00 0.460E+01 -.627E+01   -.123E-06 -.878E-07 0.603E-06
   0.551E+01 0.834E+02 0.424E-01   -.619E+01 -.930E+02 -.454E-01   0.466E+00 0.778E+01 0.428E-02   0.293E-07 0.216E-06 0.415E-08
   -.864E+02 -.261E+02 0.173E+01   0.957E+02 0.286E+02 -.192E+01   -.751E+01 -.198E+01 0.151E+00   -.404E-06 -.477E-06 0.837E-10
   0.675E+00 -.231E+02 -.267E+00   -.102E+01 0.911E+02 0.659E+00   0.348E+00 -.660E+02 -.381E+00   -.894E-06 0.463E-05 0.257E-05
   0.359E+02 -.514E+02 -.807E+00   -.887E+02 0.944E+02 0.197E+01   0.512E+02 -.417E+02 -.113E+01   -.227E-05 -.169E-05 -.268E-07
 -----------------------------------------------------------------------------------------------
   -.445E+02 0.928E+02 0.130E+01   0.142E-13 0.284E-13 0.133E-14   0.445E+02 -.928E+02 -.130E+01   -.377E-05 0.235E-05 0.268E-05
 
 
 POSITION                                       TOTAL-FORCE (eV/Angst)
 -----------------------------------------------------------------------------------
      0.01761      0.64046     34.23865         0.031677     -0.989877     -1.560054
     34.98662      0.63163      0.75455        -0.031766     -1.007483      1.548707
      0.02409      5.72692      0.00129        -0.214423     -1.864419      0.001313
      0.98480      6.89983     34.98366         1.752770      0.557819     -0.034897
      0.00000      1.22721      0.00000         0.003020      2.015009      0.011180
      0.04724      6.68801      0.00253        -1.541277      1.288952      0.033751
 -----------------------------------------------------------------------------------
    total drift:                                0.000081      0.000091      0.000050


--------------------------------------------------------------------------------------------------------



  FREE ENERGIE OF THE ION-ELECTRON SYSTEM (eV)
  ---------------------------------------------------
  free  energy   TOTEN  =       -27.94838141 eV

  energy  without entropy=      -27.94838141  energy(sigma->0) =      -27.94838141
 


--------------------------------------------------------------------------------------------------------


    POTLOK:  cpu time   11.7220: real time   11.7390


--------------------------------------------------------------------------------------------------------


 writing wavefunctions
     LOOP+:  cpu time  916.1516: real time  920.8927
    4ORBIT:  cpu time    0.0000: real time    0.0000

 total amount of memory used by VASP MPI-rank0  1727998. kBytes
=======================================================================

   base      :      30000. kBytes
   nonl-proj :      43099. kBytes
   fftplans  :     601440. kBytes
   grid      :    1044223. kBytes
   one-center:          1. kBytes
   wavefun   :       9235. kBytes
 
  
  
 General timing and accounting informations for this job:
 ========================================================
  
                  Total CPU time used (sec):     1312.891
                            User time (sec):     1269.041
                          System time (sec):       43.850
                         Elapsed time (sec):     1330.336
  
                   Maximum memory used (kb):     2179084.
                   Average memory used (kb):           0.
  
                          Minor page faults:     23407816
                          Major page faults:          171
                 Voluntary context switches:        53871
