 vasp.6.1.2 22Jul20 (build Jan  6 2021 09:55:43) gamma-only                      
 executed on             LinuxPGI date 2021.03.01  01:27:14
 running on   32 total cores
 distrk:  each k-point on   32 cores,    1 groups
 distr:  one band on NCORE=   8 cores,    4 groups


--------------------------------------------------------------------------------------------------------


 INCAR:
 POTCAR:    PAW_PBE H_s 15May2010                 
 POTCAR:    PAW_PBE O_s 07Sep2000                 
 POTCAR:    PAW_PBE H_s 15May2010                 
   VRHFIN =H: ultrasoft test                                                                        
   LEXCH  = PE                                                                                      
   EATOM  =    12.4884 eV,    0.9179 Ry                                                             
                                                                                                    
   TITEL  = PAW_PBE H_s 15May2010                                                                   
   LULTRA =        F    use ultrasoft PP ?                                                          
   IUNSCR =        0    unscreen: 0-lin 1-nonlin 2-no                                               
   RPACOR =    0.000    partial core radius                                                         
   POMASS =    1.000; ZVAL   =    1.000    mass and valenz                                          
   RCORE  =    1.300    outmost cutoff radius                                                       
   RWIGS  =    0.700; RWIGS  =    0.370    wigner-seitz radius (au A)                               
   ENMAX  =  200.000; ENMIN  =  150.000 eV                                                          
   RCLOC  =    0.701    cutoff for local pot                                                        
   LCOR   =        T    correct aug charges                                                         
   LPAW   =        T    paw PP                                                                      
   EAUG   =  300.000                                                                                
   RMAX   =    1.330    core radius for proj-oper                                                   
   RAUG   =    1.200    factor for augmentation sphere                                              
   RDEP   =    1.337    radius for radial grids                                                     
   RDEPT  =    1.114    core radius for aug-charge                                                  
                                                                                                    
   Atomic configuration                                                                             
    2 entries                                                                                       
     n  l   j            E        occ.                                                              
     1  0  0.50        -6.4927   1.0000                                                             
     2  1  0.50        -3.4015   0.0000                                                             
   Description                                                                                      
     l       E           TYP  RCUT    TYP  RCUT                                                     
     0     -6.4927494     23  1.300                                                                 
     0      6.8029130     23  1.300                                                                 
     1     -4.0817478     23  1.300                                                                 
  local pseudopotential read in
  atomic valenz-charges read in
  non local Contribution for L=            0  read in
    real space projection operators read in
  non local Contribution for L=            0  read in
    real space projection operators read in
  non local Contribution for L=            1  read in
    real space projection operators read in
    PAW grid and wavefunctions read in
 
   number of l-projection  operators is LMAX  =            3
   number of lm-projection operators is LMMAX =            5
 
 POTCAR:    PAW_PBE O_s 07Sep2000                 
   VRHFIN =O: s2p4                                                                                  
   LEXCH  = PE                                                                                      
   EATOM  =   432.3788 eV,   31.7789 Ry                                                             
                                                                                                    
   TITEL  = PAW_PBE O_s 07Sep2000                                                                   
   LULTRA =        F    use ultrasoft PP ?                                                          
   IUNSCR =        0    unscreen: 0-lin 1-nonlin 2-no                                               
   RPACOR =    0.000    partial core radius                                                         
   POMASS =   16.000; ZVAL   =    6.000    mass and valenz                                          
   RCORE  =    1.850    outmost cutoff radius                                                       
   RWIGS  =    1.700; RWIGS  =    0.900    wigner-seitz radius (au A)                               
   ENMAX  =  282.853; ENMIN  =  212.140 eV                                                          
   RCLOC  =    0.804    cutoff for local pot                                                        
   LCOR   =        T    correct aug charges                                                         
   LPAW   =        T    paw PP                                                                      
   EAUG   =  412.352                                                                                
   RMAX   =    1.897    core radius for proj-oper                                                   
   RAUG   =    1.300    factor for augmentation sphere                                              
   RDEP   =    1.878    radius for radial grids                                                     
   RDEPT  =    1.572    core radius for aug-charge                                                  
                                                                                                    
   Atomic configuration                                                                             
    4 entries                                                                                       
     n  l   j            E        occ.                                                              
     1  0  0.50      -514.6923   2.0000                                                             
     2  0  0.50       -23.9615   2.0000                                                             
     2  1  0.50        -9.0305   4.0000                                                             
     3  2  1.50        -1.3606   0.0000                                                             
   Description                                                                                      
     l       E           TYP  RCUT    TYP  RCUT                                                     
     0    -23.9615315     23  1.500                                                                 
     0    -25.3221141     23  1.500                                                                 
     1     -9.0304908     23  1.850                                                                 
     1     -7.3935399     23  1.850                                                                 
  local pseudopotential read in
  atomic valenz-charges read in
  non local Contribution for L=            0  read in
    real space projection operators read in
  non local Contribution for L=            0  read in
    real space projection operators read in
  non local Contribution for L=            1  read in
    real space projection operators read in
  non local Contribution for L=            1  read in
    real space projection operators read in
    PAW grid and wavefunctions read in
 
   number of l-projection  operators is LMAX  =            4
   number of lm-projection operators is LMMAX =            8
 
  PAW_PBE H_s 15May2010                 :
 energy of atom  1       EATOM=  -12.4884
 kinetic energy error for atom=    0.0000 (will be added to EATOM!!)
  PAW_PBE O_s 07Sep2000                 :
 energy of atom  2       EATOM= -432.3788
 kinetic energy error for atom=    0.0004 (will be added to EATOM!!)
 
 
 POSCAR:  H  O
  positions in cartesian coordinates
  No initial velocities read in
 exchange correlation table for  LEXCH =        8
   RHO(1)=    0.500       N(1)  =     2000
   RHO(2)=  100.500       N(2)  =     4000
 


--------------------------------------------------------------------------------------------------------


 ion  position               nearest neighbor table
   1  0.001  0.018  0.978-   5 0.96
   2  1.000  0.018  0.022-   5 0.96
   3  0.001  0.115  0.000-   6 0.96
   4  0.028  0.149  1.000-   6 0.96
   5  0.000  0.035  0.000-   1 0.96   2 0.96
   6  0.001  0.143  0.000-   3 0.96   4 0.96
 
  LATTYP: Found a simple cubic cell.
 ALAT       =    35.0000000000
  
  Lattice vectors:
  
 A1 = (  35.0000000000,   0.0000000000,   0.0000000000)
 A2 = (   0.0000000000,  35.0000000000,   0.0000000000)
 A3 = (   0.0000000000,   0.0000000000,  35.0000000000)


Analysis of symmetry for initial positions (statically):
=====================================================================
 Subroutine PRICEL returns:
 Original cell was already a primitive cell.
 

 Routine SETGRP: Setting up the symmetry group for a 
 simple cubic supercell.


 Subroutine GETGRP returns: Found  1 space group operations
 (whereof  1 operations were pure point group operations)
 out of a pool of 48 trial point group operations.


The static configuration has the point symmetry C_1 .


Analysis of symmetry for dynamics (positions and initial velocities):
=====================================================================
 Subroutine PRICEL returns:
 Original cell was already a primitive cell.
 

 Routine SETGRP: Setting up the symmetry group for a 
 simple cubic supercell.


 Subroutine GETGRP returns: Found  1 space group operations
 (whereof  1 operations were pure point group operations)
 out of a pool of 48 trial point group operations.


The dynamic configuration has the point symmetry C_1 .


 Subroutine INISYM returns: Found  1 space group operations
 (whereof  1 operations are pure point group operations),
 and found     1 'primitive' translations


----------------------------------------------------------------------------------------

                                     Primitive cell                                     

  volume of cell :   42875.0000

  direct lattice vectors                    reciprocal lattice vectors
    35.000000000  0.000000000  0.000000000     0.028571429  0.000000000  0.000000000
     0.000000000 35.000000000  0.000000000     0.000000000  0.028571429  0.000000000
     0.000000000  0.000000000 35.000000000     0.000000000  0.000000000  0.028571429

  length of vectors
    35.000000000 35.000000000 35.000000000     0.028571429  0.028571429  0.028571429

  position of ions in fractional coordinates (direct lattice)
     0.000503079  0.018298976  0.978247097
     0.999617776  0.018046666  0.021558586
     0.000688177  0.115054716  0.000036905
     0.028137029  0.148566495  0.999533239
     0.000000000  0.035063029  0.000000000
     0.001349770  0.142514438  0.000072384

  ion indices of the primitive-cell ions
   primitive index   ion index
                 1           1
                 2           2
                 3           3
                 4           4
                 5           5
                 6           6

----------------------------------------------------------------------------------------

 
 
 KPOINTS: automatic mesh                          

Automatic generation of k-mesh.
Space group operators:
 irot       det(A)        alpha          n_x          n_y          n_z        tau_x        tau_y        tau_z
    1     1.000000     0.000000     1.000000     0.000000     0.000000     0.000000     0.000000     0.000000
 
 Subroutine IBZKPT returns following result:
 ===========================================
 
 Found      1 irreducible k-points:
 
 Following reciprocal coordinates:
            Coordinates               Weight
  0.000000  0.000000  0.000000      1.000000
 
 Following cartesian coordinates:
            Coordinates               Weight
  0.000000  0.000000  0.000000      1.000000
 


--------------------------------------------------------------------------------------------------------




 Dimension of arrays:
   k-points           NKPTS =      1   k-points in BZ     NKDIM =      1   number of bands    NBANDS=     12
   number of dos      NEDOS =    301   number of ions     NIONS =      6
   non local maximal  LDIM  =      4   non local SUM 2l+1 LMDIM =      8
   total plane-waves  NPLWV = ******
   max r-space proj   IRMAX =      1   max aug-charges    IRDMAX=  29269
   dimension x,y,z NGX =   378 NGY =  378 NGZ =  378
   dimension x,y,z NGXF=   756 NGYF=  756 NGZF=  756
   support grid    NGXF=   756 NGYF=  756 NGZF=  756
   ions per type =               4   2
   NGX,Y,Z   is equivalent  to a cutoff of  17.95, 17.95, 17.95 a.u.
   NGXF,Y,Z  is equivalent  to a cutoff of  35.91, 35.91, 35.91 a.u.

 SYSTEM =  C                                       
 POSCAR =   H  O                                   

 Startparameter for this run:
   NWRITE =      2    write-flag & timer
   PREC   = acc       normal or accurate (medium, high low for compatibility)
   ISTART =      0    job   : 0-new  1-cont  2-samecut
   ICHARG =      2    charge: 1-file 2-atom 10-const
   ISPIN  =      1    spin polarized calculation?
   LNONCOLLINEAR =      F non collinear calculations
   LSORBIT =      F    spin-orbit coupling
   INIWAV =      1    electr: 0-lowe 1-rand  2-diag
   LASPH  =      T    aspherical Exc in radial PAW
   METAGGA=      F    non-selfconsistent MetaGGA calc.

 Electronic Relaxation 1
   ENCUT  = 1000.0 eV  73.50 Ry    8.57 a.u.  90.25 90.25 90.25*2*pi/ulx,y,z
   ENINI  = 1000.0     initial cutoff
   ENAUG  =  412.4 eV  augmentation charge cutoff
   NELM   =     60;   NELMIN=  2; NELMDL= -5     # of ELM steps 
   EDIFF  = 0.1E-06   stopping-criterion for ELM
   LREAL  =      F    real-space projection
   NLSPLINE    = F    spline interpolate recip. space projectors
   LCOMPAT=      F    compatible to vasp.4.4
   GGA_COMPAT  = T    GGA compatible to vasp.4.4-vasp.4.6
   LMAXPAW     = -100 max onsite density
   LMAXMIX     =    2 max onsite mixed and CHGCAR
   VOSKOWN=      0    Vosko Wilk Nusair interpolation
   ROPT   =    0.00000   0.00000
 Ionic relaxation
   EDIFFG = 0.1E-05   stopping-criterion for IOM
   NSW    =      0    number of steps for IOM
   NBLOCK =      1;   KBLOCK =      1    inner block; outer block 
   IBRION =     -1    ionic relax: 0-MD 1-quasi-New 2-CG
   NFREE  =      0    steps in history (QN), initial steepest desc. (CG)
   ISIF   =      2    stress and relaxation
   IWAVPR =     10    prediction:  0-non 1-charg 2-wave 3-comb
   ISYM   =      2    0-nonsym 1-usesym 2-fastsym
   LCORR  =      T    Harris-Foulkes like correction to forces

   POTIM  = 0.5000    time-step for ionic-motion
   TEIN   =    0.0    initial temperature
   TEBEG  =    0.0;   TEEND  =   0.0 temperature during run
   SMASS  =  -3.00    Nose mass-parameter (am)
   estimated Nose-frequenzy (Omega)   =  0.10E-29 period in steps = 0.13E+47 mass=  -0.280E-25a.u.
   SCALEE = 1.0000    scale energy and forces
   NPACO  =    256;   APACO  = 16.0  distance and # of slots for P.C.
   PSTRESS=    0.0 pullay stress

  Mass of Ions in am
   POMASS =   1.00 16.00
  Ionic Valenz
   ZVAL   =   1.00  6.00
  Atomic Wigner-Seitz radii
   RWIGS  =  -1.00 -1.00
  virtual crystal weights 
   VCA    =   1.00  1.00
   NELECT =      16.0000    total number of electrons
   NUPDOWN=      -1.0000    fix difference up-down

 DOS related values:
   EMIN   =  10.00;   EMAX   =-10.00  energy-range for DOS
   EFERMI =   0.00
   ISMEAR =     0;   SIGMA  =   0.01  broadening in eV -4-tet -1-fermi 0-gaus

 Electronic relaxation 2 (details)
   IALGO  =     38    algorithm
   LDIAG  =      T    sub-space diagonalisation (order eigenvalues)
   LSUBROT=      F    optimize rotation matrix (better conditioning)
   TURBO    =      0    0=normal 1=particle mesh
   IRESTART =      0    0=no restart 2=restart with 2 vectors
   NREBOOT  =      0    no. of reboots
   NMIN     =      0    reboot dimension
   EREF     =   0.00    reference energy to select bands
   IMIX   =      4    mixing-type and parameters
     AMIX     =   0.40;   BMIX     =  1.00
     AMIX_MAG =   1.60;   BMIX_MAG =  1.00
     AMIN     =   0.10
     WC   =   100.;   INIMIX=   1;  MIXPRE=   1;  MAXMIX= -45

 Intra band minimization:
   WEIMIN = 0.0000     energy-eigenvalue tresh-hold
   EBREAK =  0.21E-08  absolut break condition
   DEPER  =   0.30     relativ break condition  

   TIME   =   0.40     timestep for ELM

  volume/ion in A,a.u.               =    7145.83     48222.46
  Fermi-wavevector in a.u.,A,eV,Ry     =   0.117864  0.222730  0.189010  0.013892
  Thomas-Fermi vector in A             =   0.732055
 
 Write flags
   LWAVE        =      T    write WAVECAR
   LDOWNSAMPLE  =      F    k-point downsampling of WAVECAR
   LCHARG       =      T    write CHGCAR
   LVTOT        =      F    write LOCPOT, total local potential
   LVHAR        =      F    write LOCPOT, Hartree potential only
   LELF         =      F    write electronic localiz. function (ELF)
   LORBIT       =      0    0 simple, 1 ext, 2 COOP (PROOUT), +10 PAW based schemes


 Dipole corrections
   LMONO  =      F    monopole corrections only (constant potential shift)
   LDIPOL =      F    correct potential (dipole corrections)
   IDIPOL =      4    1-x, 2-y, 3-z, 4-all directions 
   EPSILON=  1.0000000 bulk dielectric constant

 Exchange correlation treatment:
   GGA     =    --    GGA type
   LEXCH   =     8    internal setting for exchange type
   VOSKOWN=      0    Vosko Wilk Nusair interpolation
   LHFCALC =     F    Hartree Fock is set to
   LHFONE  =     F    Hartree Fock one center treatment
   AEXX    =    0.0000 exact exchange contribution

 Linear response parameters
   LEPSILON=     F    determine dielectric tensor
   LRPA    =     F    only Hartree local field effects (RPA)
   LNABLA  =     F    use nabla operator in PAW spheres
   LVEL    =     F    velocity operator in full k-point grid
   LINTERFAST=   F  fast interpolation
   KINTER  =     0    interpolate to denser k-point grid
   CSHIFT  =0.1000    complex shift for real part using Kramers Kronig
   OMEGAMAX=  -1.0    maximum frequency
   DEG_THRESHOLD= 0.2000000E-02 threshold for treating states as degnerate
   RTIME   =   -0.100 relaxation time in fs
  (WPLASMAI=    0.000 imaginary part of plasma frequency in eV, 0.658/RTIME)
   DFIELD  = 0.0000000 0.0000000 0.0000000 field for delta impulse in time
 
 Orbital magnetization related:
   ORBITALMAG=     F  switch on orbital magnetization
   LCHIMAG   =     F  perturbation theory with respect to B field
   DQ        =  0.001000  dq finite difference perturbation B field
   LLRAUG    =     F  two centre corrections for induced B field



--------------------------------------------------------------------------------------------------------


 Static calculation
 charge density and potential will be updated during run
 non-spin polarized calculation
 Variant of blocked Davidson
 Davidson routine will perform the subspace rotation
 perform sub-space diagonalisation
    after iterative eigenvector-optimisation
 modified Broyden-mixing scheme, WC =      100.0
 initial mixing is a Kerker type mixing with AMIX =  0.4000 and BMIX =      1.0000
 Hartree-type preconditioning will be used
 using additional bands             4
 reciprocal scheme for non local part
 calculate Harris-corrections to forces 
   (improved forces if not selfconsistent)
 use gradient corrections 
 use of overlap-Matrix (Vanderbilt PP)
 Gauss-broadening in eV      SIGMA  =   0.01


--------------------------------------------------------------------------------------------------------


  energy-cutoff  :     1000.00
  volume of cell :    42875.00
      direct lattice vectors                 reciprocal lattice vectors
    35.000000000  0.000000000  0.000000000     0.028571429  0.000000000  0.000000000
     0.000000000 35.000000000  0.000000000     0.000000000  0.028571429  0.000000000
     0.000000000  0.000000000 35.000000000     0.000000000  0.000000000  0.028571429

  length of vectors
    35.000000000 35.000000000 35.000000000     0.028571429  0.028571429  0.028571429


 
 k-points in units of 2pi/SCALE and weight: automatic mesh                          
   0.00000000  0.00000000  0.00000000       1.000
 
 k-points in reciprocal lattice and weights: automatic mesh                          
   0.00000000  0.00000000  0.00000000       1.000
 
 position of ions in fractional coordinates (direct lattice) 
   0.00050308  0.01829898  0.97824710
   0.99961778  0.01804667  0.02155859
   0.00068818  0.11505472  0.00003690
   0.02813703  0.14856649  0.99953324
   0.00000000  0.03506303  0.00000000
   0.00134977  0.14251444  0.00007238
 
 position of ions in cartesian coordinates  (Angst):
   0.01760775  0.64046416 34.23864840
  34.98662216  0.63163330  0.75455051
   0.02408619  4.02691505  0.00129166
   0.98479602  5.19982731 34.98366338
   0.00000000  1.22720600  0.00000000
   0.04724194  4.98800534  0.00253342
 


--------------------------------------------------------------------------------------------------------


 use parallel FFT for orbitals z direction half grid
 k-point   1 :   0.0000 0.0000 0.0000  plane waves: 1539209

 maximum and minimum number of plane-waves per node :    192406   192397

 maximum number of plane-waves:   1539209
 maximum index in each direction: 
   IXMAX=   90   IYMAX=   90   IZMAX=   90
   IXMIN=  -90   IYMIN=  -90   IZMIN=    0


 parallel 3D FFT for wavefunctions:
    minimum data exchange during FFTs selected (reduces bandwidth)
 parallel 3D FFT for charge:
    minimum data exchange during FFTs selected (reduces bandwidth)


 total amount of memory used by VASP MPI-rank0  1727998. kBytes
=======================================================================

   base      :      30000. kBytes
   nonl-proj :      43099. kBytes
   fftplans  :     601440. kBytes
   grid      :    1044223. kBytes
   one-center:          1. kBytes
   wavefun   :       9235. kBytes
 
     INWAV:  cpu time    0.0000: real time    0.0000
 Broyden mixing: mesh for mixing (old mesh)
   NGX =181   NGY =181   NGZ =181
  (NGX  =756   NGY  =756   NGZ  =756)
  gives a total of ****** points

 initial charge density was supplied:
 charge density of overlapping atoms calculated
 number of electron      16.0000000 magnetization 
 keeping initial charge density in first step


--------------------------------------------------------------------------------------------------------


 Maximum index for augmentation-charges          1122 (set IRDMAX)


--------------------------------------------------------------------------------------------------------


 First call to EWALD:  gamma=   0.051
 Maximum number of real-space cells 3x 3x 3
 Maximum number of reciprocal cells 3x 3x 3

    FEWALD:  cpu time    0.0008: real time    0.0007


--------------------------------------- Iteration      1(   1)  ---------------------------------------


    POTLOK:  cpu time   11.4867: real time   11.5029
    SETDIJ:  cpu time    0.0514: real time    0.0531
     EDDAV:  cpu time    5.8150: real time    5.8464
       DOS:  cpu time    0.0028: real time    0.0028
    --------------------------------------------
      LOOP:  cpu time   17.3560: real time   17.4051

 eigenvalue-minimisations  :    40
 total energy-change (2. order) : 0.1348169E+03  (-0.2622371E+03)
 number of electron      16.0000000 magnetization 
 augmentation part       16.0000000 magnetization 

 Free energy of the ion-electron system (eV)
  ---------------------------------------------------
  alpha Z        PSCENC =         0.01723541
  Ewald energy   TEWEN  =       473.05398508
  -Hartree energ DENC   =     -1183.16663733
  -exchange      EXHF   =         0.00000000
  -V(xc)+E(xc)   XCENC  =        64.25388530
  PAW double counting   =       700.82501663     -709.28092584
  entropy T*S    EENTRO =        -0.00000000
  eigenvalues    EBANDS =      -125.59595174
  atomic energy  EATOM  =       914.71024870
  Solvation  Ediel_sol  =         0.00000000
  ---------------------------------------------------
  free energy    TOTEN  =       134.81685620 eV

  energy without entropy =      134.81685620  energy(sigma->0) =      134.81685620


--------------------------------------------------------------------------------------------------------




--------------------------------------- Iteration      1(   2)  ---------------------------------------


     EDDAV:  cpu time    5.8307: real time    5.8401
       DOS:  cpu time    0.0037: real time    0.0037
    --------------------------------------------
      LOOP:  cpu time    5.8345: real time    5.8438

 eigenvalue-minimisations  :    40
 total energy-change (2. order) :-0.1179495E+03  (-0.1178016E+03)
 number of electron      16.0000000 magnetization 
 augmentation part       16.0000000 magnetization 

 Free energy of the ion-electron system (eV)
  ---------------------------------------------------
  alpha Z        PSCENC =         0.01723541
  Ewald energy   TEWEN  =       473.05398508
  -Hartree energ DENC   =     -1183.16663733
  -exchange      EXHF   =         0.00000000
  -V(xc)+E(xc)   XCENC  =        64.25388530
  PAW double counting   =       700.82501663     -709.28092584
  entropy T*S    EENTRO =        -0.00000000
  eigenvalues    EBANDS =      -243.54542874
  atomic energy  EATOM  =       914.71024870
  Solvation  Ediel_sol  =         0.00000000
  ---------------------------------------------------
  free energy    TOTEN  =        16.86737919 eV

  energy without entropy =       16.86737919  energy(sigma->0) =       16.86737919


--------------------------------------------------------------------------------------------------------




--------------------------------------- Iteration      1(   3)  ---------------------------------------


     EDDAV:  cpu time    4.9520: real time    4.9602
       DOS:  cpu time    0.0050: real time    0.0050
    --------------------------------------------
      LOOP:  cpu time    4.9570: real time    4.9651

 eigenvalue-minimisations  :    32
 total energy-change (2. order) :-0.3318661E+02  (-0.2776670E+02)
 number of electron      16.0000000 magnetization 
 augmentation part       16.0000000 magnetization 

 Free energy of the ion-electron system (eV)
  ---------------------------------------------------
  alpha Z        PSCENC =         0.01723541
  Ewald energy   TEWEN  =       473.05398508
  -Hartree energ DENC   =     -1183.16663733
  -exchange      EXHF   =         0.00000000
  -V(xc)+E(xc)   XCENC  =        64.25388530
  PAW double counting   =       700.82501663     -709.28092584
  entropy T*S    EENTRO =        -0.00000000
  eigenvalues    EBANDS =      -276.73204063
  atomic energy  EATOM  =       914.71024870
  Solvation  Ediel_sol  =         0.00000000
  ---------------------------------------------------
  free energy    TOTEN  =       -16.31923269 eV

  energy without entropy =      -16.31923269  energy(sigma->0) =      -16.31923269


--------------------------------------------------------------------------------------------------------




--------------------------------------- Iteration      1(   4)  ---------------------------------------


     EDDAV:  cpu time    4.9193: real time    4.9273
       DOS:  cpu time    0.0041: real time    0.0041
    --------------------------------------------
      LOOP:  cpu time    4.9235: real time    4.9314

 eigenvalue-minimisations  :    32
 total energy-change (2. order) :-0.1483990E+02  (-0.1482753E+02)
 number of electron      16.0000000 magnetization 
 augmentation part       16.0000000 magnetization 

 Free energy of the ion-electron system (eV)
  ---------------------------------------------------
  alpha Z        PSCENC =         0.01723541
  Ewald energy   TEWEN  =       473.05398508
  -Hartree energ DENC   =     -1183.16663733
  -exchange      EXHF   =         0.00000000
  -V(xc)+E(xc)   XCENC  =        64.25388530
  PAW double counting   =       700.82501663     -709.28092584
  entropy T*S    EENTRO =        -0.00000000
  eigenvalues    EBANDS =      -291.57194342
  atomic energy  EATOM  =       914.71024870
  Solvation  Ediel_sol  =         0.00000000
  ---------------------------------------------------
  free energy    TOTEN  =       -31.15913548 eV

  energy without entropy =      -31.15913548  energy(sigma->0) =      -31.15913548


--------------------------------------------------------------------------------------------------------




--------------------------------------- Iteration      1(   5)  ---------------------------------------


     EDDAV:  cpu time    4.9437: real time    4.9517
       DOS:  cpu time    0.0040: real time    0.0040
    CHARGE:  cpu time    1.4979: real time    1.5001
    MIXING:  cpu time    0.2026: real time    0.2029
    --------------------------------------------
      LOOP:  cpu time    6.6482: real time    6.6587

 eigenvalue-minimisations  :    32
 total energy-change (2. order) :-0.1111278E+01  (-0.1111265E+01)
 number of electron      15.9999999 magnetization 
 augmentation part        3.2962645 magnetization 

 Broyden mixing:
  rms(total) = 0.24567E+01    rms(broyden)= 0.24567E+01
  rms(prec ) = 0.24735E+01
  weight for this iteration     100.00

 Free energy of the ion-electron system (eV)
  ---------------------------------------------------
  alpha Z        PSCENC =         0.01723541
  Ewald energy   TEWEN  =       473.05398508
  -Hartree energ DENC   =     -1183.16663733
  -exchange      EXHF   =         0.00000000
  -V(xc)+E(xc)   XCENC  =        64.25388530
  PAW double counting   =       700.82501663     -709.28092584
  entropy T*S    EENTRO =        -0.00000000
  eigenvalues    EBANDS =      -292.68322135
  atomic energy  EATOM  =       914.71024870
  Solvation  Ediel_sol  =         0.00000000
  ---------------------------------------------------
  free energy    TOTEN  =       -32.27041341 eV

  energy without entropy =      -32.27041341  energy(sigma->0) =      -32.27041341


--------------------------------------------------------------------------------------------------------




--------------------------------------- Iteration      1(   6)  ---------------------------------------


    POTLOK:  cpu time   11.2870: real time   11.3028
    SETDIJ:  cpu time    0.0517: real time    0.0517
     EDDAV:  cpu time    4.4923: real time    4.4996
       DOS:  cpu time    0.0037: real time    0.0037
    CHARGE:  cpu time    1.4602: real time    1.4623
    MIXING:  cpu time    0.2246: real time    0.2328
    --------------------------------------------
      LOOP:  cpu time   17.5194: real time   17.5528

 eigenvalue-minimisations  :    28
 total energy-change (2. order) : 0.3898434E+01  (-0.1782613E+01)
 number of electron      15.9999999 magnetization 
 augmentation part        2.8066680 magnetization 

 Broyden mixing:
  rms(total) = 0.37772E+01    rms(broyden)= 0.37772E+01
  rms(prec ) = 0.37781E+01
  weight for this iteration     100.00

 eigenvalues of (default mixing * dielectric matrix)
  average eigenvalue GAMMA=   0.5770
  0.5770

 Free energy of the ion-electron system (eV)
  ---------------------------------------------------
  alpha Z        PSCENC =         0.01723541
  Ewald energy   TEWEN  =       473.05398508
  -Hartree energ DENC   =     -1230.82594662
  -exchange      EXHF   =         0.00000000
  -V(xc)+E(xc)   XCENC  =        66.90828321
  PAW double counting   =      1075.94978035    -1086.62246325
  entropy T*S    EENTRO =        -0.00000000
  eigenvalues    EBANDS =      -241.56310206
  atomic energy  EATOM  =       914.71024870
  Solvation  Ediel_sol  =         0.00000000
  ---------------------------------------------------
  free energy    TOTEN  =       -28.37197918 eV

  energy without entropy =      -28.37197918  energy(sigma->0) =      -28.37197918


--------------------------------------------------------------------------------------------------------




--------------------------------------- Iteration      1(   7)  ---------------------------------------


    POTLOK:  cpu time   11.2607: real time   11.2770
    SETDIJ:  cpu time    0.0522: real time    0.0522
     EDDAV:  cpu time    4.0661: real time    4.0726
       DOS:  cpu time    0.0027: real time    0.0027
    CHARGE:  cpu time    1.4489: real time    1.4511
    MIXING:  cpu time    0.2100: real time    0.2104
    --------------------------------------------
      LOOP:  cpu time   17.0405: real time   17.0659

 eigenvalue-minimisations  :    24
 total energy-change (2. order) :-0.1634960E+00  (-0.2877542E-01)
 number of electron      15.9999999 magnetization 
 augmentation part        2.8085819 magnetization 

 Broyden mixing:
  rms(total) = 0.46668E+01    rms(broyden)= 0.46668E+01
  rms(prec ) = 0.46678E+01
  weight for this iteration     100.00

 eigenvalues of (default mixing * dielectric matrix)
  average eigenvalue GAMMA=   1.6054
  0.9833  2.2275

 Free energy of the ion-electron system (eV)
  ---------------------------------------------------
  alpha Z        PSCENC =         0.01723541
  Ewald energy   TEWEN  =       473.05398508
  -Hartree energ DENC   =     -1227.13253113
  -exchange      EXHF   =         0.00000000
  -V(xc)+E(xc)   XCENC  =        66.73085231
  PAW double counting   =       864.06784182     -874.83136477
  entropy T*S    EENTRO =        -0.00000000
  eigenvalues    EBANDS =      -245.15174260
  atomic energy  EATOM  =       914.71024870
  Solvation  Ediel_sol  =         0.00000000
  ---------------------------------------------------
  free energy    TOTEN  =       -28.53547520 eV

  energy without entropy =      -28.53547520  energy(sigma->0) =      -28.53547520


--------------------------------------------------------------------------------------------------------




--------------------------------------- Iteration      1(   8)  ---------------------------------------


    POTLOK:  cpu time   11.2738: real time   11.2898
    SETDIJ:  cpu time    0.0525: real time    0.0525
     EDDAV:  cpu time    4.5167: real time    4.5241
       DOS:  cpu time    0.0024: real time    0.0024
    CHARGE:  cpu time    1.4609: real time    1.4631
    MIXING:  cpu time    0.2263: real time    0.2267
    --------------------------------------------
      LOOP:  cpu time   17.5327: real time   17.5586

 eigenvalue-minimisations  :    28
 total energy-change (2. order) : 0.4961666E+00  (-0.7173072E-01)
 number of electron      15.9999999 magnetization 
 augmentation part        2.7354542 magnetization 

 Broyden mixing:
  rms(total) = 0.55298E+00    rms(broyden)= 0.55298E+00
  rms(prec ) = 0.55383E+00
  weight for this iteration     100.00

 eigenvalues of (default mixing * dielectric matrix)
  average eigenvalue GAMMA=   1.2988
  2.2726  1.0823  0.5414

 Free energy of the ion-electron system (eV)
  ---------------------------------------------------
  alpha Z        PSCENC =         0.01723541
  Ewald energy   TEWEN  =       473.05398508
  -Hartree energ DENC   =     -1250.36817913
  -exchange      EXHF   =         0.00000000
  -V(xc)+E(xc)   XCENC  =        67.91446475
  PAW double counting   =      2406.57539146    -2416.91389481
  entropy T*S    EENTRO =        -0.00000000
  eigenvalues    EBANDS =      -223.02856008
  atomic energy  EATOM  =       914.71024870
  Solvation  Ediel_sol  =         0.00000000
  ---------------------------------------------------
  free energy    TOTEN  =       -28.03930862 eV

  energy without entropy =      -28.03930862  energy(sigma->0) =      -28.03930862


--------------------------------------------------------------------------------------------------------




--------------------------------------- Iteration      1(   9)  ---------------------------------------


    POTLOK:  cpu time   11.2872: real time   11.3032
    SETDIJ:  cpu time    0.0513: real time    0.0513
     EDDAV:  cpu time    4.9285: real time    4.9364
       DOS:  cpu time    0.0033: real time    0.0033
    CHARGE:  cpu time    1.4627: real time    1.4649
    MIXING:  cpu time    0.2310: real time    0.2314
    --------------------------------------------
      LOOP:  cpu time   17.9640: real time   17.9905

 eigenvalue-minimisations  :    32
 total energy-change (2. order) : 0.2417793E-01  (-0.6356898E-02)
 number of electron      15.9999999 magnetization 
 augmentation part        2.7622057 magnetization 

 Broyden mixing:
  rms(total) = 0.20449E+00    rms(broyden)= 0.20449E+00
  rms(prec ) = 0.20546E+00
  weight for this iteration     100.00

 eigenvalues of (default mixing * dielectric matrix)
  average eigenvalue GAMMA=   1.1409
  2.2349  1.0749  0.6270  0.6270

 Free energy of the ion-electron system (eV)
  ---------------------------------------------------
  alpha Z        PSCENC =         0.01723541
  Ewald energy   TEWEN  =       473.05398508
  -Hartree energ DENC   =     -1249.44126121
  -exchange      EXHF   =         0.00000000
  -V(xc)+E(xc)   XCENC  =        67.85284319
  PAW double counting   =      2468.88386488    -2479.09128732
  entropy T*S    EENTRO =        -0.00000000
  eigenvalues    EBANDS =      -224.00075943
  atomic energy  EATOM  =       914.71024870
  Solvation  Ediel_sol  =         0.00000000
  ---------------------------------------------------
  free energy    TOTEN  =       -28.01513069 eV

  energy without entropy =      -28.01513069  energy(sigma->0) =      -28.01513069


--------------------------------------------------------------------------------------------------------




--------------------------------------- Iteration      1(  10)  ---------------------------------------


    POTLOK:  cpu time   11.2797: real time   11.2958
    SETDIJ:  cpu time    0.0531: real time    0.0531
     EDDAV:  cpu time    4.9397: real time    4.9477
       DOS:  cpu time    0.0031: real time    0.0031
    CHARGE:  cpu time    1.4528: real time    1.4550
    MIXING:  cpu time    0.2390: real time    0.2394
    --------------------------------------------
      LOOP:  cpu time   17.9674: real time   17.9940

 eigenvalue-minimisations  :    32
 total energy-change (2. order) : 0.2298201E-02  (-0.5210889E-03)
 number of electron      15.9999999 magnetization 
 augmentation part        2.7684515 magnetization 

 Broyden mixing:
  rms(total) = 0.14694E+00    rms(broyden)= 0.14694E+00
  rms(prec ) = 0.14789E+00
  weight for this iteration     100.00

 eigenvalues of (default mixing * dielectric matrix)
  average eigenvalue GAMMA=   1.4028
  2.2231  1.5286  1.5286  0.7424  0.9912

 Free energy of the ion-electron system (eV)
  ---------------------------------------------------
  alpha Z        PSCENC =         0.01723541
  Ewald energy   TEWEN  =       473.05398508
  -Hartree energ DENC   =     -1249.50930491
  -exchange      EXHF   =         0.00000000
  -V(xc)+E(xc)   XCENC  =        67.84908766
  PAW double counting   =      2465.81716997    -2476.01126638
  entropy T*S    EENTRO =        -0.00000000
  eigenvalues    EBANDS =      -223.93998802
  atomic energy  EATOM  =       914.71024870
  Solvation  Ediel_sol  =         0.00000000
  ---------------------------------------------------
  free energy    TOTEN  =       -28.01283249 eV

  energy without entropy =      -28.01283249  energy(sigma->0) =      -28.01283249


--------------------------------------------------------------------------------------------------------




--------------------------------------- Iteration      1(  11)  ---------------------------------------


    POTLOK:  cpu time   11.3053: real time   11.3214
    SETDIJ:  cpu time    0.0508: real time    0.0508
     EDDAV:  cpu time    4.0374: real time    4.0440
       DOS:  cpu time    0.0030: real time    0.0030
    CHARGE:  cpu time    1.4645: real time    1.4668
    MIXING:  cpu time    0.2405: real time    0.2409
    --------------------------------------------
      LOOP:  cpu time   17.1016: real time   17.1269

 eigenvalue-minimisations  :    24
 total energy-change (2. order) : 0.9258973E-03  (-0.1041359E-02)
 number of electron      15.9999999 magnetization 
 augmentation part        2.7755714 magnetization 

 Broyden mixing:
  rms(total) = 0.20200E-01    rms(broyden)= 0.20200E-01
  rms(prec ) = 0.22364E-01
  weight for this iteration     100.00

 eigenvalues of (default mixing * dielectric matrix)
  average eigenvalue GAMMA=   1.4575
  2.5358  2.5358  1.1583  0.8843  0.8843  0.7464

 Free energy of the ion-electron system (eV)
  ---------------------------------------------------
  alpha Z        PSCENC =         0.01723541
  Ewald energy   TEWEN  =       473.05398508
  -Hartree energ DENC   =     -1251.14169462
  -exchange      EXHF   =         0.00000000
  -V(xc)+E(xc)   XCENC  =        67.90714241
  PAW double counting   =      2480.34203033    -2490.51876022
  entropy T*S    EENTRO =        -0.00000000
  eigenvalues    EBANDS =      -222.38209368
  atomic energy  EATOM  =       914.71024870
  Solvation  Ediel_sol  =         0.00000000
  ---------------------------------------------------
  free energy    TOTEN  =       -28.01190659 eV

  energy without entropy =      -28.01190659  energy(sigma->0) =      -28.01190659


--------------------------------------------------------------------------------------------------------




--------------------------------------- Iteration      1(  12)  ---------------------------------------


    POTLOK:  cpu time   11.2952: real time   11.3113
    SETDIJ:  cpu time    0.0514: real time    0.0514
     EDDAV:  cpu time    4.9255: real time    4.9335
       DOS:  cpu time    0.0028: real time    0.0028
    CHARGE:  cpu time    1.4798: real time    1.4820
    MIXING:  cpu time    0.2481: real time    0.2485
    --------------------------------------------
      LOOP:  cpu time   18.0030: real time   18.0296

 eigenvalue-minimisations  :    32
 total energy-change (2. order) :-0.2708416E-02  (-0.2177107E-03)
 number of electron      15.9999999 magnetization 
 augmentation part        2.7779892 magnetization 

 Broyden mixing:
  rms(total) = 0.15197E-01    rms(broyden)= 0.15197E-01
  rms(prec ) = 0.16834E-01
  weight for this iteration     100.00

 eigenvalues of (default mixing * dielectric matrix)
  average eigenvalue GAMMA=   1.4357
  2.4168  2.4168  1.3534  1.3534  0.8728  0.8728  0.7643

 Free energy of the ion-electron system (eV)
  ---------------------------------------------------
  alpha Z        PSCENC =         0.01723541
  Ewald energy   TEWEN  =       473.05398508
  -Hartree energ DENC   =     -1251.84159928
  -exchange      EXHF   =         0.00000000
  -V(xc)+E(xc)   XCENC  =        67.92314621
  PAW double counting   =      2473.40683074    -2483.57688804
  entropy T*S    EENTRO =        -0.00000000
  eigenvalues    EBANDS =      -221.70757382
  atomic energy  EATOM  =       914.71024870
  Solvation  Ediel_sol  =         0.00000000
  ---------------------------------------------------
  free energy    TOTEN  =       -28.01461501 eV

  energy without entropy =      -28.01461501  energy(sigma->0) =      -28.01461501


--------------------------------------------------------------------------------------------------------




--------------------------------------- Iteration      1(  13)  ---------------------------------------


    POTLOK:  cpu time   11.2968: real time   11.3129
    SETDIJ:  cpu time    0.0510: real time    0.0510
     EDDAV:  cpu time    4.0563: real time    4.0628
       DOS:  cpu time    0.0018: real time    0.0018
    CHARGE:  cpu time    1.4639: real time    1.4660
    MIXING:  cpu time    0.2676: real time    0.2680
    --------------------------------------------
      LOOP:  cpu time   17.1373: real time   17.1625

 eigenvalue-minimisations  :    24
 total energy-change (2. order) :-0.3707214E-02  (-0.7012527E-04)
 number of electron      15.9999999 magnetization 
 augmentation part        2.7765387 magnetization 

 Broyden mixing:
  rms(total) = 0.70821E-02    rms(broyden)= 0.70821E-02
  rms(prec ) = 0.89590E-02
  weight for this iteration     100.00

 eigenvalues of (default mixing * dielectric matrix)
  average eigenvalue GAMMA=   1.5035
  3.2174  2.4429  1.4704  1.4704  1.0858  0.7494  0.7961  0.7961

 Free energy of the ion-electron system (eV)
  ---------------------------------------------------
  alpha Z        PSCENC =         0.01723541
  Ewald energy   TEWEN  =       473.05398508
  -Hartree energ DENC   =     -1252.31195997
  -exchange      EXHF   =         0.00000000
  -V(xc)+E(xc)   XCENC  =        67.92402378
  PAW double counting   =      2472.61814350    -2482.78075991
  entropy T*S    EENTRO =        -0.00000000
  eigenvalues    EBANDS =      -221.24923881
  atomic energy  EATOM  =       914.71024870
  Solvation  Ediel_sol  =         0.00000000
  ---------------------------------------------------
  free energy    TOTEN  =       -28.01832222 eV

  energy without entropy =      -28.01832222  energy(sigma->0) =      -28.01832222


--------------------------------------------------------------------------------------------------------




--------------------------------------- Iteration      1(  14)  ---------------------------------------


    POTLOK:  cpu time   11.3042: real time   11.3201
    SETDIJ:  cpu time    0.0566: real time    0.0566
     EDDAV:  cpu time    4.4833: real time    4.4937
       DOS:  cpu time    0.0019: real time    0.0019
    CHARGE:  cpu time    1.4584: real time    1.4605
    MIXING:  cpu time    0.2679: real time    0.2684
    --------------------------------------------
      LOOP:  cpu time   17.5722: real time   17.6011

 eigenvalue-minimisations  :    28
 total energy-change (2. order) :-0.3882503E-02  (-0.8994722E-04)
 number of electron      15.9999999 magnetization 
 augmentation part        2.7764108 magnetization 

 Broyden mixing:
  rms(total) = 0.10695E-01    rms(broyden)= 0.10695E-01
  rms(prec ) = 0.11263E-01
  weight for this iteration     100.00

 eigenvalues of (default mixing * dielectric matrix)
  average eigenvalue GAMMA=   1.6255
  3.0608  3.0608  2.2420  1.3730  1.3730  0.7686  0.8908  0.8908  0.9700

 Free energy of the ion-electron system (eV)
  ---------------------------------------------------
  alpha Z        PSCENC =         0.01723541
  Ewald energy   TEWEN  =       473.05398508
  -Hartree energ DENC   =     -1252.92824633
  -exchange      EXHF   =         0.00000000
  -V(xc)+E(xc)   XCENC  =        67.93118518
  PAW double counting   =      2471.05476145    -2481.21022307
  entropy T*S    EENTRO =        -0.00000000
  eigenvalues    EBANDS =      -220.65115114
  atomic energy  EATOM  =       914.71024870
  Solvation  Ediel_sol  =         0.00000000
  ---------------------------------------------------
  free energy    TOTEN  =       -28.02220473 eV

  energy without entropy =      -28.02220473  energy(sigma->0) =      -28.02220473


--------------------------------------------------------------------------------------------------------




--------------------------------------- Iteration      1(  15)  ---------------------------------------


    POTLOK:  cpu time   11.3171: real time   11.3333
    SETDIJ:  cpu time    0.0524: real time    0.0525
     EDDAV:  cpu time    4.4923: real time    4.4995
       DOS:  cpu time    0.0026: real time    0.0026
    CHARGE:  cpu time    1.4550: real time    1.4571
    MIXING:  cpu time    0.2931: real time    0.2937
    --------------------------------------------
      LOOP:  cpu time   17.6125: real time   17.6386

 eigenvalue-minimisations  :    28
 total energy-change (2. order) :-0.4411523E-02  (-0.7883804E-04)
 number of electron      15.9999999 magnetization 
 augmentation part        2.7747907 magnetization 

 Broyden mixing:
  rms(total) = 0.44553E-02    rms(broyden)= 0.44552E-02
  rms(prec ) = 0.48867E-02
  weight for this iteration     100.00

 eigenvalues of (default mixing * dielectric matrix)
  average eigenvalue GAMMA=   1.8714
  5.9986  2.8528  2.4330  1.5179  1.5179  1.1037  0.8521  0.8521  0.7928  0.7928

 Free energy of the ion-electron system (eV)
  ---------------------------------------------------
  alpha Z        PSCENC =         0.01723541
  Ewald energy   TEWEN  =       473.05398508
  -Hartree energ DENC   =     -1253.28554874
  -exchange      EXHF   =         0.00000000
  -V(xc)+E(xc)   XCENC  =        67.92860677
  PAW double counting   =      2469.03108335    -2479.18560316
  entropy T*S    EENTRO =        -0.00000000
  eigenvalues    EBANDS =      -220.29662365
  atomic energy  EATOM  =       914.71024870
  Solvation  Ediel_sol  =         0.00000000
  ---------------------------------------------------
  free energy    TOTEN  =       -28.02661625 eV

  energy without entropy =      -28.02661625  energy(sigma->0) =      -28.02661625


--------------------------------------------------------------------------------------------------------




--------------------------------------- Iteration      1(  16)  ---------------------------------------


    POTLOK:  cpu time   11.3218: real time   11.3374
    SETDIJ:  cpu time    0.0640: real time    0.0640
     EDDAV:  cpu time    4.9453: real time    4.9534
       DOS:  cpu time    0.0032: real time    0.0032
    CHARGE:  cpu time    1.4681: real time    1.4704
    MIXING:  cpu time    0.2925: real time    0.2930
    --------------------------------------------
      LOOP:  cpu time   18.0949: real time   18.1214

 eigenvalue-minimisations  :    32
 total energy-change (2. order) :-0.2601470E-02  (-0.3420152E-04)
 number of electron      15.9999999 magnetization 
 augmentation part        2.7747901 magnetization 

 Broyden mixing:
  rms(total) = 0.23397E-02    rms(broyden)= 0.23397E-02
  rms(prec ) = 0.25741E-02
  weight for this iteration     100.00

 eigenvalues of (default mixing * dielectric matrix)
  average eigenvalue GAMMA=   1.8713
  6.1637  3.0415  2.2891  1.8207  1.8207  1.1781  0.9219  0.9219  0.7751  0.8256
  0.8256

 Free energy of the ion-electron system (eV)
  ---------------------------------------------------
  alpha Z        PSCENC =         0.01723541
  Ewald energy   TEWEN  =       473.05398508
  -Hartree energ DENC   =     -1253.50321139
  -exchange      EXHF   =         0.00000000
  -V(xc)+E(xc)   XCENC  =        67.92671090
  PAW double counting   =      2468.39671067    -2478.54815343
  entropy T*S    EENTRO =        -0.00000000
  eigenvalues    EBANDS =      -220.08274366
  atomic energy  EATOM  =       914.71024870
  Solvation  Ediel_sol  =         0.00000000
  ---------------------------------------------------
  free energy    TOTEN  =       -28.02921772 eV

  energy without entropy =      -28.02921772  energy(sigma->0) =      -28.02921772


--------------------------------------------------------------------------------------------------------




--------------------------------------- Iteration      1(  17)  ---------------------------------------


    POTLOK:  cpu time   11.3487: real time   11.3646
    SETDIJ:  cpu time    0.0545: real time    0.0546
     EDDAV:  cpu time    4.9470: real time    4.9550
       DOS:  cpu time    0.0043: real time    0.0043
    CHARGE:  cpu time    1.4648: real time    1.4670
    MIXING:  cpu time    0.4267: real time    0.4272
    --------------------------------------------
      LOOP:  cpu time   18.2460: real time   18.2726

 eigenvalue-minimisations  :    32
 total energy-change (2. order) :-0.1534587E-02  (-0.7891010E-05)
 number of electron      15.9999999 magnetization 
 augmentation part        2.7747649 magnetization 

 Broyden mixing:
  rms(total) = 0.22931E-02    rms(broyden)= 0.22931E-02
  rms(prec ) = 0.23928E-02
  weight for this iteration     100.00

 eigenvalues of (default mixing * dielectric matrix)
  average eigenvalue GAMMA=   2.0339
  7.1600  3.7945  2.5406  2.5406  1.8735  1.2780  0.8422  0.8422  0.9775  0.9561
  0.8006  0.8006

 Free energy of the ion-electron system (eV)
  ---------------------------------------------------
  alpha Z        PSCENC =         0.01723541
  Ewald energy   TEWEN  =       473.05398508
  -Hartree energ DENC   =     -1253.51146143
  -exchange      EXHF   =         0.00000000
  -V(xc)+E(xc)   XCENC  =        67.92398519
  PAW double counting   =      2467.89814444    -2478.04997798
  entropy T*S    EENTRO =        -0.00000000
  eigenvalues    EBANDS =      -220.07291171
  atomic energy  EATOM  =       914.71024870
  Solvation  Ediel_sol  =         0.00000000
  ---------------------------------------------------
  free energy    TOTEN  =       -28.03075231 eV

  energy without entropy =      -28.03075231  energy(sigma->0) =      -28.03075231


--------------------------------------------------------------------------------------------------------




--------------------------------------- Iteration      1(  18)  ---------------------------------------


    POTLOK:  cpu time   11.3105: real time   11.3266
    SETDIJ:  cpu time    0.0502: real time    0.0502
     EDDAV:  cpu time    4.9394: real time    4.9474
       DOS:  cpu time    0.0012: real time    0.0012
    CHARGE:  cpu time    1.4658: real time    1.4680
    MIXING:  cpu time    0.3220: real time    0.3225
    --------------------------------------------
      LOOP:  cpu time   18.0891: real time   18.1160

 eigenvalue-minimisations  :    32
 total energy-change (2. order) :-0.1357601E-02  (-0.1192425E-04)
 number of electron      15.9999999 magnetization 
 augmentation part        2.7750534 magnetization 

 Broyden mixing:
  rms(total) = 0.78289E-03    rms(broyden)= 0.78289E-03
  rms(prec ) = 0.82989E-03
  weight for this iteration     100.00

 eigenvalues of (default mixing * dielectric matrix)
  average eigenvalue GAMMA=   2.0013
  8.0817  3.6999  2.3558  2.3558  2.1492  1.1603  1.1603  0.7897  0.8529  0.8777
  0.8777  0.8277  0.8277

 Free energy of the ion-electron system (eV)
  ---------------------------------------------------
  alpha Z        PSCENC =         0.01723541
  Ewald energy   TEWEN  =       473.05398508
  -Hartree energ DENC   =     -1253.51412416
  -exchange      EXHF   =         0.00000000
  -V(xc)+E(xc)   XCENC  =        67.92088231
  PAW double counting   =      2468.05075224    -2478.20211646
  entropy T*S    EENTRO =        -0.00000000
  eigenvalues    EBANDS =      -220.06897303
  atomic energy  EATOM  =       914.71024870
  Solvation  Ediel_sol  =         0.00000000
  ---------------------------------------------------
  free energy    TOTEN  =       -28.03210991 eV

  energy without entropy =      -28.03210991  energy(sigma->0) =      -28.03210991


--------------------------------------------------------------------------------------------------------




--------------------------------------- Iteration      1(  19)  ---------------------------------------


    POTLOK:  cpu time   11.3117: real time   11.3278
    SETDIJ:  cpu time    0.0522: real time    0.0522
     EDDAV:  cpu time    4.9380: real time    4.9463
       DOS:  cpu time    0.0048: real time    0.0048
    CHARGE:  cpu time    1.4743: real time    1.4766
    MIXING:  cpu time    0.3529: real time    0.3534
    --------------------------------------------
      LOOP:  cpu time   18.1339: real time   18.1611

 eigenvalue-minimisations  :    32
 total energy-change (2. order) :-0.7310982E-04  (-0.7229746E-06)
 number of electron      15.9999999 magnetization 
 augmentation part        2.7748495 magnetization 

 Broyden mixing:
  rms(total) = 0.53069E-03    rms(broyden)= 0.53069E-03
  rms(prec ) = 0.58085E-03
  weight for this iteration     100.00

 eigenvalues of (default mixing * dielectric matrix)
  average eigenvalue GAMMA=   2.0894
  8.5020  4.2225  2.6150  2.6150  2.0073  2.0073  1.1173  1.1173  0.8655  0.8655
  0.9035  0.9035  0.7550  0.7550

 Free energy of the ion-electron system (eV)
  ---------------------------------------------------
  alpha Z        PSCENC =         0.01723541
  Ewald energy   TEWEN  =       473.05398508
  -Hartree energ DENC   =     -1253.53316941
  -exchange      EXHF   =         0.00000000
  -V(xc)+E(xc)   XCENC  =        67.92128083
  PAW double counting   =      2468.25040231    -2478.40190835
  entropy T*S    EENTRO =        -0.00000000
  eigenvalues    EBANDS =      -220.05025758
  atomic energy  EATOM  =       914.71024870
  Solvation  Ediel_sol  =         0.00000000
  ---------------------------------------------------
  free energy    TOTEN  =       -28.03218302 eV

  energy without entropy =      -28.03218302  energy(sigma->0) =      -28.03218302


--------------------------------------------------------------------------------------------------------




--------------------------------------- Iteration      1(  20)  ---------------------------------------


    POTLOK:  cpu time   11.2905: real time   11.3066
    SETDIJ:  cpu time    0.0514: real time    0.0514
     EDDAV:  cpu time    4.0445: real time    4.0510
       DOS:  cpu time    0.0048: real time    0.0048
    CHARGE:  cpu time    1.4808: real time    1.4830
    MIXING:  cpu time    0.4571: real time    0.4578
    --------------------------------------------
      LOOP:  cpu time   17.3291: real time   17.3546

 eigenvalue-minimisations  :    24
 total energy-change (2. order) :-0.3687226E-03  (-0.1073878E-05)
 number of electron      15.9999999 magnetization 
 augmentation part        2.7749573 magnetization 

 Broyden mixing:
  rms(total) = 0.50896E-03    rms(broyden)= 0.50896E-03
  rms(prec ) = 0.52273E-03
  weight for this iteration     100.00

 eigenvalues of (default mixing * dielectric matrix)
  average eigenvalue GAMMA=   2.1260
  9.1726  4.8255  2.6457  2.6457  2.4713  1.9355  1.2049  1.2049  0.8487  0.8487
  0.9167  0.9167  0.7897  0.8167  0.6472

 Free energy of the ion-electron system (eV)
  ---------------------------------------------------
  alpha Z        PSCENC =         0.01723541
  Ewald energy   TEWEN  =       473.05398508
  -Hartree energ DENC   =     -1253.51818804
  -exchange      EXHF   =         0.00000000
  -V(xc)+E(xc)   XCENC  =        67.92007252
  PAW double counting   =      2468.28152836    -2478.43238415
  entropy T*S    EENTRO =        -0.00000000
  eigenvalues    EBANDS =      -220.06504961
  atomic energy  EATOM  =       914.71024870
  Solvation  Ediel_sol  =         0.00000000
  ---------------------------------------------------
  free energy    TOTEN  =       -28.03255174 eV

  energy without entropy =      -28.03255174  energy(sigma->0) =      -28.03255174


--------------------------------------------------------------------------------------------------------




--------------------------------------- Iteration      1(  21)  ---------------------------------------


    POTLOK:  cpu time   11.2886: real time   11.3047
    SETDIJ:  cpu time    0.0521: real time    0.0521
     EDDAV:  cpu time    5.8107: real time    5.8200
       DOS:  cpu time    0.0028: real time    0.0028
    CHARGE:  cpu time    1.4755: real time    1.4776
    MIXING:  cpu time    0.3730: real time    0.3736
    --------------------------------------------
      LOOP:  cpu time   19.0026: real time   19.0308

 eigenvalue-minimisations  :    40
 total energy-change (2. order) :-0.1086648E-03  (-0.1839330E-06)
 number of electron      15.9999999 magnetization 
 augmentation part        2.7749078 magnetization 

 Broyden mixing:
  rms(total) = 0.34149E-03    rms(broyden)= 0.34149E-03
  rms(prec ) = 0.34929E-03
  weight for this iteration     100.00

 eigenvalues of (default mixing * dielectric matrix)
  average eigenvalue GAMMA=   2.1609
  8.8767  5.6029  3.0521  2.3803  2.3803  2.3799  1.7289  1.2832  0.8563  0.8563
  0.9995  0.9316  0.8958  0.8564  0.7469  0.7469

 Free energy of the ion-electron system (eV)
  ---------------------------------------------------
  alpha Z        PSCENC =         0.01723541
  Ewald energy   TEWEN  =       473.05398508
  -Hartree energ DENC   =     -1253.52155093
  -exchange      EXHF   =         0.00000000
  -V(xc)+E(xc)   XCENC  =        67.92006777
  PAW double counting   =      2468.34315770    -2478.49409934
  entropy T*S    EENTRO =        -0.00000000
  eigenvalues    EBANDS =      -220.06170479
  atomic energy  EATOM  =       914.71024870
  Solvation  Ediel_sol  =         0.00000000
  ---------------------------------------------------
  free energy    TOTEN  =       -28.03266041 eV

  energy without entropy =      -28.03266041  energy(sigma->0) =      -28.03266041


--------------------------------------------------------------------------------------------------------




--------------------------------------- Iteration      1(  22)  ---------------------------------------


    POTLOK:  cpu time   11.3181: real time   11.3340
    SETDIJ:  cpu time    0.0473: real time    0.0473
     EDDAV:  cpu time    4.0671: real time    4.0735
       DOS:  cpu time    0.0039: real time    0.0039
    CHARGE:  cpu time    1.4879: real time    1.4902
    MIXING:  cpu time    0.4032: real time    0.4038
    --------------------------------------------
      LOOP:  cpu time   17.3275: real time   17.3528

 eigenvalue-minimisations  :    24
 total energy-change (2. order) :-0.6993245E-04  (-0.6435803E-07)
 number of electron      15.9999999 magnetization 
 augmentation part        2.7748935 magnetization 

 Broyden mixing:
  rms(total) = 0.15072E-03    rms(broyden)= 0.15072E-03
  rms(prec ) = 0.15687E-03
  weight for this iteration     100.00

 eigenvalues of (default mixing * dielectric matrix)
  average eigenvalue GAMMA=   2.1210
  8.8680  5.6692  3.1429  2.4974  2.4974  2.4032  1.7748  1.3148  0.8619  0.8619
  1.0537  0.9733  0.9733  0.8447  0.8447  0.7648  0.7104

 Free energy of the ion-electron system (eV)
  ---------------------------------------------------
  alpha Z        PSCENC =         0.01723541
  Ewald energy   TEWEN  =       473.05398508
  -Hartree energ DENC   =     -1253.52087854
  -exchange      EXHF   =         0.00000000
  -V(xc)+E(xc)   XCENC  =        67.92011263
  PAW double counting   =      2468.32762224    -2478.47877375
  entropy T*S    EENTRO =        -0.00000000
  eigenvalues    EBANDS =      -220.06228209
  atomic energy  EATOM  =       914.71024870
  Solvation  Ediel_sol  =         0.00000000
  ---------------------------------------------------
  free energy    TOTEN  =       -28.03273034 eV

  energy without entropy =      -28.03273034  energy(sigma->0) =      -28.03273034


--------------------------------------------------------------------------------------------------------




--------------------------------------- Iteration      1(  23)  ---------------------------------------


    POTLOK:  cpu time   11.2578: real time   11.2741
    SETDIJ:  cpu time    0.0551: real time    0.0551
     EDDAV:  cpu time    4.0547: real time    4.0614
       DOS:  cpu time    0.0025: real time    0.0025
    CHARGE:  cpu time    1.4687: real time    1.4709
    MIXING:  cpu time    0.4183: real time    0.4190
    --------------------------------------------
      LOOP:  cpu time   17.2572: real time   17.2830

 eigenvalue-minimisations  :    24
 total energy-change (2. order) :-0.3300408E-04  (-0.1269749E-07)
 number of electron      15.9999999 magnetization 
 augmentation part        2.7748839 magnetization 

 Broyden mixing:
  rms(total) = 0.39937E-04    rms(broyden)= 0.39937E-04
  rms(prec ) = 0.48597E-04
  weight for this iteration     100.00

 eigenvalues of (default mixing * dielectric matrix)
  average eigenvalue GAMMA=   2.2342
  9.2766  6.4017  4.1369  2.8072  2.4274  2.1973  2.1973  1.5985  1.3011  0.8606
  0.8606  1.0224  0.9758  0.9758  0.8481  0.8481  0.7559  0.7248

 Free energy of the ion-electron system (eV)
  ---------------------------------------------------
  alpha Z        PSCENC =         0.01723541
  Ewald energy   TEWEN  =       473.05398508
  -Hartree energ DENC   =     -1253.52342128
  -exchange      EXHF   =         0.00000000
  -V(xc)+E(xc)   XCENC  =        67.92016778
  PAW double counting   =      2468.29923473    -2478.45045965
  entropy T*S    EENTRO =        -0.00000000
  eigenvalues    EBANDS =      -220.05975412
  atomic energy  EATOM  =       914.71024870
  Solvation  Ediel_sol  =         0.00000000
  ---------------------------------------------------
  free energy    TOTEN  =       -28.03276334 eV

  energy without entropy =      -28.03276334  energy(sigma->0) =      -28.03276334


--------------------------------------------------------------------------------------------------------




--------------------------------------- Iteration      1(  24)  ---------------------------------------


    POTLOK:  cpu time   11.2451: real time   11.2614
    SETDIJ:  cpu time    0.0507: real time    0.0508
     EDDAV:  cpu time    4.0345: real time    4.0411
       DOS:  cpu time    0.0032: real time    0.0032
    CHARGE:  cpu time    1.4640: real time    1.4662
    MIXING:  cpu time    0.4182: real time    0.4189
    --------------------------------------------
      LOOP:  cpu time   17.2157: real time   17.2415

 eigenvalue-minimisations  :    24
 total energy-change (2. order) :-0.2666666E-04  (-0.1992749E-07)
 number of electron      15.9999999 magnetization 
 augmentation part        2.7748724 magnetization 

 Broyden mixing:
  rms(total) = 0.85021E-04    rms(broyden)= 0.85021E-04
  rms(prec ) = 0.86075E-04
  weight for this iteration     100.00

 eigenvalues of (default mixing * dielectric matrix)
  average eigenvalue GAMMA=   2.2163
  9.4471  6.5050  4.4489  2.8643  2.2674  2.2674  2.1493  1.8230  1.3489  1.0960
  1.0960  0.8575  0.8575  1.0110  0.8967  0.8433  0.8433  0.7536  0.7328

 Free energy of the ion-electron system (eV)
  ---------------------------------------------------
  alpha Z        PSCENC =         0.01723541
  Ewald energy   TEWEN  =       473.05398508
  -Hartree energ DENC   =     -1253.52530103
  -exchange      EXHF   =         0.00000000
  -V(xc)+E(xc)   XCENC  =        67.92017580
  PAW double counting   =      2468.28352256    -2478.43477673
  entropy T*S    EENTRO =        -0.00000000
  eigenvalues    EBANDS =      -220.05787980
  atomic energy  EATOM  =       914.71024870
  Solvation  Ediel_sol  =         0.00000000
  ---------------------------------------------------
  free energy    TOTEN  =       -28.03279001 eV

  energy without entropy =      -28.03279001  energy(sigma->0) =      -28.03279001


--------------------------------------------------------------------------------------------------------




--------------------------------------- Iteration      1(  25)  ---------------------------------------


    POTLOK:  cpu time   11.2416: real time   11.2575
    SETDIJ:  cpu time    0.0524: real time    0.0525
     EDDAV:  cpu time    4.0754: real time    4.0819
       DOS:  cpu time    0.0019: real time    0.0019
    CHARGE:  cpu time    1.4412: real time    1.4434
    MIXING:  cpu time    0.5633: real time    0.5640
    --------------------------------------------
      LOOP:  cpu time   17.3758: real time   17.4012

 eigenvalue-minimisations  :    24
 total energy-change (2. order) :-0.7764080E-05  (-0.3064850E-08)
 number of electron      15.9999999 magnetization 
 augmentation part        2.7748831 magnetization 

 Broyden mixing:
  rms(total) = 0.14670E-04    rms(broyden)= 0.14670E-04
  rms(prec ) = 0.16597E-04
  weight for this iteration     100.00

 eigenvalues of (default mixing * dielectric matrix)
  average eigenvalue GAMMA=   2.2651
  9.6159  6.6257  4.7936  2.9171  2.4963  2.4963  2.1636  2.1636  1.9975  1.1620
  1.1620  0.8588  0.8588  1.0148  0.8842  0.8842  0.8620  0.8620  0.7414  0.7414

 Free energy of the ion-electron system (eV)
  ---------------------------------------------------
  alpha Z        PSCENC =         0.01723541
  Ewald energy   TEWEN  =       473.05398508
  -Hartree energ DENC   =     -1253.52486623
  -exchange      EXHF   =         0.00000000
  -V(xc)+E(xc)   XCENC  =        67.92013521
  PAW double counting   =      2468.28139893    -2478.43261966
  entropy T*S    EENTRO =        -0.00000000
  eigenvalues    EBANDS =      -220.05831520
  atomic energy  EATOM  =       914.71024870
  Solvation  Ediel_sol  =         0.00000000
  ---------------------------------------------------
  free energy    TOTEN  =       -28.03279777 eV

  energy without entropy =      -28.03279777  energy(sigma->0) =      -28.03279777


--------------------------------------------------------------------------------------------------------




--------------------------------------- Iteration      1(  26)  ---------------------------------------


    POTLOK:  cpu time   11.2798: real time   11.2958
    SETDIJ:  cpu time    0.0491: real time    0.0492
     EDDAV:  cpu time    3.1777: real time    3.1829
       DOS:  cpu time    0.0044: real time    0.0044
    CHARGE:  cpu time    1.4381: real time    1.4403
    MIXING:  cpu time    0.5873: real time    0.5882
    --------------------------------------------
      LOOP:  cpu time   16.5364: real time   16.5607

 eigenvalue-minimisations  :    16
 total energy-change (2. order) :-0.5151651E-05  (-0.1848898E-08)
 number of electron      15.9999999 magnetization 
 augmentation part        2.7748846 magnetization 

 Broyden mixing:
  rms(total) = 0.17583E-04    rms(broyden)= 0.17583E-04
  rms(prec ) = 0.18162E-04
  weight for this iteration     100.00

 eigenvalues of (default mixing * dielectric matrix)
  average eigenvalue GAMMA=   2.2551
  9.6092  6.9723  5.0861  3.2844  2.8977  2.3929  2.3929  1.8986  1.4973  1.2826
  1.2826  1.0590  1.0590  0.8613  0.8613  0.8720  0.8720  0.8469  0.8469  0.7405
  0.7405

 Free energy of the ion-electron system (eV)
  ---------------------------------------------------
  alpha Z        PSCENC =         0.01723541
  Ewald energy   TEWEN  =       473.05398508
  -Hartree energ DENC   =     -1253.52463489
  -exchange      EXHF   =         0.00000000
  -V(xc)+E(xc)   XCENC  =        67.92011653
  PAW double counting   =      2468.28023593    -2478.43144748
  entropy T*S    EENTRO =        -0.00000000
  eigenvalues    EBANDS =      -220.05854220
  atomic energy  EATOM  =       914.71024870
  Solvation  Ediel_sol  =         0.00000000
  ---------------------------------------------------
  free energy    TOTEN  =       -28.03280292 eV

  energy without entropy =      -28.03280292  energy(sigma->0) =      -28.03280292


--------------------------------------------------------------------------------------------------------




--------------------------------------- Iteration      1(  27)  ---------------------------------------


    POTLOK:  cpu time   11.2403: real time   11.2564
    SETDIJ:  cpu time    0.0570: real time    0.0571
     EDDAV:  cpu time    4.0745: real time    4.0812
       DOS:  cpu time    0.0027: real time    0.0027
    CHARGE:  cpu time    1.4599: real time    1.4620
    MIXING:  cpu time    0.4796: real time    0.4803
    --------------------------------------------
      LOOP:  cpu time   17.3140: real time   17.3397

 eigenvalue-minimisations  :    24
 total energy-change (2. order) :-0.1886750E-05  (-0.1054064E-08)
 number of electron      15.9999999 magnetization 
 augmentation part        2.7748843 magnetization 

 Broyden mixing:
  rms(total) = 0.12944E-04    rms(broyden)= 0.12944E-04
  rms(prec ) = 0.13254E-04
  weight for this iteration     100.00

 eigenvalues of (default mixing * dielectric matrix)
  average eigenvalue GAMMA=   2.2230
  9.5863  7.1821  5.1503  3.6268  2.6313  2.2668  2.2668  2.1248  1.5362  1.5362
  1.1558  1.1558  0.9845  0.9845  0.8608  0.8608  1.0077  0.8457  0.8457  0.7428
  0.7428  0.8126

 Free energy of the ion-electron system (eV)
  ---------------------------------------------------
  alpha Z        PSCENC =         0.01723541
  Ewald energy   TEWEN  =       473.05398508
  -Hartree energ DENC   =     -1253.52481217
  -exchange      EXHF   =         0.00000000
  -V(xc)+E(xc)   XCENC  =        67.92012706
  PAW double counting   =      2468.29044152    -2478.44165503
  entropy T*S    EENTRO =        -0.00000000
  eigenvalues    EBANDS =      -220.05837537
  atomic energy  EATOM  =       914.71024870
  Solvation  Ediel_sol  =         0.00000000
  ---------------------------------------------------
  free energy    TOTEN  =       -28.03280481 eV

  energy without entropy =      -28.03280481  energy(sigma->0) =      -28.03280481


--------------------------------------------------------------------------------------------------------




--------------------------------------- Iteration      1(  28)  ---------------------------------------


    POTLOK:  cpu time   11.2619: real time   11.2782
    SETDIJ:  cpu time    0.0498: real time    0.0498
     EDDAV:  cpu time    4.0354: real time    4.0420
       DOS:  cpu time    0.0063: real time    0.0063
    CHARGE:  cpu time    1.4596: real time    1.4618
    MIXING:  cpu time    0.5987: real time    0.5996
    --------------------------------------------
      LOOP:  cpu time   17.4117: real time   17.4376

 eigenvalue-minimisations  :    24
 total energy-change (2. order) :-0.6213093E-06  (-0.5902727E-09)
 number of electron      15.9999999 magnetization 
 augmentation part        2.7748824 magnetization 

 Broyden mixing:
  rms(total) = 0.53691E-05    rms(broyden)= 0.53691E-05
  rms(prec ) = 0.57573E-05
  weight for this iteration     100.00

 eigenvalues of (default mixing * dielectric matrix)
  average eigenvalue GAMMA=   2.2626
  9.6164  7.3676  5.2876  3.7498  2.6787  2.6787  2.6156  2.4787  1.8862  1.8862
  1.2314  1.2314  0.8597  0.8597  0.9568  0.9568  0.9551  0.8410  0.8410  0.7349
  0.7513  0.7876  0.7876

 Free energy of the ion-electron system (eV)
  ---------------------------------------------------
  alpha Z        PSCENC =         0.01723541
  Ewald energy   TEWEN  =       473.05398508
  -Hartree energ DENC   =     -1253.52489909
  -exchange      EXHF   =         0.00000000
  -V(xc)+E(xc)   XCENC  =        67.92013279
  PAW double counting   =      2468.29317076    -2478.44438966
  entropy T*S    EENTRO =        -0.00000000
  eigenvalues    EBANDS =      -220.05828942
  atomic energy  EATOM  =       914.71024870
  Solvation  Ediel_sol  =         0.00000000
  ---------------------------------------------------
  free energy    TOTEN  =       -28.03280543 eV

  energy without entropy =      -28.03280543  energy(sigma->0) =      -28.03280543


--------------------------------------------------------------------------------------------------------




--------------------------------------- Iteration      1(  29)  ---------------------------------------


    POTLOK:  cpu time   11.2548: real time   11.2711
    SETDIJ:  cpu time    0.0506: real time    0.0506
     EDDAV:  cpu time    3.6199: real time    3.6257
       DOS:  cpu time    0.0039: real time    0.0039
    CHARGE:  cpu time    1.4735: real time    1.4757
    MIXING:  cpu time    0.5316: real time    0.5325
    --------------------------------------------
      LOOP:  cpu time   16.9343: real time   16.9595

 eigenvalue-minimisations  :    20
 total energy-change (2. order) :-0.9840521E-06  (-0.4864695E-09)
 number of electron      15.9999999 magnetization 
 augmentation part        2.7748809 magnetization 

 Broyden mixing:
  rms(total) = 0.73547E-05    rms(broyden)= 0.73547E-05
  rms(prec ) = 0.74802E-05
  weight for this iteration     100.00

 eigenvalues of (default mixing * dielectric matrix)
  average eigenvalue GAMMA=   2.2607
  9.6728  7.7006  5.7214  4.3296  2.9367  2.5349  2.4379  2.4379  1.7428  1.7428
  1.2779  1.2779  0.9686  0.9686  1.0043  1.0043  0.8599  0.8599  0.8582  0.8582
  0.7421  0.7421  0.7883  0.7883

 Free energy of the ion-electron system (eV)
  ---------------------------------------------------
  alpha Z        PSCENC =         0.01723541
  Ewald energy   TEWEN  =       473.05398508
  -Hartree energ DENC   =     -1253.52502632
  -exchange      EXHF   =         0.00000000
  -V(xc)+E(xc)   XCENC  =        67.92013892
  PAW double counting   =      2468.29717771    -2478.44839225
  entropy T*S    EENTRO =        -0.00000000
  eigenvalues    EBANDS =      -220.05817367
  atomic energy  EATOM  =       914.71024870
  Solvation  Ediel_sol  =         0.00000000
  ---------------------------------------------------
  free energy    TOTEN  =       -28.03280642 eV

  energy without entropy =      -28.03280642  energy(sigma->0) =      -28.03280642


--------------------------------------------------------------------------------------------------------




--------------------------------------- Iteration      1(  30)  ---------------------------------------


    POTLOK:  cpu time   11.2442: real time   11.2602
    SETDIJ:  cpu time    0.0529: real time    0.0529
     EDDAV:  cpu time    3.1647: real time    3.1697
       DOS:  cpu time    0.0049: real time    0.0049
    CHARGE:  cpu time    1.4387: real time    1.4418
    MIXING:  cpu time    0.6678: real time    0.6687
    --------------------------------------------
      LOOP:  cpu time   16.5731: real time   16.5982

 eigenvalue-minimisations  :    16
 total energy-change (2. order) :-0.2616316E-06  (-0.3951701E-09)
 number of electron      15.9999999 magnetization 
 augmentation part        2.7748818 magnetization 

 Broyden mixing:
  rms(total) = 0.60365E-05    rms(broyden)= 0.60365E-05
  rms(prec ) = 0.60877E-05
  weight for this iteration     100.00

 eigenvalues of (default mixing * dielectric matrix)
  average eigenvalue GAMMA=   2.2367
  9.6782  7.6985  5.7394  4.2856  2.8484  2.5466  2.4345  2.4345  1.9537  1.7070
  1.7070  1.2153  1.1851  1.1851  1.0398  1.0398  0.8590  0.8590  0.8739  0.8463
  0.8463  0.7558  0.7300  0.7248  0.7248

 Free energy of the ion-electron system (eV)
  ---------------------------------------------------
  alpha Z        PSCENC =         0.01723541
  Ewald energy   TEWEN  =       473.05398508
  -Hartree energ DENC   =     -1253.52491109
  -exchange      EXHF   =         0.00000000
  -V(xc)+E(xc)   XCENC  =        67.92013195
  PAW double counting   =      2468.29496531    -2478.44617412
  entropy T*S    EENTRO =        -0.00000000
  eigenvalues    EBANDS =      -220.05828790
  atomic energy  EATOM  =       914.71024870
  Solvation  Ediel_sol  =         0.00000000
  ---------------------------------------------------
  free energy    TOTEN  =       -28.03280668 eV

  energy without entropy =      -28.03280668  energy(sigma->0) =      -28.03280668


--------------------------------------------------------------------------------------------------------




--------------------------------------- Iteration      1(  31)  ---------------------------------------


    POTLOK:  cpu time   11.2350: real time   11.2510
    SETDIJ:  cpu time    0.0793: real time    0.0793
     EDDAV:  cpu time    4.0497: real time    4.0562
       DOS:  cpu time    0.0035: real time    0.0035
    --------------------------------------------
      LOOP:  cpu time   15.3674: real time   15.3900

 eigenvalue-minimisations  :    24
 total energy-change (2. order) :-0.9965629E-07  (-0.3024621E-09)
 number of electron      15.9999999 magnetization 
 augmentation part        2.7748818 magnetization 

 Free energy of the ion-electron system (eV)
  ---------------------------------------------------
  alpha Z        PSCENC =         0.01723541
  Ewald energy   TEWEN  =       473.05398508
  -Hartree energ DENC   =     -1253.52480840
  -exchange      EXHF   =         0.00000000
  -V(xc)+E(xc)   XCENC  =        67.92012646
  PAW double counting   =      2468.29219830    -2478.44340832
  entropy T*S    EENTRO =        -0.00000000
  eigenvalues    EBANDS =      -220.05838400
  atomic energy  EATOM  =       914.71024870
  Solvation  Ediel_sol  =         0.00000000
  ---------------------------------------------------
  free energy    TOTEN  =       -28.03280678 eV

  energy without entropy =      -28.03280678  energy(sigma->0) =      -28.03280678


--------------------------------------------------------------------------------------------------------




 average (electrostatic) potential at core
  the test charge radii are     0.6256  0.8742
  (the norm of the test charge is              1.0000)
       1 -41.7730       2 -41.7723       3 -40.8497       4 -41.0334       5 -91.1060
       6 -90.2804
 
 
 
 E-fermi :  -6.7627     XC(G=0):  -0.0356     alpha+bet : -0.0064


 k-point     1 :       0.0000    0.0000    0.0000
  band No.  band energies     occupation 
      1     -25.8658      2.00000
      2     -25.0507      2.00000
      3     -13.5151      2.00000
      4     -12.7025      2.00000
      5      -9.6763      2.00000
      6      -8.7829      2.00000
      7      -7.6143      2.00000
      8      -6.8216      2.00000
      9      -1.2834      0.00000
     10      -0.4131      0.00000
     11      -0.0065      0.00000
     12       0.0719      0.00000


--------------------------------------------------------------------------------------------------------


 soft charge-density along one line, spin component            1
         0         1         2         3         4         5         6         7         8         9
 total charge-density along one line
 
 pseudopotential strength for first ion, spin component:            1
 -2.351  -3.734  -0.014  -0.020   0.000
 -3.734  -5.763  -0.028  -0.040   0.001
 -0.014  -0.028  -0.114   0.015  -0.000
 -0.020  -0.040   0.015  -0.105  -0.001
  0.000   0.001  -0.000  -0.001  -0.127
 total augmentation occupancy for first ion, spin component:            1
  2.822  -0.511   0.636   0.833  -0.019
 -0.511   0.211  -0.085  -0.090   0.002
  0.636  -0.085   0.197   0.174  -0.004
  0.833  -0.090   0.174   0.297  -0.005
 -0.019   0.002  -0.004  -0.005   0.103


------------------------ aborting loop because EDIFF is reached ----------------------------------------



 DIPCOR: dipole corrections for dipol
 direction  1 min pos   396, direction  2 min pos   415, direction  3 min pos   410,
 dipolmoment          -0.297559      0.696019      0.008727 electrons x Angstroem
 Tr[quadrupol]         8.053058

 energy correction for charged system         0.000000 eV
 dipol+quadrupol energy correction            0.000403 eV
 added-field ion interaction          0.000000 eV  (added to PSCEN)

 
  *************** adding dipol energy to TOTEN NOW **************** 
    CHARGE:  cpu time    1.4626: real time    1.4649
    FORLOC:  cpu time    0.4879: real time    0.4885
    FORNL :  cpu time    0.1305: real time    0.1307
    STRESS:  cpu time    2.0709: real time    2.0741
    FORHAR:  cpu time    3.2339: real time    3.2387
    MIXING:  cpu time    0.5649: real time    0.5658
    OFIELD:  cpu time    0.0000: real time    0.0000

  FORCE on cell =-STRESS in cart. coord.  units (eV):
  Direction    XX          YY          ZZ          XY          YZ          ZX
  --------------------------------------------------------------------------------------
  Alpha Z     0.01724     0.01724     0.01724
  Ewald      40.77926   359.43245    72.84174    34.39903    -0.58490    -4.32052
  Hartree   337.63959   573.37300   342.51225    10.74101    -0.01560    -0.74761
  E(xc)     -72.15858   -71.81265   -72.04621     0.09132    -0.00227    -0.01725
  Local    -666.23730 -1194.78424  -693.21553   -37.06100     0.39682     3.66714
  n-local    27.91922    23.96746    27.26994    -0.52624     0.00973     0.18451
  augment    90.74614    85.77547    88.91255    -1.50322     0.03743     0.26779
  Kinetic   242.92571   226.80776   236.07879    -5.59135     0.14469     0.88536
  Fock        0.00000     0.00000     0.00000     0.00000     0.00000     0.00000
  -------------------------------------------------------------------------------------
  Total       1.63128     2.77648     2.37076     0.54955    -0.01410    -0.08057
  in kB       0.06096     0.10375     0.08859     0.02054    -0.00053    -0.00301
  external pressure =        0.08 kB  Pullay stress =        0.00 kB


 VOLUME and BASIS-vectors are now :
 -----------------------------------------------------------------------------
  energy-cutoff  :     1000.00
  volume of cell :    42875.00
      direct lattice vectors                 reciprocal lattice vectors
    35.000000000  0.000000000  0.000000000     0.028571429  0.000000000  0.000000000
     0.000000000 35.000000000  0.000000000     0.000000000  0.028571429  0.000000000
     0.000000000  0.000000000 35.000000000     0.000000000  0.000000000  0.028571429

  length of vectors
    35.000000000 35.000000000 35.000000000     0.028571429  0.028571429  0.028571429


 FORCES acting on ions
    electron-ion (+dipol)            ewald-force                    non-local-force                 convergence-correction
 -----------------------------------------------------------------------------------------------
   -.151E+01 0.576E+02 0.735E+02   0.168E+01 -.631E+02 -.814E+02   -.142E+00 0.455E+01 0.633E+01   -.815E-07 0.317E-07 -.204E-07
   0.148E+01 0.584E+02 -.729E+02   -.164E+01 -.640E+02 0.807E+02   0.116E+00 0.462E+01 -.628E+01   -.908E-07 0.102E-06 0.551E-07
   0.543E+01 0.752E+02 0.359E-01   -.611E+01 -.850E+02 -.381E-01   0.463E+00 0.783E+01 0.424E-02   0.184E-06 -.317E-05 0.525E-09
   -.874E+02 -.291E+02 0.175E+01   0.966E+02 0.316E+02 -.193E+01   -.750E+01 -.197E+01 0.150E+00   0.308E-05 -.242E-06 -.633E-07
   0.170E+01 0.439E+01 -.263E+00   -.220E+01 0.625E+02 0.652E+00   0.516E+00 -.649E+02 -.379E+00   -.883E-06 0.449E-05 0.119E-05
   0.357E+02 -.755E+02 -.835E+00   -.884E+02 0.118E+03 0.200E+01   0.511E+02 -.411E+02 -.113E+01   -.115E-05 -.126E-04 0.539E-07
 -----------------------------------------------------------------------------------------------
   -.446E+02 0.909E+02 0.130E+01   0.000E+00 0.000E+00 -.400E-14   0.446E+02 -.909E+02 -.130E+01   0.106E-05 -.114E-04 0.122E-05
 
 
 POSITION                                       TOTAL-FORCE (eV/Angst)
 -----------------------------------------------------------------------------------
      0.01761      0.64046     34.23865         0.027768     -0.966500     -1.570392
     34.98662      0.63163      0.75455        -0.035638     -0.983144      1.559524
      0.02409      4.02692      0.00129        -0.219131     -1.993334      0.001946
      0.98480      5.19983     34.98366         1.736718      0.546733     -0.034188
      0.00000      1.22721      0.00000         0.016765      2.057148      0.010214
      0.04724      4.98801      0.00253        -1.526482      1.339096      0.032897
 -----------------------------------------------------------------------------------
    total drift:                                0.000097     -0.000249      0.000058


--------------------------------------------------------------------------------------------------------



  FREE ENERGIE OF THE ION-ELECTRON SYSTEM (eV)
  ---------------------------------------------------
  free  energy   TOTEN  =       -28.03240370 eV

  energy  without entropy=      -28.03240370  energy(sigma->0) =      -28.03240370
 


--------------------------------------------------------------------------------------------------------


    POTLOK:  cpu time   11.2475: real time   11.2635


--------------------------------------------------------------------------------------------------------


 writing wavefunctions
     LOOP+:  cpu time  859.8602: real time  860.8953
    4ORBIT:  cpu time    0.0000: real time    0.0000

 total amount of memory used by VASP MPI-rank0  1727998. kBytes
=======================================================================

   base      :      30000. kBytes
   nonl-proj :      43099. kBytes
   fftplans  :     601440. kBytes
   grid      :    1044223. kBytes
   one-center:          1. kBytes
   wavefun   :       9235. kBytes
 
  
  
 General timing and accounting informations for this job:
 ========================================================
  
                  Total CPU time used (sec):     1234.713
                            User time (sec):     1191.554
                          System time (sec):       43.160
                         Elapsed time (sec):     1243.444
  
                   Maximum memory used (kb):     2176344.
                   Average memory used (kb):           0.
  
                          Minor page faults:     22677381
                          Major page faults:          353
                 Voluntary context switches:        36739
