 vasp.6.1.2 22Jul20 (build Jan  6 2021 09:55:43) gamma-only                      
 executed on             LinuxPGI date 2021.02.28  17:13:21
 running on   32 total cores
 distrk:  each k-point on   32 cores,    1 groups
 distr:  one band on NCORE=   8 cores,    4 groups


--------------------------------------------------------------------------------------------------------


 INCAR:
 POTCAR:    PAW_PBE H_h 06Feb2004                 
 POTCAR:    PAW_PBE O_h 06Feb2004                 
 POTCAR:    PAW_PBE H_h 06Feb2004                 
   VRHFIN =H: ultrasoft test                                                                        
   LEXCH  = PE                                                                                      
   EATOM  =    12.4884 eV,    0.9179 Ry                                                             
                                                                                                    
   TITEL  = PAW_PBE H_h 06Feb2004                                                                   
   LULTRA =        F    use ultrasoft PP ?                                                          
   IUNSCR =        0    unscreen: 0-lin 1-nonlin 2-no                                               
   RPACOR =    0.000    partial core radius                                                         
   POMASS =    1.000; ZVAL   =    1.000    mass and valenz                                          
   RCORE  =    0.800    outmost cutoff radius                                                       
   RWIGS  =    0.700; RWIGS  =    0.370    wigner-seitz radius (au A)                               
   ENMAX  =  700.000; ENMIN  =  350.000 eV                                                          
   RCLOC  =    0.701    cutoff for local pot                                                        
   LCOR   =        T    correct aug charges                                                         
   LPAW   =        T    paw PP                                                                      
   EAUG   = 1000.000                                                                                
   RMAX   =    0.819    core radius for proj-oper                                                   
   RAUG   =    1.000    factor for augmentation sphere                                              
   RDEP   =    0.817    radius for radial grids                                                     
   RDEPT  =    0.817    core radius for aug-charge                                                  
                                                                                                    
   Atomic configuration                                                                             
    2 entries                                                                                       
     n  l   j            E        occ.                                                              
     1  0  0.50        -6.4927   1.0000                                                             
     2  1  0.50        -3.4015   0.0000                                                             
   Description                                                                                      
     l       E           TYP  RCUT    TYP  RCUT                                                     
     0     -6.4927493     23  0.800                                                                 
     0      6.8029130     23  0.800                                                                 
     1     -6.8029130     23  0.800                                                                 
  local pseudopotential read in
  atomic valenz-charges read in
  non local Contribution for L=            0  read in
    real space projection operators read in
  non local Contribution for L=            0  read in
    real space projection operators read in
  non local Contribution for L=            1  read in
    real space projection operators read in
    PAW grid and wavefunctions read in
 
   number of l-projection  operators is LMAX  =            3
   number of lm-projection operators is LMMAX =            5
 
 POTCAR:    PAW_PBE O_h 06Feb2004                 
   VRHFIN =O: s2p4                                                                                  
   LEXCH  = PE                                                                                      
   EATOM  =   432.3788 eV,   31.7789 Ry                                                             
                                                                                                    
   TITEL  = PAW_PBE O_h 06Feb2004                                                                   
   LULTRA =        F    use ultrasoft PP ?                                                          
   IUNSCR =        1    unscreen: 0-lin 1-nonlin 2-no                                               
   RPACOR =    0.800    partial core radius                                                         
   POMASS =   16.000; ZVAL   =    6.000    mass and valenz                                          
   RCORE  =    1.100    outmost cutoff radius                                                       
   RWIGS  =    1.400; RWIGS  =    0.741    wigner-seitz radius (au A)                               
   ENMAX  =  700.000; ENMIN  =  500.000 eV                                                          
   ICORE  =        2    local potential                                                             
   LCOR   =        T    correct aug charges                                                         
   LPAW   =        T    paw PP                                                                      
   EAUG   =  888.804                                                                                
   DEXC   =    0.000                                                                                
   RMAX   =    1.128    core radius for proj-oper                                                   
   RAUG   =    1.300    factor for augmentation sphere                                              
   RDEP   =    1.125    radius for radial grids                                                     
   RDEPT  =    1.088    core radius for aug-charge                                                  
                                                                                                    
   Atomic configuration                                                                             
    4 entries                                                                                       
     n  l   j            E        occ.                                                              
     1  0  0.50      -514.6923   2.0000                                                             
     2  0  0.50       -23.9615   2.0000                                                             
     2  1  0.50        -9.0305   4.0000                                                             
     3  2  1.50        -9.5241   0.0000                                                             
   Description                                                                                      
     l       E           TYP  RCUT    TYP  RCUT                                                     
     0    -23.9615319     23  1.100                                                                 
     0    -25.3221145     23  1.100                                                                 
     1     -9.0304911     23  1.100                                                                 
     1     -5.4802209     23  1.100                                                                 
     2     -9.5240782      7  1.100                                                                 
  local pseudopotential read in
  partial core-charges read in
  partial kinetic energy density read in
  atomic valenz-charges read in
  non local Contribution for L=            0  read in
    real space projection operators read in
  non local Contribution for L=            0  read in
    real space projection operators read in
  non local Contribution for L=            1  read in
    real space projection operators read in
  non local Contribution for L=            1  read in
    real space projection operators read in
    PAW grid and wavefunctions read in
 
   number of l-projection  operators is LMAX  =            4
   number of lm-projection operators is LMMAX =            8
 
  PAW_PBE H_h 06Feb2004                 :
 energy of atom  1       EATOM=  -12.4884
 kinetic energy error for atom=    0.0001 (will be added to EATOM!!)
  PAW_PBE O_h 06Feb2004                 :
 energy of atom  2       EATOM= -432.3788
 kinetic energy error for atom=    0.0016 (will be added to EATOM!!)
 
 
 POSCAR:  H  O
  positions in cartesian coordinates
  No initial velocities read in
 exchange correlation table for  LEXCH =        8
   RHO(1)=    0.500       N(1)  =     2000
   RHO(2)=  100.500       N(2)  =     4000
 


--------------------------------------------------------------------------------------------------------


 ion  position               nearest neighbor table
   1  0.001  0.018  0.978-   5 0.96
   2  1.000  0.018  0.022-   5 0.96
   3  0.001  0.175  0.000-   6 0.96
   4  0.028  0.209  1.000-   6 0.96
   5  0.000  0.035  0.000-   1 0.96   2 0.96
   6  0.001  0.203  0.000-   3 0.96   4 0.96
 
  LATTYP: Found a simple cubic cell.
 ALAT       =    35.0000000000
  
  Lattice vectors:
  
 A1 = (  35.0000000000,   0.0000000000,   0.0000000000)
 A2 = (   0.0000000000,  35.0000000000,   0.0000000000)
 A3 = (   0.0000000000,   0.0000000000,  35.0000000000)


Analysis of symmetry for initial positions (statically):
=====================================================================
 Subroutine PRICEL returns:
 Original cell was already a primitive cell.
 

 Routine SETGRP: Setting up the symmetry group for a 
 simple cubic supercell.


 Subroutine GETGRP returns: Found  1 space group operations
 (whereof  1 operations were pure point group operations)
 out of a pool of 48 trial point group operations.


The static configuration has the point symmetry C_1 .


Analysis of symmetry for dynamics (positions and initial velocities):
=====================================================================
 Subroutine PRICEL returns:
 Original cell was already a primitive cell.
 

 Routine SETGRP: Setting up the symmetry group for a 
 simple cubic supercell.


 Subroutine GETGRP returns: Found  1 space group operations
 (whereof  1 operations were pure point group operations)
 out of a pool of 48 trial point group operations.


The dynamic configuration has the point symmetry C_1 .


 Subroutine INISYM returns: Found  1 space group operations
 (whereof  1 operations are pure point group operations),
 and found     1 'primitive' translations


----------------------------------------------------------------------------------------

                                     Primitive cell                                     

  volume of cell :   42875.0000

  direct lattice vectors                    reciprocal lattice vectors
    35.000000000  0.000000000  0.000000000     0.028571429  0.000000000  0.000000000
     0.000000000 35.000000000  0.000000000     0.000000000  0.028571429  0.000000000
     0.000000000  0.000000000 35.000000000     0.000000000  0.000000000  0.028571429

  length of vectors
    35.000000000 35.000000000 35.000000000     0.028571429  0.028571429  0.028571429

  position of ions in fractional coordinates (direct lattice)
     0.000503079  0.018298976  0.978247097
     0.999617776  0.018046666  0.021558586
     0.000688177  0.175054716  0.000036905
     0.028137029  0.208566495  0.999533239
     0.000000000  0.035063029  0.000000000
     0.001349770  0.202514438  0.000072384

  ion indices of the primitive-cell ions
   primitive index   ion index
                 1           1
                 2           2
                 3           3
                 4           4
                 5           5
                 6           6

----------------------------------------------------------------------------------------

 
 
 KPOINTS: automatic mesh                          

Automatic generation of k-mesh.
Space group operators:
 irot       det(A)        alpha          n_x          n_y          n_z        tau_x        tau_y        tau_z
    1     1.000000     0.000000     1.000000     0.000000     0.000000     0.000000     0.000000     0.000000
 
 Subroutine IBZKPT returns following result:
 ===========================================
 
 Found      1 irreducible k-points:
 
 Following reciprocal coordinates:
            Coordinates               Weight
  0.000000  0.000000  0.000000      1.000000
 
 Following cartesian coordinates:
            Coordinates               Weight
  0.000000  0.000000  0.000000      1.000000
 


--------------------------------------------------------------------------------------------------------




 Dimension of arrays:
   k-points           NKPTS =      1   k-points in BZ     NKDIM =      1   number of bands    NBANDS=     12
   number of dos      NEDOS =    301   number of ions     NIONS =      6
   non local maximal  LDIM  =      4   non local SUM 2l+1 LMDIM =      8
   total plane-waves  NPLWV = ******
   max r-space proj   IRMAX =      1   max aug-charges    IRDMAX=  23028
   dimension x,y,z NGX =   512 NGY =  512 NGZ =  512
   dimension x,y,z NGXF=  1024 NGYF= 1024 NGZF= 1024
   support grid    NGXF=  1024 NGYF= 1024 NGZF= 1024
   ions per type =               4   2
   NGX,Y,Z   is equivalent  to a cutoff of  24.32, 24.32, 24.32 a.u.
   NGXF,Y,Z  is equivalent  to a cutoff of  48.64, 48.64, 48.64 a.u.

 SYSTEM =  C                                       
 POSCAR =   H  O                                   

 Startparameter for this run:
   NWRITE =      2    write-flag & timer
   PREC   = acc       normal or accurate (medium, high low for compatibility)
   ISTART =      0    job   : 0-new  1-cont  2-samecut
   ICHARG =      2    charge: 1-file 2-atom 10-const
   ISPIN  =      1    spin polarized calculation?
   LNONCOLLINEAR =      F non collinear calculations
   LSORBIT =      F    spin-orbit coupling
   INIWAV =      1    electr: 0-lowe 1-rand  2-diag
   LASPH  =      T    aspherical Exc in radial PAW
   METAGGA=      F    non-selfconsistent MetaGGA calc.

 Electronic Relaxation 1
   ENCUT  = 2000.0 eV 147.00 Ry   12.12 a.u. 127.63127.63127.63*2*pi/ulx,y,z
   ENINI  = 2000.0     initial cutoff
   ENAUG  = 1000.0 eV  augmentation charge cutoff
   NELM   =     60;   NELMIN=  2; NELMDL= -5     # of ELM steps 
   EDIFF  = 0.1E-06   stopping-criterion for ELM
   LREAL  =      F    real-space projection
   NLSPLINE    = F    spline interpolate recip. space projectors
   LCOMPAT=      F    compatible to vasp.4.4
   GGA_COMPAT  = T    GGA compatible to vasp.4.4-vasp.4.6
   LMAXPAW     = -100 max onsite density
   LMAXMIX     =    2 max onsite mixed and CHGCAR
   VOSKOWN=      0    Vosko Wilk Nusair interpolation
   ROPT   =    0.00000   0.00000
 Ionic relaxation
   EDIFFG = 0.1E-05   stopping-criterion for IOM
   NSW    =      0    number of steps for IOM
   NBLOCK =      1;   KBLOCK =      1    inner block; outer block 
   IBRION =     -1    ionic relax: 0-MD 1-quasi-New 2-CG
   NFREE  =      0    steps in history (QN), initial steepest desc. (CG)
   ISIF   =      2    stress and relaxation
   IWAVPR =     10    prediction:  0-non 1-charg 2-wave 3-comb
   ISYM   =      2    0-nonsym 1-usesym 2-fastsym
   LCORR  =      T    Harris-Foulkes like correction to forces

   POTIM  = 0.5000    time-step for ionic-motion
   TEIN   =    0.0    initial temperature
   TEBEG  =    0.0;   TEEND  =   0.0 temperature during run
   SMASS  =  -3.00    Nose mass-parameter (am)
   estimated Nose-frequenzy (Omega)   =  0.10E-29 period in steps = 0.13E+47 mass=  -0.280E-25a.u.
   SCALEE = 1.0000    scale energy and forces
   NPACO  =    256;   APACO  = 16.0  distance and # of slots for P.C.
   PSTRESS=    0.0 pullay stress

  Mass of Ions in am
   POMASS =   1.00 16.00
  Ionic Valenz
   ZVAL   =   1.00  6.00
  Atomic Wigner-Seitz radii
   RWIGS  =  -1.00 -1.00
  virtual crystal weights 
   VCA    =   1.00  1.00
   NELECT =      16.0000    total number of electrons
   NUPDOWN=      -1.0000    fix difference up-down

 DOS related values:
   EMIN   =  10.00;   EMAX   =-10.00  energy-range for DOS
   EFERMI =   0.00
   ISMEAR =     0;   SIGMA  =   0.01  broadening in eV -4-tet -1-fermi 0-gaus

 Electronic relaxation 2 (details)
   IALGO  =     38    algorithm
   LDIAG  =      T    sub-space diagonalisation (order eigenvalues)
   LSUBROT=      F    optimize rotation matrix (better conditioning)
   TURBO    =      0    0=normal 1=particle mesh
   IRESTART =      0    0=no restart 2=restart with 2 vectors
   NREBOOT  =      0    no. of reboots
   NMIN     =      0    reboot dimension
   EREF     =   0.00    reference energy to select bands
   IMIX   =      4    mixing-type and parameters
     AMIX     =   0.40;   BMIX     =  1.00
     AMIX_MAG =   1.60;   BMIX_MAG =  1.00
     AMIN     =   0.10
     WC   =   100.;   INIMIX=   1;  MIXPRE=   1;  MAXMIX= -45

 Intra band minimization:
   WEIMIN = 0.0000     energy-eigenvalue tresh-hold
   EBREAK =  0.21E-08  absolut break condition
   DEPER  =   0.30     relativ break condition  

   TIME   =   0.40     timestep for ELM

  volume/ion in A,a.u.               =    7145.83     48222.46
  Fermi-wavevector in a.u.,A,eV,Ry     =   0.117864  0.222730  0.189010  0.013892
  Thomas-Fermi vector in A             =   0.732055
 
 Write flags
   LWAVE        =      T    write WAVECAR
   LDOWNSAMPLE  =      F    k-point downsampling of WAVECAR
   LCHARG       =      T    write CHGCAR
   LVTOT        =      F    write LOCPOT, total local potential
   LVHAR        =      F    write LOCPOT, Hartree potential only
   LELF         =      F    write electronic localiz. function (ELF)
   LORBIT       =      0    0 simple, 1 ext, 2 COOP (PROOUT), +10 PAW based schemes


 Dipole corrections
   LMONO  =      F    monopole corrections only (constant potential shift)
   LDIPOL =      F    correct potential (dipole corrections)
   IDIPOL =      4    1-x, 2-y, 3-z, 4-all directions 
   EPSILON=  1.0000000 bulk dielectric constant

 Exchange correlation treatment:
   GGA     =    --    GGA type
   LEXCH   =     8    internal setting for exchange type
   VOSKOWN=      0    Vosko Wilk Nusair interpolation
   LHFCALC =     F    Hartree Fock is set to
   LHFONE  =     F    Hartree Fock one center treatment
   AEXX    =    0.0000 exact exchange contribution

 Linear response parameters
   LEPSILON=     F    determine dielectric tensor
   LRPA    =     F    only Hartree local field effects (RPA)
   LNABLA  =     F    use nabla operator in PAW spheres
   LVEL    =     F    velocity operator in full k-point grid
   LINTERFAST=   F  fast interpolation
   KINTER  =     0    interpolate to denser k-point grid
   CSHIFT  =0.1000    complex shift for real part using Kramers Kronig
   OMEGAMAX=  -1.0    maximum frequency
   DEG_THRESHOLD= 0.2000000E-02 threshold for treating states as degnerate
   RTIME   =   -0.100 relaxation time in fs
  (WPLASMAI=    0.000 imaginary part of plasma frequency in eV, 0.658/RTIME)
   DFIELD  = 0.0000000 0.0000000 0.0000000 field for delta impulse in time
 
 Orbital magnetization related:
   ORBITALMAG=     F  switch on orbital magnetization
   LCHIMAG   =     F  perturbation theory with respect to B field
   DQ        =  0.001000  dq finite difference perturbation B field
   LLRAUG    =     F  two centre corrections for induced B field



--------------------------------------------------------------------------------------------------------


 Static calculation
 charge density and potential will be updated during run
 non-spin polarized calculation
 Variant of blocked Davidson
 Davidson routine will perform the subspace rotation
 perform sub-space diagonalisation
    after iterative eigenvector-optimisation
 modified Broyden-mixing scheme, WC =      100.0
 initial mixing is a Kerker type mixing with AMIX =  0.4000 and BMIX =      1.0000
 Hartree-type preconditioning will be used
 using additional bands             4
 reciprocal scheme for non local part
 use partial core corrections
 calculate Harris-corrections to forces 
   (improved forces if not selfconsistent)
 use gradient corrections 
 use of overlap-Matrix (Vanderbilt PP)
 Gauss-broadening in eV      SIGMA  =   0.01


--------------------------------------------------------------------------------------------------------


  energy-cutoff  :     2000.00
  volume of cell :    42875.00
      direct lattice vectors                 reciprocal lattice vectors
    35.000000000  0.000000000  0.000000000     0.028571429  0.000000000  0.000000000
     0.000000000 35.000000000  0.000000000     0.000000000  0.028571429  0.000000000
     0.000000000  0.000000000 35.000000000     0.000000000  0.000000000  0.028571429

  length of vectors
    35.000000000 35.000000000 35.000000000     0.028571429  0.028571429  0.028571429


 
 k-points in units of 2pi/SCALE and weight: automatic mesh                          
   0.00000000  0.00000000  0.00000000       1.000
 
 k-points in reciprocal lattice and weights: automatic mesh                          
   0.00000000  0.00000000  0.00000000       1.000
 
 position of ions in fractional coordinates (direct lattice) 
   0.00050308  0.01829898  0.97824710
   0.99961778  0.01804667  0.02155859
   0.00068818  0.17505472  0.00003690
   0.02813703  0.20856649  0.99953324
   0.00000000  0.03506303  0.00000000
   0.00134977  0.20251444  0.00007238
 
 position of ions in cartesian coordinates  (Angst):
   0.01760775  0.64046416 34.23864840
  34.98662216  0.63163330  0.75455051
   0.02408619  6.12691505  0.00129166
   0.98479602  7.29982731 34.98366338
   0.00000000  1.22720600  0.00000000
   0.04724194  7.08800534  0.00253342
 


--------------------------------------------------------------------------------------------------------


 use parallel FFT for orbitals z direction half grid
 k-point   1 :   0.0000 0.0000 0.0000  plane waves: 4353902

 maximum and minimum number of plane-waves per node :    544247   544233

 maximum number of plane-waves:   4353902
 maximum index in each direction: 
   IXMAX=  127   IYMAX=  127   IZMAX=  127
   IXMIN= -127   IYMIN= -127   IZMIN=    0


 parallel 3D FFT for wavefunctions:
    minimum data exchange during FFTs selected (reduces bandwidth)
 parallel 3D FFT for charge:
    minimum data exchange during FFTs selected (reduces bandwidth)


 total amount of memory used by VASP MPI-rank0  4207116. kBytes
=======================================================================

   base      :      30000. kBytes
   nonl-proj :     121908. kBytes
   fftplans  :    1475802. kBytes
   grid      :    2553282. kBytes
   one-center:          1. kBytes
   wavefun   :      26123. kBytes
 
     INWAV:  cpu time    0.0000: real time    0.0000
 Broyden mixing: mesh for mixing (old mesh)
   NGX =255   NGY =255   NGZ =255
  (NGX  =***   NGY  =***   NGZ  =***)
  gives a total of ****** points

 initial charge density was supplied:
 charge density of overlapping atoms calculated
 number of electron      16.0000000 magnetization 
 keeping initial charge density in first step


--------------------------------------------------------------------------------------------------------


 Maximum index for augmentation-charges           955 (set IRDMAX)


--------------------------------------------------------------------------------------------------------


 First call to EWALD:  gamma=   0.051
 Maximum number of real-space cells 3x 3x 3
 Maximum number of reciprocal cells 3x 3x 3

    FEWALD:  cpu time    0.0010: real time    0.0010


--------------------------------------- Iteration      1(   1)  ---------------------------------------


    POTLOK:  cpu time   27.3842: real time   27.4241
    SETDIJ:  cpu time    0.0497: real time    0.0512
     EDDAV:  cpu time   14.7068: real time   15.1267
       DOS:  cpu time    0.0021: real time    0.0021
    --------------------------------------------
      LOOP:  cpu time   42.1429: real time   42.6041

 eigenvalue-minimisations  :    40
 total energy-change (2. order) : 0.1534266E+03  (-0.3160102E+03)
 number of electron      16.0000000 magnetization 
 augmentation part       16.0000000 magnetization 

 Free energy of the ion-electron system (eV)
  ---------------------------------------------------
  alpha Z        PSCENC =         0.01522463
  Ewald energy   TEWEN  =       386.90714108
  -Hartree energ DENC   =     -1100.06634524
  -exchange      EXHF   =         0.00000000
  -V(xc)+E(xc)   XCENC  =        61.05516223
  PAW double counting   =       697.41634940     -699.85762974
  entropy T*S    EENTRO =        -0.00000000
  eigenvalues    EBANDS =      -106.75102538
  atomic energy  EATOM  =       914.70769713
  Solvation  Ediel_sol  =         0.00000000
  ---------------------------------------------------
  free energy    TOTEN  =       153.42657412 eV

  energy without entropy =      153.42657412  energy(sigma->0) =      153.42657412


--------------------------------------------------------------------------------------------------------




--------------------------------------- Iteration      1(   2)  ---------------------------------------


     EDDAV:  cpu time   14.7241: real time   14.7468
       DOS:  cpu time    0.0011: real time    0.0011
    --------------------------------------------
      LOOP:  cpu time   14.7252: real time   14.7479

 eigenvalue-minimisations  :    40
 total energy-change (2. order) :-0.7601137E+02  (-0.7588484E+02)
 number of electron      16.0000000 magnetization 
 augmentation part       16.0000000 magnetization 

 Free energy of the ion-electron system (eV)
  ---------------------------------------------------
  alpha Z        PSCENC =         0.01522463
  Ewald energy   TEWEN  =       386.90714108
  -Hartree energ DENC   =     -1100.06634524
  -exchange      EXHF   =         0.00000000
  -V(xc)+E(xc)   XCENC  =        61.05516223
  PAW double counting   =       697.41634940     -699.85762974
  entropy T*S    EENTRO =        -0.00000000
  eigenvalues    EBANDS =      -182.76239758
  atomic energy  EATOM  =       914.70769713
  Solvation  Ediel_sol  =         0.00000000
  ---------------------------------------------------
  free energy    TOTEN  =        77.41520192 eV

  energy without entropy =       77.41520192  energy(sigma->0) =       77.41520192


--------------------------------------------------------------------------------------------------------




--------------------------------------- Iteration      1(   3)  ---------------------------------------


     EDDAV:  cpu time   16.9312: real time   16.9573
       DOS:  cpu time    0.0021: real time    0.0021
    --------------------------------------------
      LOOP:  cpu time   16.9334: real time   16.9594

 eigenvalue-minimisations  :    48
 total energy-change (2. order) :-0.7822287E+02  (-0.7579687E+02)
 number of electron      16.0000000 magnetization 
 augmentation part       16.0000000 magnetization 

 Free energy of the ion-electron system (eV)
  ---------------------------------------------------
  alpha Z        PSCENC =         0.01522463
  Ewald energy   TEWEN  =       386.90714108
  -Hartree energ DENC   =     -1100.06634524
  -exchange      EXHF   =         0.00000000
  -V(xc)+E(xc)   XCENC  =        61.05516223
  PAW double counting   =       697.41634940     -699.85762974
  entropy T*S    EENTRO =        -0.00000000
  eigenvalues    EBANDS =      -260.98526588
  atomic energy  EATOM  =       914.70769713
  Solvation  Ediel_sol  =         0.00000000
  ---------------------------------------------------
  free energy    TOTEN  =        -0.80766639 eV

  energy without entropy =       -0.80766639  energy(sigma->0) =       -0.80766639


--------------------------------------------------------------------------------------------------------




--------------------------------------- Iteration      1(   4)  ---------------------------------------


     EDDAV:  cpu time   13.5036: real time   13.5247
       DOS:  cpu time    0.0105: real time    0.0105
    --------------------------------------------
      LOOP:  cpu time   13.5141: real time   13.5352

 eigenvalue-minimisations  :    36
 total energy-change (2. order) :-0.2732730E+02  (-0.2718937E+02)
 number of electron      16.0000000 magnetization 
 augmentation part       16.0000000 magnetization 

 Free energy of the ion-electron system (eV)
  ---------------------------------------------------
  alpha Z        PSCENC =         0.01522463
  Ewald energy   TEWEN  =       386.90714108
  -Hartree energ DENC   =     -1100.06634524
  -exchange      EXHF   =         0.00000000
  -V(xc)+E(xc)   XCENC  =        61.05516223
  PAW double counting   =       697.41634940     -699.85762974
  entropy T*S    EENTRO =        -0.00000000
  eigenvalues    EBANDS =      -288.31256151
  atomic energy  EATOM  =       914.70769713
  Solvation  Ediel_sol  =         0.00000000
  ---------------------------------------------------
  free energy    TOTEN  =       -28.13496201 eV

  energy without entropy =      -28.13496201  energy(sigma->0) =      -28.13496201


--------------------------------------------------------------------------------------------------------




--------------------------------------- Iteration      1(   5)  ---------------------------------------


     EDDAV:  cpu time   12.4184: real time   12.4376
       DOS:  cpu time    0.0015: real time    0.0015
    CHARGE:  cpu time    3.6732: real time    3.6783
    MIXING:  cpu time    0.5660: real time    0.5668
    --------------------------------------------
      LOOP:  cpu time   16.6592: real time   16.6841

 eigenvalue-minimisations  :    32
 total energy-change (2. order) :-0.4532784E+01  (-0.4531188E+01)
 number of electron      16.0000000 magnetization 
 augmentation part        0.2202731 magnetization 

 Broyden mixing:
  rms(total) = 0.19925E+01    rms(broyden)= 0.19925E+01
  rms(prec ) = 0.20133E+01
  weight for this iteration     100.00

 Free energy of the ion-electron system (eV)
  ---------------------------------------------------
  alpha Z        PSCENC =         0.01522463
  Ewald energy   TEWEN  =       386.90714108
  -Hartree energ DENC   =     -1100.06634524
  -exchange      EXHF   =         0.00000000
  -V(xc)+E(xc)   XCENC  =        61.05516223
  PAW double counting   =       697.41634940     -699.85762974
  entropy T*S    EENTRO =        -0.00000000
  eigenvalues    EBANDS =      -292.84534556
  atomic energy  EATOM  =       914.70769713
  Solvation  Ediel_sol  =         0.00000000
  ---------------------------------------------------
  free energy    TOTEN  =       -32.66774606 eV

  energy without entropy =      -32.66774606  energy(sigma->0) =      -32.66774606


--------------------------------------------------------------------------------------------------------




--------------------------------------- Iteration      1(   6)  ---------------------------------------


    POTLOK:  cpu time   27.2195: real time   27.2582
    SETDIJ:  cpu time    0.0476: real time    0.0476
     EDDAV:  cpu time   12.4606: real time   12.4798
       DOS:  cpu time    0.0084: real time    0.0085
    CHARGE:  cpu time    3.5725: real time    3.5774
    MIXING:  cpu time    0.5635: real time    0.5770
    --------------------------------------------
      LOOP:  cpu time   43.8721: real time   43.9485

 eigenvalue-minimisations  :    32
 total energy-change (2. order) : 0.3752564E+01  (-0.1578165E+01)
 number of electron      16.0000000 magnetization 
 augmentation part        0.1316807 magnetization 

 Broyden mixing:
  rms(total) = 0.21148E+01    rms(broyden)= 0.21148E+01
  rms(prec ) = 0.21166E+01
  weight for this iteration     100.00

 eigenvalues of (default mixing * dielectric matrix)
  average eigenvalue GAMMA=   0.2976
  0.2976

 Free energy of the ion-electron system (eV)
  ---------------------------------------------------
  alpha Z        PSCENC =         0.01522463
  Ewald energy   TEWEN  =       386.90714108
  -Hartree energ DENC   =     -1148.32959405
  -exchange      EXHF   =         0.00000000
  -V(xc)+E(xc)   XCENC  =        63.68344162
  PAW double counting   =      1628.96435546    -1632.05536585
  entropy T*S    EENTRO =        -0.00000000
  eigenvalues    EBANDS =      -242.80808212
  atomic energy  EATOM  =       914.70769713
  Solvation  Ediel_sol  =         0.00000000
  ---------------------------------------------------
  free energy    TOTEN  =       -28.91518210 eV

  energy without entropy =      -28.91518210  energy(sigma->0) =      -28.91518210


--------------------------------------------------------------------------------------------------------




--------------------------------------- Iteration      1(   7)  ---------------------------------------


    POTLOK:  cpu time   27.2037: real time   27.2426
    SETDIJ:  cpu time    0.0536: real time    0.0536
     EDDAV:  cpu time   12.4464: real time   12.4655
       DOS:  cpu time    0.0011: real time    0.0011
    CHARGE:  cpu time    3.6109: real time    3.6161
    MIXING:  cpu time    0.7186: real time    0.7196
    --------------------------------------------
      LOOP:  cpu time   44.0343: real time   44.0986

 eigenvalue-minimisations  :    32
 total energy-change (2. order) : 0.4345964E-01  (-0.6477868E-01)
 number of electron      16.0000000 magnetization 
 augmentation part        0.1312415 magnetization 

 Broyden mixing:
  rms(total) = 0.19841E+01    rms(broyden)= 0.19841E+01
  rms(prec ) = 0.19854E+01
  weight for this iteration     100.00

 eigenvalues of (default mixing * dielectric matrix)
  average eigenvalue GAMMA=   1.1868
  1.1868  1.1868

 Free energy of the ion-electron system (eV)
  ---------------------------------------------------
  alpha Z        PSCENC =         0.01522463
  Ewald energy   TEWEN  =       386.90714108
  -Hartree energ DENC   =     -1151.73423253
  -exchange      EXHF   =         0.00000000
  -V(xc)+E(xc)   XCENC  =        63.86700455
  PAW double counting   =      2183.15998738    -2186.24521897
  entropy T*S    EENTRO =        -0.00000000
  eigenvalues    EBANDS =      -239.54932574
  atomic energy  EATOM  =       914.70769713
  Solvation  Ediel_sol  =         0.00000000
  ---------------------------------------------------
  free energy    TOTEN  =       -28.87172246 eV

  energy without entropy =      -28.87172246  energy(sigma->0) =      -28.87172246


--------------------------------------------------------------------------------------------------------




--------------------------------------- Iteration      1(   8)  ---------------------------------------


    POTLOK:  cpu time   27.2111: real time   27.2501
    SETDIJ:  cpu time    0.0500: real time    0.0500
     EDDAV:  cpu time   12.4223: real time   12.4413
       DOS:  cpu time    0.0039: real time    0.0039
    CHARGE:  cpu time    3.5478: real time    3.5527
    MIXING:  cpu time    0.6629: real time    0.6639
    --------------------------------------------
      LOOP:  cpu time   43.8980: real time   43.9618

 eigenvalue-minimisations  :    32
 total energy-change (2. order) : 0.1731444E+00  (-0.1022018E-01)
 number of electron      16.0000000 magnetization 
 augmentation part        0.1364465 magnetization 

 Broyden mixing:
  rms(total) = 0.52008E+00    rms(broyden)= 0.52008E+00
  rms(prec ) = 0.52214E+00
  weight for this iteration     100.00

 eigenvalues of (default mixing * dielectric matrix)
  average eigenvalue GAMMA=   1.3179
  2.1425  0.9056  0.9056

 Free energy of the ion-electron system (eV)
  ---------------------------------------------------
  alpha Z        PSCENC =         0.01522463
  Ewald energy   TEWEN  =       386.90714108
  -Hartree energ DENC   =     -1157.04072865
  -exchange      EXHF   =         0.00000000
  -V(xc)+E(xc)   XCENC  =        64.17699814
  PAW double counting   =      5029.52429222    -5032.55327960
  entropy T*S    EENTRO =        -0.00000000
  eigenvalues    EBANDS =      -234.43592303
  atomic energy  EATOM  =       914.70769713
  Solvation  Ediel_sol  =         0.00000000
  ---------------------------------------------------
  free energy    TOTEN  =       -28.69857808 eV

  energy without entropy =      -28.69857808  energy(sigma->0) =      -28.69857808


--------------------------------------------------------------------------------------------------------




--------------------------------------- Iteration      1(   9)  ---------------------------------------


    POTLOK:  cpu time   27.2569: real time   27.2949
    SETDIJ:  cpu time    0.0499: real time    0.0499
     EDDAV:  cpu time   14.6733: real time   14.6968
       DOS:  cpu time    0.0002: real time    0.0002
    CHARGE:  cpu time    3.6503: real time    3.6553
    MIXING:  cpu time    0.6368: real time    0.6379
    --------------------------------------------
      LOOP:  cpu time   46.2674: real time   46.3350

 eigenvalue-minimisations  :    40
 total energy-change (2. order) : 0.1053924E+00  (-0.1121379E-01)
 number of electron      16.0000000 magnetization 
 augmentation part        0.1310922 magnetization 

 Broyden mixing:
  rms(total) = 0.37508E+00    rms(broyden)= 0.37508E+00
  rms(prec ) = 0.37557E+00
  weight for this iteration     100.00

 eigenvalues of (default mixing * dielectric matrix)
  average eigenvalue GAMMA=   1.4197
  1.9916  1.6781  1.0045  1.0045

 Free energy of the ion-electron system (eV)
  ---------------------------------------------------
  alpha Z        PSCENC =         0.01522463
  Ewald energy   TEWEN  =       386.90714108
  -Hartree energ DENC   =     -1166.01823504
  -exchange      EXHF   =         0.00000000
  -V(xc)+E(xc)   XCENC  =        64.69545845
  PAW double counting   =      7214.50648486    -7217.54027058
  entropy T*S    EENTRO =        -0.00000000
  eigenvalues    EBANDS =      -225.86668622
  atomic energy  EATOM  =       914.70769713
  Solvation  Ediel_sol  =         0.00000000
  ---------------------------------------------------
  free energy    TOTEN  =       -28.59318570 eV

  energy without entropy =      -28.59318570  energy(sigma->0) =      -28.59318570


--------------------------------------------------------------------------------------------------------




--------------------------------------- Iteration      1(  10)  ---------------------------------------


    POTLOK:  cpu time   27.3418: real time   27.3800
    SETDIJ:  cpu time    0.0773: real time    0.0773
     EDDAV:  cpu time   14.7565: real time   14.7796
       DOS:  cpu time    0.0025: real time    0.0025
    CHARGE:  cpu time    3.6752: real time    3.6805
    MIXING:  cpu time    0.7078: real time    0.7089
    --------------------------------------------
      LOOP:  cpu time   46.5611: real time   46.6288

 eigenvalue-minimisations  :    40
 total energy-change (2. order) : 0.8486314E-02  (-0.1172296E-02)
 number of electron      16.0000000 magnetization 
 augmentation part        0.1297035 magnetization 

 Broyden mixing:
  rms(total) = 0.15497E+00    rms(broyden)= 0.15497E+00
  rms(prec ) = 0.15546E+00
  weight for this iteration     100.00

 eigenvalues of (default mixing * dielectric matrix)
  average eigenvalue GAMMA=   1.6546
  3.0182  2.4964  0.9465  0.9465  0.8654

 Free energy of the ion-electron system (eV)
  ---------------------------------------------------
  alpha Z        PSCENC =         0.01522463
  Ewald energy   TEWEN  =       386.90714108
  -Hartree energ DENC   =     -1168.22438401
  -exchange      EXHF   =         0.00000000
  -V(xc)+E(xc)   XCENC  =        64.77958067
  PAW double counting   =      6790.44337582    -6793.46036873
  entropy T*S    EENTRO =        -0.00000000
  eigenvalues    EBANDS =      -223.75296598
  atomic energy  EATOM  =       914.70769713
  Solvation  Ediel_sol  =         0.00000000
  ---------------------------------------------------
  free energy    TOTEN  =       -28.58469938 eV

  energy without entropy =      -28.58469938  energy(sigma->0) =      -28.58469938


--------------------------------------------------------------------------------------------------------




--------------------------------------- Iteration      1(  11)  ---------------------------------------


    POTLOK:  cpu time   27.2932: real time   27.3339
    SETDIJ:  cpu time    0.0492: real time    0.0493
     EDDAV:  cpu time   14.7123: real time   14.7362
       DOS:  cpu time    0.0012: real time    0.0012
    CHARGE:  cpu time    3.5840: real time    3.5892
    MIXING:  cpu time    0.8091: real time    0.8103
    --------------------------------------------
      LOOP:  cpu time   46.4489: real time   46.5201

 eigenvalue-minimisations  :    40
 total energy-change (2. order) : 0.5796758E-03  (-0.1306500E-02)
 number of electron      16.0000000 magnetization 
 augmentation part        0.1277493 magnetization 

 Broyden mixing:
  rms(total) = 0.11393E+00    rms(broyden)= 0.11393E+00
  rms(prec ) = 0.11412E+00
  weight for this iteration     100.00

 eigenvalues of (default mixing * dielectric matrix)
  average eigenvalue GAMMA=   1.6308
  3.5527  2.3590  0.9791  0.9791  1.0445  0.8702

 Free energy of the ion-electron system (eV)
  ---------------------------------------------------
  alpha Z        PSCENC =         0.01522463
  Ewald energy   TEWEN  =       386.90714108
  -Hartree energ DENC   =     -1171.06274609
  -exchange      EXHF   =         0.00000000
  -V(xc)+E(xc)   XCENC  =        64.88109987
  PAW double counting   =      6215.32604797    -6218.32535144
  entropy T*S    EENTRO =        -0.00000000
  eigenvalues    EBANDS =      -221.03323286
  atomic energy  EATOM  =       914.70769713
  Solvation  Ediel_sol  =         0.00000000
  ---------------------------------------------------
  free energy    TOTEN  =       -28.58411971 eV

  energy without entropy =      -28.58411971  energy(sigma->0) =      -28.58411971


--------------------------------------------------------------------------------------------------------




--------------------------------------- Iteration      1(  12)  ---------------------------------------


    POTLOK:  cpu time   27.3327: real time   27.3706
    SETDIJ:  cpu time    0.0570: real time    0.0570
     EDDAV:  cpu time   14.6768: real time   14.6996
       DOS:  cpu time    0.0008: real time    0.0008
    CHARGE:  cpu time    3.6845: real time    3.6894
    MIXING:  cpu time    0.7235: real time    0.7247
    --------------------------------------------
      LOOP:  cpu time   46.4753: real time   46.5420

 eigenvalue-minimisations  :    40
 total energy-change (2. order) :-0.3329473E-02  (-0.5846704E-04)
 number of electron      16.0000000 magnetization 
 augmentation part        0.1280820 magnetization 

 Broyden mixing:
  rms(total) = 0.93578E-01    rms(broyden)= 0.93578E-01
  rms(prec ) = 0.93725E-01
  weight for this iteration     100.00

 eigenvalues of (default mixing * dielectric matrix)
  average eigenvalue GAMMA=   1.5222
  2.7464  2.7464  1.2017  1.2017  0.9721  0.9721  0.8152

 Free energy of the ion-electron system (eV)
  ---------------------------------------------------
  alpha Z        PSCENC =         0.01522463
  Ewald energy   TEWEN  =       386.90714108
  -Hartree energ DENC   =     -1171.46544248
  -exchange      EXHF   =         0.00000000
  -V(xc)+E(xc)   XCENC  =        64.88910200
  PAW double counting   =      6229.98537632    -6232.98461690
  entropy T*S    EENTRO =        -0.00000000
  eigenvalues    EBANDS =      -220.64193095
  atomic energy  EATOM  =       914.70769713
  Solvation  Ediel_sol  =         0.00000000
  ---------------------------------------------------
  free energy    TOTEN  =       -28.58744918 eV

  energy without entropy =      -28.58744918  energy(sigma->0) =      -28.58744918


--------------------------------------------------------------------------------------------------------




--------------------------------------- Iteration      1(  13)  ---------------------------------------


    POTLOK:  cpu time   27.2923: real time   27.3306
    SETDIJ:  cpu time    0.0589: real time    0.0589
     EDDAV:  cpu time   12.4900: real time   12.5092
       DOS:  cpu time    0.0041: real time    0.0041
    CHARGE:  cpu time    3.6488: real time    3.6539
    MIXING:  cpu time    0.7840: real time    0.7852
    --------------------------------------------
      LOOP:  cpu time   44.2780: real time   44.3419

 eigenvalue-minimisations  :    32
 total energy-change (2. order) :-0.3266388E-02  (-0.4036335E-04)
 number of electron      16.0000000 magnetization 
 augmentation part        0.1283937 magnetization 

 Broyden mixing:
  rms(total) = 0.40104E-01    rms(broyden)= 0.40104E-01
  rms(prec ) = 0.40354E-01
  weight for this iteration     100.00

 eigenvalues of (default mixing * dielectric matrix)
  average eigenvalue GAMMA=   1.6678
  2.9974  2.9974  2.3237  0.9856  0.9856  0.8454  1.1037  1.1037

 Free energy of the ion-electron system (eV)
  ---------------------------------------------------
  alpha Z        PSCENC =         0.01522463
  Ewald energy   TEWEN  =       386.90714108
  -Hartree energ DENC   =     -1171.22967887
  -exchange      EXHF   =         0.00000000
  -V(xc)+E(xc)   XCENC  =        64.87181083
  PAW double counting   =      6316.16739532    -6319.17055640
  entropy T*S    EENTRO =        -0.00000000
  eigenvalues    EBANDS =      -220.85974929
  atomic energy  EATOM  =       914.70769713
  Solvation  Ediel_sol  =         0.00000000
  ---------------------------------------------------
  free energy    TOTEN  =       -28.59071557 eV

  energy without entropy =      -28.59071557  energy(sigma->0) =      -28.59071557


--------------------------------------------------------------------------------------------------------




--------------------------------------- Iteration      1(  14)  ---------------------------------------


    POTLOK:  cpu time   27.3472: real time   27.3852
    SETDIJ:  cpu time    0.0512: real time    0.0512
     EDDAV:  cpu time   13.6205: real time   13.6417
       DOS:  cpu time    0.0027: real time    0.0027
    CHARGE:  cpu time    3.6483: real time    3.6536
    MIXING:  cpu time    0.8239: real time    0.8252
    --------------------------------------------
      LOOP:  cpu time   45.4939: real time   45.5597

 eigenvalue-minimisations  :    36
 total energy-change (2. order) :-0.6059021E-02  (-0.1094475E-03)
 number of electron      16.0000000 magnetization 
 augmentation part        0.1287038 magnetization 

 Broyden mixing:
  rms(total) = 0.15393E-01    rms(broyden)= 0.15393E-01
  rms(prec ) = 0.15642E-01
  weight for this iteration     100.00

 eigenvalues of (default mixing * dielectric matrix)
  average eigenvalue GAMMA=   1.6426
  3.1831  3.1831  2.4070  1.1401  1.1401  0.9039  0.9039  0.9609  0.9609

 Free energy of the ion-electron system (eV)
  ---------------------------------------------------
  alpha Z        PSCENC =         0.01522463
  Ewald energy   TEWEN  =       386.90714108
  -Hartree energ DENC   =     -1171.46730256
  -exchange      EXHF   =         0.00000000
  -V(xc)+E(xc)   XCENC  =        64.86360389
  PAW double counting   =      6392.04551457    -6395.05078087
  entropy T*S    EENTRO =        -0.00000000
  eigenvalues    EBANDS =      -220.61787246
  atomic energy  EATOM  =       914.70769713
  Solvation  Ediel_sol  =         0.00000000
  ---------------------------------------------------
  free energy    TOTEN  =       -28.59677459 eV

  energy without entropy =      -28.59677459  energy(sigma->0) =      -28.59677459


--------------------------------------------------------------------------------------------------------




--------------------------------------- Iteration      1(  15)  ---------------------------------------


    POTLOK:  cpu time   27.2990: real time   27.3373
    SETDIJ:  cpu time    0.0559: real time    0.0560
     EDDAV:  cpu time   14.6771: real time   14.7005
       DOS:  cpu time    0.0001: real time    0.0001
    CHARGE:  cpu time    3.6547: real time    3.6599
    MIXING:  cpu time    0.8960: real time    0.8974
    --------------------------------------------
      LOOP:  cpu time   46.5829: real time   46.6511

 eigenvalue-minimisations  :    40
 total energy-change (2. order) :-0.2362765E-02  (-0.2140516E-04)
 number of electron      16.0000000 magnetization 
 augmentation part        0.1285234 magnetization 

 Broyden mixing:
  rms(total) = 0.19147E-01    rms(broyden)= 0.19147E-01
  rms(prec ) = 0.19254E-01
  weight for this iteration     100.00

 eigenvalues of (default mixing * dielectric matrix)
  average eigenvalue GAMMA=   1.7236
  3.8868  3.3562  2.3372  1.4593  1.4593  0.9630  0.9630  1.0549  0.8921  0.8646

 Free energy of the ion-electron system (eV)
  ---------------------------------------------------
  alpha Z        PSCENC =         0.01522463
  Ewald energy   TEWEN  =       386.90714108
  -Hartree energ DENC   =     -1171.67880941
  -exchange      EXHF   =         0.00000000
  -V(xc)+E(xc)   XCENC  =        64.86562111
  PAW double counting   =      6401.89590222    -6404.90177540
  entropy T*S    EENTRO =        -0.00000000
  eigenvalues    EBANDS =      -220.41013872
  atomic energy  EATOM  =       914.70769713
  Solvation  Ediel_sol  =         0.00000000
  ---------------------------------------------------
  free energy    TOTEN  =       -28.59913736 eV

  energy without entropy =      -28.59913736  energy(sigma->0) =      -28.59913736


--------------------------------------------------------------------------------------------------------




--------------------------------------- Iteration      1(  16)  ---------------------------------------


    POTLOK:  cpu time   27.3107: real time   27.3515
    SETDIJ:  cpu time    0.0551: real time    0.0551
     EDDAV:  cpu time   13.6350: real time   13.6561
       DOS:  cpu time    0.0028: real time    0.0028
    CHARGE:  cpu time    3.6769: real time    3.6819
    MIXING:  cpu time    0.9009: real time    0.9023
    --------------------------------------------
      LOOP:  cpu time   45.5813: real time   45.6497

 eigenvalue-minimisations  :    36
 total energy-change (2. order) :-0.2851995E-02  (-0.3479461E-04)
 number of electron      16.0000000 magnetization 
 augmentation part        0.1285247 magnetization 

 Broyden mixing:
  rms(total) = 0.12871E-01    rms(broyden)= 0.12871E-01
  rms(prec ) = 0.12914E-01
  weight for this iteration     100.00

 eigenvalues of (default mixing * dielectric matrix)
  average eigenvalue GAMMA=   1.9255
  6.3926  3.0250  2.4165  2.1292  1.2381  1.2381  0.9777  0.9777  0.8940  0.9459
  0.9459

 Free energy of the ion-electron system (eV)
  ---------------------------------------------------
  alpha Z        PSCENC =         0.01522463
  Ewald energy   TEWEN  =       386.90714108
  -Hartree energ DENC   =     -1171.87807703
  -exchange      EXHF   =         0.00000000
  -V(xc)+E(xc)   XCENC  =        64.86271944
  PAW double counting   =      6394.49818075    -6397.50225808
  entropy T*S    EENTRO =        -0.00000000
  eigenvalues    EBANDS =      -220.21261726
  atomic energy  EATOM  =       914.70769713
  Solvation  Ediel_sol  =         0.00000000
  ---------------------------------------------------
  free energy    TOTEN  =       -28.60198935 eV

  energy without entropy =      -28.60198935  energy(sigma->0) =      -28.60198935


--------------------------------------------------------------------------------------------------------




--------------------------------------- Iteration      1(  17)  ---------------------------------------


    POTLOK:  cpu time   27.2921: real time   27.3301
    SETDIJ:  cpu time    0.0599: real time    0.0600
     EDDAV:  cpu time   14.7221: real time   14.7460
       DOS:  cpu time    0.0002: real time    0.0002
    CHARGE:  cpu time    3.6234: real time    3.6284
    MIXING:  cpu time    1.0391: real time    1.0407
    --------------------------------------------
      LOOP:  cpu time   46.7368: real time   46.8053

 eigenvalue-minimisations  :    40
 total energy-change (2. order) :-0.1188180E-02  (-0.1604730E-04)
 number of electron      16.0000000 magnetization 
 augmentation part        0.1283499 magnetization 

 Broyden mixing:
  rms(total) = 0.29832E-02    rms(broyden)= 0.29832E-02
  rms(prec ) = 0.30351E-02
  weight for this iteration     100.00

 eigenvalues of (default mixing * dielectric matrix)
  average eigenvalue GAMMA=   1.9303
  6.7858  3.0188  2.4858  2.4858  1.4005  1.4005  0.9703  0.9703  1.0191  1.0191
  0.8040  0.8040

 Free energy of the ion-electron system (eV)
  ---------------------------------------------------
  alpha Z        PSCENC =         0.01522463
  Ewald energy   TEWEN  =       386.90714108
  -Hartree energ DENC   =     -1172.03798188
  -exchange      EXHF   =         0.00000000
  -V(xc)+E(xc)   XCENC  =        64.86502006
  PAW double counting   =      6380.86928864    -6383.87262905
  entropy T*S    EENTRO =        -0.00000000
  eigenvalues    EBANDS =      -220.05693814
  atomic energy  EATOM  =       914.70769713
  Solvation  Ediel_sol  =         0.00000000
  ---------------------------------------------------
  free energy    TOTEN  =       -28.60317753 eV

  energy without entropy =      -28.60317753  energy(sigma->0) =      -28.60317753


--------------------------------------------------------------------------------------------------------




--------------------------------------- Iteration      1(  18)  ---------------------------------------


    POTLOK:  cpu time   27.3090: real time   27.3474
    SETDIJ:  cpu time    0.0507: real time    0.0507
     EDDAV:  cpu time   12.5278: real time   12.5472
       DOS:  cpu time    0.0033: real time    0.0033
    CHARGE:  cpu time    3.6937: real time    3.6991
    MIXING:  cpu time    1.0097: real time    1.0113
    --------------------------------------------
      LOOP:  cpu time   44.5941: real time   44.6590

 eigenvalue-minimisations  :    32
 total energy-change (2. order) :-0.7817402E-03  (-0.3786080E-05)
 number of electron      16.0000000 magnetization 
 augmentation part        0.1283621 magnetization 

 Broyden mixing:
  rms(total) = 0.29881E-02    rms(broyden)= 0.29881E-02
  rms(prec ) = 0.30073E-02
  weight for this iteration     100.00

 eigenvalues of (default mixing * dielectric matrix)
  average eigenvalue GAMMA=   2.1430
  8.0292  3.9463  2.8276  2.8276  2.3698  1.1855  1.1855  0.9672  0.9672  0.9686
  0.9686  0.8081  0.8081

 Free energy of the ion-electron system (eV)
  ---------------------------------------------------
  alpha Z        PSCENC =         0.01522463
  Ewald energy   TEWEN  =       386.90714108
  -Hartree energ DENC   =     -1172.04418276
  -exchange      EXHF   =         0.00000000
  -V(xc)+E(xc)   XCENC  =        64.86344586
  PAW double counting   =      6368.87421106    -6371.87702835
  entropy T*S    EENTRO =        -0.00000000
  eigenvalues    EBANDS =      -220.05046791
  atomic energy  EATOM  =       914.70769713
  Solvation  Ediel_sol  =         0.00000000
  ---------------------------------------------------
  free energy    TOTEN  =       -28.60395927 eV

  energy without entropy =      -28.60395927  energy(sigma->0) =      -28.60395927


--------------------------------------------------------------------------------------------------------




--------------------------------------- Iteration      1(  19)  ---------------------------------------


    POTLOK:  cpu time   27.2801: real time   27.3199
    SETDIJ:  cpu time    0.0563: real time    0.0563
     EDDAV:  cpu time   14.7418: real time   14.7647
       DOS:  cpu time    0.0066: real time    0.0066
    CHARGE:  cpu time    3.6793: real time    3.6845
    MIXING:  cpu time    1.0613: real time    1.0631
    --------------------------------------------
      LOOP:  cpu time   46.8254: real time   46.8951

 eigenvalue-minimisations  :    40
 total energy-change (2. order) :-0.5460717E-03  (-0.3192317E-05)
 number of electron      16.0000000 magnetization 
 augmentation part        0.1283821 magnetization 

 Broyden mixing:
  rms(total) = 0.58421E-03    rms(broyden)= 0.58421E-03
  rms(prec ) = 0.60219E-03
  weight for this iteration     100.00

 eigenvalues of (default mixing * dielectric matrix)
  average eigenvalue GAMMA=   2.1253
  8.5770  4.3423  2.6079  2.6079  2.4138  1.3092  1.3092  0.9698  0.9698  1.0219
  1.0219  0.9366  0.8332  0.8332

 Free energy of the ion-electron system (eV)
  ---------------------------------------------------
  alpha Z        PSCENC =         0.01522463
  Ewald energy   TEWEN  =       386.90714108
  -Hartree energ DENC   =     -1172.03143209
  -exchange      EXHF   =         0.00000000
  -V(xc)+E(xc)   XCENC  =        64.86190607
  PAW double counting   =      6370.07476870    -6373.07803408
  entropy T*S    EENTRO =        -0.00000000
  eigenvalues    EBANDS =      -220.06177679
  atomic energy  EATOM  =       914.70769713
  Solvation  Ediel_sol  =         0.00000000
  ---------------------------------------------------
  free energy    TOTEN  =       -28.60450534 eV

  energy without entropy =      -28.60450534  energy(sigma->0) =      -28.60450534


--------------------------------------------------------------------------------------------------------




--------------------------------------- Iteration      1(  20)  ---------------------------------------


    POTLOK:  cpu time   27.2890: real time   27.3278
    SETDIJ:  cpu time    0.0474: real time    0.0474
     EDDAV:  cpu time   12.4974: real time   12.5166
       DOS:  cpu time    0.0053: real time    0.0053
    CHARGE:  cpu time    3.5736: real time    3.5784
    MIXING:  cpu time    1.2746: real time    1.2764
    --------------------------------------------
      LOOP:  cpu time   44.6872: real time   44.7520

 eigenvalue-minimisations  :    32
 total energy-change (2. order) :-0.8687989E-04  (-0.2114063E-06)
 number of electron      16.0000000 magnetization 
 augmentation part        0.1283648 magnetization 

 Broyden mixing:
  rms(total) = 0.73224E-03    rms(broyden)= 0.73224E-03
  rms(prec ) = 0.74054E-03
  weight for this iteration     100.00

 eigenvalues of (default mixing * dielectric matrix)
  average eigenvalue GAMMA=   2.0572
  8.6381  4.4685  2.6417  2.6417  2.0629  1.5662  1.5662  0.9634  0.9634  1.0251
  1.0251  0.9896  0.8390  0.8390  0.6284

 Free energy of the ion-electron system (eV)
  ---------------------------------------------------
  alpha Z        PSCENC =         0.01522463
  Ewald energy   TEWEN  =       386.90714108
  -Hartree energ DENC   =     -1172.03686778
  -exchange      EXHF   =         0.00000000
  -V(xc)+E(xc)   XCENC  =        64.86192691
  PAW double counting   =      6370.98509684    -6373.98827210
  entropy T*S    EENTRO =        -0.00000000
  eigenvalues    EBANDS =      -220.05653893
  atomic energy  EATOM  =       914.70769713
  Solvation  Ediel_sol  =         0.00000000
  ---------------------------------------------------
  free energy    TOTEN  =       -28.60459222 eV

  energy without entropy =      -28.60459222  energy(sigma->0) =      -28.60459222


--------------------------------------------------------------------------------------------------------




--------------------------------------- Iteration      1(  21)  ---------------------------------------


    POTLOK:  cpu time   27.3036: real time   27.3418
    SETDIJ:  cpu time    0.0555: real time    0.0556
     EDDAV:  cpu time   12.4924: real time   12.5118
       DOS:  cpu time    0.0015: real time    0.0015
    CHARGE:  cpu time    3.6794: real time    3.6847
    MIXING:  cpu time    1.1600: real time    1.1623
    --------------------------------------------
      LOOP:  cpu time   44.6924: real time   44.7577

 eigenvalue-minimisations  :    32
 total energy-change (2. order) :-0.7974210E-04  (-0.7217618E-07)
 number of electron      16.0000000 magnetization 
 augmentation part        0.1283654 magnetization 

 Broyden mixing:
  rms(total) = 0.97076E-03    rms(broyden)= 0.97076E-03
  rms(prec ) = 0.97411E-03
  weight for this iteration     100.00

 eigenvalues of (default mixing * dielectric matrix)
  average eigenvalue GAMMA=   2.1898
  9.0308  5.2540  3.1304  2.6966  2.6966  2.3396  1.2638  1.2638  0.9677  0.9677
  0.9927  0.9927  0.9279  0.8329  0.8399  0.8399

 Free energy of the ion-electron system (eV)
  ---------------------------------------------------
  alpha Z        PSCENC =         0.01522463
  Ewald energy   TEWEN  =       386.90714108
  -Hartree energ DENC   =     -1172.03515380
  -exchange      EXHF   =         0.00000000
  -V(xc)+E(xc)   XCENC  =        64.86170511
  PAW double counting   =      6370.76021192    -6373.76332377
  entropy T*S    EENTRO =        -0.00000000
  eigenvalues    EBANDS =      -220.05817426
  atomic energy  EATOM  =       914.70769713
  Solvation  Ediel_sol  =         0.00000000
  ---------------------------------------------------
  free energy    TOTEN  =       -28.60467197 eV

  energy without entropy =      -28.60467197  energy(sigma->0) =      -28.60467197


--------------------------------------------------------------------------------------------------------




--------------------------------------- Iteration      1(  22)  ---------------------------------------


    POTLOK:  cpu time   27.2486: real time   27.2867
    SETDIJ:  cpu time    0.0700: real time    0.0700
     EDDAV:  cpu time   12.4951: real time   12.5147
       DOS:  cpu time    0.0037: real time    0.0037
    CHARGE:  cpu time    3.8662: real time    3.8712
    MIXING:  cpu time    1.2397: real time    1.2417
    --------------------------------------------
      LOOP:  cpu time   44.9233: real time   44.9880

 eigenvalue-minimisations  :    32
 total energy-change (2. order) :-0.1026844E-03  (-0.2027289E-06)
 number of electron      16.0000000 magnetization 
 augmentation part        0.1283717 magnetization 

 Broyden mixing:
  rms(total) = 0.22835E-03    rms(broyden)= 0.22835E-03
  rms(prec ) = 0.23109E-03
  weight for this iteration     100.00

 eigenvalues of (default mixing * dielectric matrix)
  average eigenvalue GAMMA=   2.1443
  8.9454  5.5539  3.0930  2.8204  2.8204  2.1567  1.3793  1.3793  0.9624  0.9624
  1.0351  0.9213  0.9213  0.9200  0.9200  0.8311  0.8311

 Free energy of the ion-electron system (eV)
  ---------------------------------------------------
  alpha Z        PSCENC =         0.01522463
  Ewald energy   TEWEN  =       386.90714108
  -Hartree energ DENC   =     -1172.03079479
  -exchange      EXHF   =         0.00000000
  -V(xc)+E(xc)   XCENC  =        64.86133945
  PAW double counting   =      6373.06134069    -6376.06452736
  entropy T*S    EENTRO =        -0.00000000
  eigenvalues    EBANDS =      -220.06219548
  atomic energy  EATOM  =       914.70769713
  Solvation  Ediel_sol  =         0.00000000
  ---------------------------------------------------
  free energy    TOTEN  =       -28.60477465 eV

  energy without entropy =      -28.60477465  energy(sigma->0) =      -28.60477465


--------------------------------------------------------------------------------------------------------




--------------------------------------- Iteration      1(  23)  ---------------------------------------


    POTLOK:  cpu time   27.2445: real time   27.2856
    SETDIJ:  cpu time    0.0474: real time    0.0474
     EDDAV:  cpu time   10.1999: real time   10.2154
       DOS:  cpu time    0.0039: real time    0.0039
    CHARGE:  cpu time    3.6560: real time    3.6613
    MIXING:  cpu time    1.4674: real time    1.4696
    --------------------------------------------
      LOOP:  cpu time   42.6191: real time   42.6833

 eigenvalue-minimisations  :    24
 total energy-change (2. order) :-0.1934375E-04  (-0.7498695E-08)
 number of electron      16.0000000 magnetization 
 augmentation part        0.1283700 magnetization 

 Broyden mixing:
  rms(total) = 0.29994E-03    rms(broyden)= 0.29994E-03
  rms(prec ) = 0.30100E-03
  weight for this iteration     100.00

 eigenvalues of (default mixing * dielectric matrix)
  average eigenvalue GAMMA=   2.1758
  9.2214  5.8199  3.5595  2.5775  2.5211  2.5211  1.6803  1.6803  1.1465  1.1465
  0.9689  0.9689  0.9515  0.9515  0.9835  0.8274  0.8193  0.8193

 Free energy of the ion-electron system (eV)
  ---------------------------------------------------
  alpha Z        PSCENC =         0.01522463
  Ewald energy   TEWEN  =       386.90714108
  -Hartree energ DENC   =     -1172.03223984
  -exchange      EXHF   =         0.00000000
  -V(xc)+E(xc)   XCENC  =        64.86139070
  PAW double counting   =      6373.17315204    -6376.17637957
  entropy T*S    EENTRO =        -0.00000000
  eigenvalues    EBANDS =      -220.06078016
  atomic energy  EATOM  =       914.70769713
  Solvation  Ediel_sol  =         0.00000000
  ---------------------------------------------------
  free energy    TOTEN  =       -28.60479399 eV

  energy without entropy =      -28.60479399  energy(sigma->0) =      -28.60479399


--------------------------------------------------------------------------------------------------------




--------------------------------------- Iteration      1(  24)  ---------------------------------------


    POTLOK:  cpu time   27.2412: real time   27.2824
    SETDIJ:  cpu time    0.0476: real time    0.0476
     EDDAV:  cpu time   10.2196: real time   10.2352
       DOS:  cpu time    0.0005: real time    0.0005
    CHARGE:  cpu time    3.6149: real time    3.6201
    MIXING:  cpu time    1.5655: real time    1.5679
    --------------------------------------------
      LOOP:  cpu time   42.6892: real time   42.7536

 eigenvalue-minimisations  :    24
 total energy-change (2. order) :-0.1730145E-04  (-0.1644634E-07)
 number of electron      16.0000000 magnetization 
 augmentation part        0.1283689 magnetization 

 Broyden mixing:
  rms(total) = 0.33870E-04    rms(broyden)= 0.33870E-04
  rms(prec ) = 0.37062E-04
  weight for this iteration     100.00

 eigenvalues of (default mixing * dielectric matrix)
  average eigenvalue GAMMA=   2.1838
  9.4942  6.1518  4.0259  2.7343  2.3725  2.3725  2.4428  1.3118  1.3118  0.9600
  0.9600  1.0052  1.0052  1.0231  0.9092  0.8729  0.8729  0.8335  0.8335

 Free energy of the ion-electron system (eV)
  ---------------------------------------------------
  alpha Z        PSCENC =         0.01522463
  Ewald energy   TEWEN  =       386.90714108
  -Hartree energ DENC   =     -1172.03329914
  -exchange      EXHF   =         0.00000000
  -V(xc)+E(xc)   XCENC  =        64.86138387
  PAW double counting   =      6372.55365868    -6375.55686398
  entropy T*S    EENTRO =        -0.00000000
  eigenvalues    EBANDS =      -220.05975355
  atomic energy  EATOM  =       914.70769713
  Solvation  Ediel_sol  =         0.00000000
  ---------------------------------------------------
  free energy    TOTEN  =       -28.60481129 eV

  energy without entropy =      -28.60481129  energy(sigma->0) =      -28.60481129


--------------------------------------------------------------------------------------------------------




--------------------------------------- Iteration      1(  25)  ---------------------------------------


    POTLOK:  cpu time   27.2361: real time   27.2743
    SETDIJ:  cpu time    0.0561: real time    0.0561
     EDDAV:  cpu time    8.0217: real time    8.0342
       DOS:  cpu time    0.0036: real time    0.0036
    CHARGE:  cpu time    3.6455: real time    3.6506
    MIXING:  cpu time    1.4909: real time    1.4933
    --------------------------------------------
      LOOP:  cpu time   40.4539: real time   40.5121

 eigenvalue-minimisations  :    16
 total energy-change (2. order) :-0.9273493E-05  (-0.4077679E-08)
 number of electron      16.0000000 magnetization 
 augmentation part        0.1283695 magnetization 

 Broyden mixing:
  rms(total) = 0.13323E-03    rms(broyden)= 0.13323E-03
  rms(prec ) = 0.13354E-03
  weight for this iteration     100.00

 eigenvalues of (default mixing * dielectric matrix)
  average eigenvalue GAMMA=   2.2087
  9.5742  6.4538  4.2591  3.0328  2.6518  2.6518  2.3180  1.4568  1.4568  0.9696
  0.9696  1.0019  1.0019  1.0446  1.0446  0.9035  0.9035  0.8315  0.8315  0.8175

 Free energy of the ion-electron system (eV)
  ---------------------------------------------------
  alpha Z        PSCENC =         0.01522463
  Ewald energy   TEWEN  =       386.90714108
  -Hartree energ DENC   =     -1172.03370463
  -exchange      EXHF   =         0.00000000
  -V(xc)+E(xc)   XCENC  =        64.86138681
  PAW double counting   =      6372.70042801    -6375.70364499
  entropy T*S    EENTRO =        -0.00000000
  eigenvalues    EBANDS =      -220.05934862
  atomic energy  EATOM  =       914.70769713
  Solvation  Ediel_sol  =         0.00000000
  ---------------------------------------------------
  free energy    TOTEN  =       -28.60482057 eV

  energy without entropy =      -28.60482057  energy(sigma->0) =      -28.60482057


--------------------------------------------------------------------------------------------------------




--------------------------------------- Iteration      1(  26)  ---------------------------------------


    POTLOK:  cpu time   27.3233: real time   27.3622
    SETDIJ:  cpu time    0.0488: real time    0.0488
     EDDAV:  cpu time    7.9898: real time    8.0027
       DOS:  cpu time    0.0056: real time    0.0056
    CHARGE:  cpu time    3.5577: real time    3.5626
    MIXING:  cpu time    1.6298: real time    1.6323
    --------------------------------------------
      LOOP:  cpu time   40.5549: real time   40.6142

 eigenvalue-minimisations  :    16
 total energy-change (2. order) :-0.5663897E-05  (-0.3495780E-08)
 number of electron      16.0000000 magnetization 
 augmentation part        0.1283697 magnetization 

 Broyden mixing:
  rms(total) = 0.21345E-04    rms(broyden)= 0.21345E-04
  rms(prec ) = 0.21940E-04
  weight for this iteration     100.00

 eigenvalues of (default mixing * dielectric matrix)
  average eigenvalue GAMMA=   2.1920
  9.5739  6.6662  4.6273  2.9157  2.9157  2.4558  2.2789  1.5530  1.5530  1.2826
  1.2826  0.9648  0.9648  0.9653  0.9653  0.9500  0.8137  0.8490  0.8490  0.8027
  0.8027

 Free energy of the ion-electron system (eV)
  ---------------------------------------------------
  alpha Z        PSCENC =         0.01522463
  Ewald energy   TEWEN  =       386.90714108
  -Hartree energ DENC   =     -1172.03415850
  -exchange      EXHF   =         0.00000000
  -V(xc)+E(xc)   XCENC  =        64.86140473
  PAW double counting   =      6372.54861076    -6375.55180913
  entropy T*S    EENTRO =        -0.00000000
  eigenvalues    EBANDS =      -220.05893693
  atomic energy  EATOM  =       914.70769713
  Solvation  Ediel_sol  =         0.00000000
  ---------------------------------------------------
  free energy    TOTEN  =       -28.60482623 eV

  energy without entropy =      -28.60482623  energy(sigma->0) =      -28.60482623


--------------------------------------------------------------------------------------------------------




--------------------------------------- Iteration      1(  27)  ---------------------------------------


    POTLOK:  cpu time   27.1892: real time   27.2275
    SETDIJ:  cpu time    0.0526: real time    0.0527
     EDDAV:  cpu time   10.2004: real time   10.2174
       DOS:  cpu time    0.0014: real time    0.0014
    CHARGE:  cpu time    3.5913: real time    3.5964
    MIXING:  cpu time    1.8571: real time    1.8597
    --------------------------------------------
      LOOP:  cpu time   42.8920: real time   42.9551

 eigenvalue-minimisations  :    24
 total energy-change (2. order) :-0.1690455E-05  (-0.2591122E-08)
 number of electron      16.0000000 magnetization 
 augmentation part        0.1283691 magnetization 

 Broyden mixing:
  rms(total) = 0.50696E-04    rms(broyden)= 0.50696E-04
  rms(prec ) = 0.50822E-04
  weight for this iteration     100.00

 eigenvalues of (default mixing * dielectric matrix)
  average eigenvalue GAMMA=   2.1931
  9.6417  6.9106  4.8596  3.1902  2.8139  2.5162  2.2298  2.2298  1.4161  1.4161
  1.0775  1.0775  0.9663  0.9663  1.0036  1.0036  0.8484  0.8484  0.8333  0.8333
  0.7828  0.7828

 Free energy of the ion-electron system (eV)
  ---------------------------------------------------
  alpha Z        PSCENC =         0.01522463
  Ewald energy   TEWEN  =       386.90714108
  -Hartree energ DENC   =     -1172.03466886
  -exchange      EXHF   =         0.00000000
  -V(xc)+E(xc)   XCENC  =        64.86142688
  PAW double counting   =      6372.46456991    -6375.46776552
  entropy T*S    EENTRO =        -0.00000000
  eigenvalues    EBANDS =      -220.05845317
  atomic energy  EATOM  =       914.70769713
  Solvation  Ediel_sol  =         0.00000000
  ---------------------------------------------------
  free energy    TOTEN  =       -28.60482792 eV

  energy without entropy =      -28.60482792  energy(sigma->0) =      -28.60482792


--------------------------------------------------------------------------------------------------------




--------------------------------------- Iteration      1(  28)  ---------------------------------------


    POTLOK:  cpu time   27.2445: real time   27.2837
    SETDIJ:  cpu time    0.0472: real time    0.0473
     EDDAV:  cpu time    7.9697: real time    7.9819
       DOS:  cpu time    0.0053: real time    0.0053
    CHARGE:  cpu time    3.6233: real time    3.6284
    MIXING:  cpu time    1.7532: real time    1.7560
    --------------------------------------------
      LOOP:  cpu time   40.6433: real time   40.7025

 eigenvalue-minimisations  :    16
 total energy-change (2. order) :-0.1291915E-05  (-0.2121677E-08)
 number of electron      16.0000000 magnetization 
 augmentation part        0.1283688 magnetization 

 Broyden mixing:
  rms(total) = 0.53593E-04    rms(broyden)= 0.53593E-04
  rms(prec ) = 0.53665E-04
  weight for this iteration     100.00

 eigenvalues of (default mixing * dielectric matrix)
  average eigenvalue GAMMA=   2.1929
  9.6614  7.0531  5.0183  3.3783  2.8754  2.5944  2.2328  2.2328  1.5870  1.5870
  1.1861  1.1092  0.9727  0.9727  1.0307  1.0307  0.8976  0.8976  0.8802  0.8802
  0.7986  0.7986  0.7619

 Free energy of the ion-electron system (eV)
  ---------------------------------------------------
  alpha Z        PSCENC =         0.01522463
  Ewald energy   TEWEN  =       386.90714108
  -Hartree energ DENC   =     -1172.03479973
  -exchange      EXHF   =         0.00000000
  -V(xc)+E(xc)   XCENC  =        64.86143315
  PAW double counting   =      6372.51436448    -6375.51756181
  entropy T*S    EENTRO =        -0.00000000
  eigenvalues    EBANDS =      -220.05832814
  atomic energy  EATOM  =       914.70769713
  Solvation  Ediel_sol  =         0.00000000
  ---------------------------------------------------
  free energy    TOTEN  =       -28.60482921 eV

  energy without entropy =      -28.60482921  energy(sigma->0) =      -28.60482921


--------------------------------------------------------------------------------------------------------




--------------------------------------- Iteration      1(  29)  ---------------------------------------


    POTLOK:  cpu time   27.2315: real time   27.2700
    SETDIJ:  cpu time    0.0577: real time    0.0577
     EDDAV:  cpu time    8.0297: real time    8.0420
       DOS:  cpu time    0.0010: real time    0.0010
    CHARGE:  cpu time    3.6302: real time    3.6376
    MIXING:  cpu time    1.8066: real time    1.8096
    --------------------------------------------
      LOOP:  cpu time   40.7567: real time   40.8180

 eigenvalue-minimisations  :    16
 total energy-change (2. order) :-0.7937854E-06  (-0.1529962E-08)
 number of electron      16.0000000 magnetization 
 augmentation part        0.1283688 magnetization 

 Broyden mixing:
  rms(total) = 0.18822E-04    rms(broyden)= 0.18822E-04
  rms(prec ) = 0.18903E-04
  weight for this iteration     100.00

 eigenvalues of (default mixing * dielectric matrix)
  average eigenvalue GAMMA=   2.1843
  9.6914  7.2734  5.2676  3.8008  2.6456  2.6456  2.4251  2.1729  1.6249  1.6249
  1.3821  1.1731  1.0286  1.0286  0.9675  0.9675  0.9413  0.9413  0.8331  0.8331
  0.7978  0.7978  0.8073  0.7515

 Free energy of the ion-electron system (eV)
  ---------------------------------------------------
  alpha Z        PSCENC =         0.01522463
  Ewald energy   TEWEN  =       386.90714108
  -Hartree energ DENC   =     -1172.03450744
  -exchange      EXHF   =         0.00000000
  -V(xc)+E(xc)   XCENC  =        64.86141799
  PAW double counting   =      6372.53605897    -6375.53925971
  entropy T*S    EENTRO =        -0.00000000
  eigenvalues    EBANDS =      -220.05860265
  atomic energy  EATOM  =       914.70769713
  Solvation  Ediel_sol  =         0.00000000
  ---------------------------------------------------
  free energy    TOTEN  =       -28.60483001 eV

  energy without entropy =      -28.60483001  energy(sigma->0) =      -28.60483001


--------------------------------------------------------------------------------------------------------




--------------------------------------- Iteration      1(  30)  ---------------------------------------


    POTLOK:  cpu time   27.1987: real time   27.2373
    SETDIJ:  cpu time    0.0544: real time    0.0544
     EDDAV:  cpu time    8.0548: real time    8.0687
       DOS:  cpu time    0.0055: real time    0.0055
    CHARGE:  cpu time    3.6148: real time    3.6198
    MIXING:  cpu time    1.9501: real time    1.9530
    --------------------------------------------
      LOOP:  cpu time   40.8782: real time   40.9388

 eigenvalue-minimisations  :    16
 total energy-change (2. order) :-0.4369790E-06  (-0.1348621E-08)
 number of electron      16.0000000 magnetization 
 augmentation part        0.1283690 magnetization 

 Broyden mixing:
  rms(total) = 0.11007E-04    rms(broyden)= 0.11007E-04
  rms(prec ) = 0.11046E-04
  weight for this iteration     100.00

 eigenvalues of (default mixing * dielectric matrix)
  average eigenvalue GAMMA=   2.2101
  9.7200  7.4457  5.4369  3.9870  2.4863  2.4863  2.4747  2.4747  2.0725  1.8860
  1.4674  1.4674  1.2127  0.9665  0.9665  1.0065  1.0065  0.8327  0.8327  0.8855
  0.8855  0.8856  0.8191  0.8191  0.7287

 Free energy of the ion-electron system (eV)
  ---------------------------------------------------
  alpha Z        PSCENC =         0.01522463
  Ewald energy   TEWEN  =       386.90714108
  -Hartree energ DENC   =     -1172.03423853
  -exchange      EXHF   =         0.00000000
  -V(xc)+E(xc)   XCENC  =        64.86140468
  PAW double counting   =      6372.58070661    -6375.58390712
  entropy T*S    EENTRO =        -0.00000000
  eigenvalues    EBANDS =      -220.05885893
  atomic energy  EATOM  =       914.70769713
  Solvation  Ediel_sol  =         0.00000000
  ---------------------------------------------------
  free energy    TOTEN  =       -28.60483045 eV

  energy without entropy =      -28.60483045  energy(sigma->0) =      -28.60483045


--------------------------------------------------------------------------------------------------------




--------------------------------------- Iteration      1(  31)  ---------------------------------------


    POTLOK:  cpu time   27.2781: real time   27.3181
    SETDIJ:  cpu time    0.0525: real time    0.0526
     EDDAV:  cpu time   10.2609: real time   10.2766
       DOS:  cpu time    0.0010: real time    0.0010
    CHARGE:  cpu time    3.6244: real time    3.6324
    MIXING:  cpu time    2.0036: real time    2.0068
    --------------------------------------------
      LOOP:  cpu time   43.2205: real time   43.2875

 eigenvalue-minimisations  :    24
 total energy-change (2. order) :-0.2528134E-06  (-0.1080803E-08)
 number of electron      16.0000000 magnetization 
 augmentation part        0.1283691 magnetization 

 Broyden mixing:
  rms(total) = 0.28796E-05    rms(broyden)= 0.28796E-05
  rms(prec ) = 0.29410E-05
  weight for this iteration     100.00

 eigenvalues of (default mixing * dielectric matrix)
  average eigenvalue GAMMA=   2.2120
  9.7520  7.7028  5.6826  4.3871  2.8830  2.8830  2.5496  2.0259  1.9421  1.9421
  1.4475  1.4475  1.1504  1.0473  1.0473  0.9669  0.9669  0.9899  0.9899  0.8567
  0.8567  0.8051  0.8051  0.8380  0.8380  0.7082

 Free energy of the ion-electron system (eV)
  ---------------------------------------------------
  alpha Z        PSCENC =         0.01522463
  Ewald energy   TEWEN  =       386.90714108
  -Hartree energ DENC   =     -1172.03421870
  -exchange      EXHF   =         0.00000000
  -V(xc)+E(xc)   XCENC  =        64.86140304
  PAW double counting   =      6372.55773973    -6375.56093933
  entropy T*S    EENTRO =        -0.00000000
  eigenvalues    EBANDS =      -220.05887828
  atomic energy  EATOM  =       914.70769713
  Solvation  Ediel_sol  =         0.00000000
  ---------------------------------------------------
  free energy    TOTEN  =       -28.60483070 eV

  energy without entropy =      -28.60483070  energy(sigma->0) =      -28.60483070


--------------------------------------------------------------------------------------------------------




--------------------------------------- Iteration      1(  32)  ---------------------------------------


    POTLOK:  cpu time   27.1878: real time   27.2268
    SETDIJ:  cpu time    0.0485: real time    0.0486
     EDDAV:  cpu time    8.0077: real time    8.0199
       DOS:  cpu time    0.0024: real time    0.0024
    CHARGE:  cpu time    3.6142: real time    3.6192
    MIXING:  cpu time    2.0606: real time    2.0640
    --------------------------------------------
      LOOP:  cpu time   40.9212: real time   40.9809

 eigenvalue-minimisations  :    16
 total energy-change (2. order) :-0.1391725E-06  (-0.9435492E-09)
 number of electron      16.0000000 magnetization 
 augmentation part        0.1283691 magnetization 

 Broyden mixing:
  rms(total) = 0.46274E-05    rms(broyden)= 0.46274E-05
  rms(prec ) = 0.46483E-05
  weight for this iteration     100.00

 eigenvalues of (default mixing * dielectric matrix)
  average eigenvalue GAMMA=   2.2137
  9.7327  7.8843  5.7393  4.5365  3.0181  3.0181  2.5458  1.9819  1.9819  1.8874
  1.8874  1.4021  1.4021  1.1363  0.9666  0.9666  1.0349  1.0349  0.9906  0.8507
  0.8507  0.8709  0.8709  0.8211  0.8211  0.8172  0.7201

 Free energy of the ion-electron system (eV)
  ---------------------------------------------------
  alpha Z        PSCENC =         0.01522463
  Ewald energy   TEWEN  =       386.90714108
  -Hartree energ DENC   =     -1172.03421121
  -exchange      EXHF   =         0.00000000
  -V(xc)+E(xc)   XCENC  =        64.86140261
  PAW double counting   =      6372.56107300    -6375.56427305
  entropy T*S    EENTRO =        -0.00000000
  eigenvalues    EBANDS =      -220.05888503
  atomic energy  EATOM  =       914.70769713
  Solvation  Ediel_sol  =         0.00000000
  ---------------------------------------------------
  free energy    TOTEN  =       -28.60483084 eV

  energy without entropy =      -28.60483084  energy(sigma->0) =      -28.60483084


--------------------------------------------------------------------------------------------------------




--------------------------------------- Iteration      1(  33)  ---------------------------------------


    POTLOK:  cpu time   27.2329: real time   27.2710
    SETDIJ:  cpu time    0.0531: real time    0.0532
     EDDAV:  cpu time   10.2270: real time   10.2428
       DOS:  cpu time    0.0020: real time    0.0020
    --------------------------------------------
      LOOP:  cpu time   37.5150: real time   37.5690

 eigenvalue-minimisations  :    24
 total energy-change (2. order) :-0.6515279E-07  (-0.8539267E-09)
 number of electron      16.0000000 magnetization 
 augmentation part        0.1283691 magnetization 

 Free energy of the ion-electron system (eV)
  ---------------------------------------------------
  alpha Z        PSCENC =         0.01522463
  Ewald energy   TEWEN  =       386.90714108
  -Hartree energ DENC   =     -1172.03424408
  -exchange      EXHF   =         0.00000000
  -V(xc)+E(xc)   XCENC  =        64.86140464
  PAW double counting   =      6372.56723441    -6375.57043496
  entropy T*S    EENTRO =        -0.00000000
  eigenvalues    EBANDS =      -220.05885375
  atomic energy  EATOM  =       914.70769713
  Solvation  Ediel_sol  =         0.00000000
  ---------------------------------------------------
  free energy    TOTEN  =       -28.60483090 eV

  energy without entropy =      -28.60483090  energy(sigma->0) =      -28.60483090


--------------------------------------------------------------------------------------------------------




 average (electrostatic) potential at core
  the test charge radii are     0.4325  0.5955
  (the norm of the test charge is              1.0000)
       1 -47.7911       2 -47.7909       3 -47.4960       4 -47.5269       5-119.7226
       6-119.4440
 
 
 
 E-fermi :  -7.0221     XC(G=0):  -0.0345     alpha+bet : -0.0063


 k-point     1 :       0.0000    0.0000    0.0000
  band No.  band energies     occupation 
      1     -25.4820      2.00000
      2     -25.2040      2.00000
      3     -13.2609      2.00000
      4     -12.9823      2.00000
      5      -9.4727      2.00000
      6      -9.1878      2.00000
      7      -7.3574      2.00000
      8      -7.0822      2.00000
      9      -1.0826      0.00000
     10      -0.7290      0.00000
     11      -0.0010      0.00000
     12       0.0916      0.00000


--------------------------------------------------------------------------------------------------------


 soft charge-density along one line, spin component            1
         0         1         2         3         4         5         6         7         8         9
 total charge-density along one line
 
 pseudopotential strength for first ion, spin component:            1
 -2.535  -5.390  -0.006  -0.008   0.000
 -5.390 -11.437  -0.013  -0.019   0.000
 -0.006  -0.013  -1.381   0.012  -0.000
 -0.008  -0.019   0.012  -1.372  -0.000
  0.000   0.000  -0.000  -0.000  -1.389
 total augmentation occupancy for first ion, spin component:            1
  4.227  -0.792   0.224   0.301  -0.007
 -0.792   0.177  -0.044  -0.056   0.001
  0.224  -0.044   0.017   0.013  -0.000
  0.301  -0.056   0.013   0.023  -0.000
 -0.007   0.001  -0.000  -0.000   0.011


------------------------ aborting loop because EDIFF is reached ----------------------------------------



 DIPCOR: dipole corrections for dipol
 direction  1 min pos   535, direction  2 min pos   577, direction  3 min pos   562,
 dipolmoment          -0.289386      0.623924      0.008470 electrons x Angstroem
 Tr[quadrupol]         8.352767

 energy correction for charged system         0.000000 eV
 dipol+quadrupol energy correction            0.000333 eV
 added-field ion interaction          0.000000 eV  (added to PSCEN)

 
  *************** adding dipol energy to TOTEN NOW **************** 
    CHARGE:  cpu time    3.5734: real time    3.5785
    FORLOC:  cpu time    1.2190: real time    1.2204
    FORNL :  cpu time    0.3826: real time    0.3832
    STRESS:  cpu time    5.7919: real time    5.8010
    FORCOR:  cpu time   25.7204: real time   25.7558
    FORHAR:  cpu time    7.7781: real time    7.7897
    MIXING:  cpu time    2.1846: real time    2.1879
    OFIELD:  cpu time    0.0000: real time    0.0000

  FORCE on cell =-STRESS in cart. coord.  units (eV):
  Direction    XX          YY          ZZ          XY          YZ          ZX
  --------------------------------------------------------------------------------------
  Alpha Z     0.01522     0.01522     0.01522
  Ewald      39.31164   276.35395    71.24101    29.58966    -0.64154    -4.28217
  Hartree   332.87414   500.90190   338.25827     7.35784    -0.07654    -0.75616
  E(xc)     -74.06012   -73.67796   -73.93070     0.10506    -0.00263    -0.01995
  Local    -666.74796 -1045.45776  -694.32798   -29.03184     0.51719     3.63167
  n-local   -47.27104   -43.94726   -45.59775     1.36931    -0.03672    -0.19240
  augment     1.66722     1.12892     1.49823    -0.13797     0.00336     0.02782
  Kinetic   414.56957   385.31402   403.35792    -9.13878     0.23405     1.57342
  Fock        0.00000     0.00000     0.00000     0.00000     0.00000     0.00000
  -------------------------------------------------------------------------------------
  Total       0.35868     0.63103     0.51422     0.11328    -0.00283    -0.01778
  in kB       0.01340     0.02358     0.01922     0.00423    -0.00011    -0.00066
  external pressure =        0.02 kB  Pullay stress =        0.00 kB


 VOLUME and BASIS-vectors are now :
 -----------------------------------------------------------------------------
  energy-cutoff  :     2000.00
  volume of cell :    42875.00
      direct lattice vectors                 reciprocal lattice vectors
    35.000000000  0.000000000  0.000000000     0.028571429  0.000000000  0.000000000
     0.000000000 35.000000000  0.000000000     0.000000000  0.028571429  0.000000000
     0.000000000  0.000000000 35.000000000     0.000000000  0.000000000  0.028571429

  length of vectors
    35.000000000 35.000000000 35.000000000     0.028571429  0.028571429  0.028571429


 FORCES acting on ions
    electron-ion (+dipol)            ewald-force                    non-local-force                 convergence-correction
 -----------------------------------------------------------------------------------------------
   -.162E+01 0.545E+02 0.733E+02   0.179E+01 -.597E+02 -.806E+02   -.159E+00 0.503E+01 0.698E+01   -.357E-07 -.166E-05 -.170E-05
   0.136E+01 0.553E+02 -.727E+02   -.150E+01 -.607E+02 0.800E+02   0.125E+00 0.511E+01 -.692E+01   -.119E-06 -.168E-05 0.165E-05
   0.567E+01 0.848E+02 0.409E-01   -.620E+01 -.938E+02 -.460E-01   0.485E+00 0.860E+01 0.538E-02   0.616E-06 -.341E-05 -.362E-07
   -.869E+02 -.260E+02 0.174E+01   0.956E+02 0.282E+02 -.191E+01   -.832E+01 -.216E+01 0.167E+00   0.332E-05 -.358E-06 -.100E-06
   0.656E+00 -.424E+02 -.360E+00   -.907E+00 0.944E+02 0.660E+00   0.256E+00 -.515E+02 -.297E+00   -.104E-06 -.704E-05 -.251E-06
   0.484E+02 -.587E+02 -.108E+01   -.888E+02 0.916E+02 0.197E+01   0.400E+02 -.326E+02 -.880E+00   0.102E-04 -.119E-04 -.717E-06
 -----------------------------------------------------------------------------------------------
   -.324E+02 0.675E+02 0.947E+00   0.000E+00 0.000E+00 0.555E-14   0.324E+02 -.675E+02 -.947E+00   0.139E-04 -.260E-04 -.115E-05
 
 
 POSITION                                       TOTAL-FORCE (eV/Angst)
 -----------------------------------------------------------------------------------
      0.01761      0.64046     34.23865         0.005026     -0.224983     -0.343451
     34.98662      0.63163      0.75455        -0.008873     -0.228629      0.341006
      0.02409      6.12692      0.00129        -0.043190     -0.429092      0.000300
      0.98480      7.29983     34.98366         0.386801      0.111795     -0.007635
      0.00000      1.22721      0.00000         0.005952      0.465082      0.002340
      0.04724      7.08801      0.00253        -0.345716      0.305826      0.007440
 -----------------------------------------------------------------------------------
    total drift:                               -0.000009      0.000019     -0.000012


--------------------------------------------------------------------------------------------------------



  FREE ENERGIE OF THE ION-ELECTRON SYSTEM (eV)
  ---------------------------------------------------
  free  energy   TOTEN  =       -28.60449811 eV

  energy  without entropy=      -28.60449811  energy(sigma->0) =      -28.60449811
 


--------------------------------------------------------------------------------------------------------


    POTLOK:  cpu time   27.3297: real time   27.3682


--------------------------------------------------------------------------------------------------------


 writing wavefunctions
     LOOP+:  cpu time 2313.6260: real time 2322.6120
    4ORBIT:  cpu time    0.0000: real time    0.0000

 total amount of memory used by VASP MPI-rank0  4207116. kBytes
=======================================================================

   base      :      30000. kBytes
   nonl-proj :     121908. kBytes
   fftplans  :    1475802. kBytes
   grid      :    2553282. kBytes
   one-center:          1. kBytes
   wavefun   :      26123. kBytes
 
  
  
 General timing and accounting informations for this job:
 ========================================================
  
                  Total CPU time used (sec):     3324.569
                            User time (sec):     3205.204
                          System time (sec):      119.366
                         Elapsed time (sec):     3351.118
  
                   Maximum memory used (kb):     5234444.
                   Average memory used (kb):           0.
  
                          Minor page faults:     75378078
                          Major page faults:          155
                 Voluntary context switches:        17644
