
 Primary working directories    : /scratch/sirous/43265/molpro.1Bc81MsClk
 Secondary working directories  : /scratch/sirous/43265/molpro.1Bc81MsClk
 Wavefunction directory         : /scratch/sirous/43265/
 Main file repository           : /scratch/sirous/43265/molpro.1Bc81MsClk/

 id        : karlovklimes

 Nodes                      nprocs
 nc-19.cc.karlov.mff.cuni.cz    4

 Using customized tuning parameters: mindgm=1; mindgv=20; mindgc=4; mindgr=1; noblas=0; minvec=7
 default implementation of scratch files=sf  


 Variables initialized (934), CPU time= 0.01 sec
 ***,CH3C6H4CN+CF3CN+BF3
 memory,500,m
 gdirect
 gthresh,energy=1.d-8,twoint=1.d-19,oneint=1.d-19,zero=1.d-15,orbital=1.d-8,grid=1.d-8
 symmetry,nosym
 geomtyp=xyz
                                                                                 ! Geometry
 geometry={
 O1        -0.525329794    -0.050971084     -0.314516861
 H1        -0.942006633    0.747901631     0.011252816
 H2        0.403696525    0.059785981     -0.073568368
 O2        4.317088973    0.030562156     0.223938576
 H3        4.685071797    -0.541515247     0.901466903
 C1        4.782094044    -0.441067760     -1.038220534
 H4        4.351276949    0.210025931     -1.791334566
 H5        5.868057731    -0.390274899     -1.112532462
 H6        4.453751426    -1.460937257     -1.237301168
 }
 
 
 
 basis=avtz
 
 
 
                                                                                 ! Dimer Calculation
 {rks,pbe,accu=1.d-8;orbital,2101.2}
 eab_PBE=energy
 
 
                                                                                 !monomer A
 dummy,4,5,6,7,8,9;                                                              ! NOW MONOMER B IS DUMMY
 {rks,pbe,accu=1.d-8;orbital,2201.2}
 ea_PBE=energy
                                                                                 !monomer B
 dummy,1,2,3;                                                                    !NOW MONOMER A IS DUMMY
 {rks,pbe,accu=1.d-8;orbital,2301.2}
 eb_PBE=energy
 
 E_AB_int=eab_PBE-ea_PBE-eb_PBE
 
 
 text,results in hartree
 show,E_AB_int
 
 Commands  initialized (763), CPU time= 0.01 sec, 617 directives.
 Default parameters read. Elapsed time= 0.20 sec

 Checking input...
 Passed
1


                                         ***  PROGRAM SYSTEM MOLPRO  ***
                                       Copyright, TTI GmbH Stuttgart, 2015
                                    Version 2019.2 linked Jun  8 2019 11:26:33


 **********************************************************************************************************************************
 LABEL *   CH3C6H4CN+CF3CN+BF3                                                           
  64 bit mpp version                                                                     DATE: 06-Oct-19          TIME: 19:27:13  
 **********************************************************************************************************************************

 SHA1:             8135a10abc80eafa5b3ae28ffc55be4890dc4c84
 **********************************************************************************************************************************

 THRESHOLDS:

 ZERO    =  1.00D-15  ONEINT  =  1.00D-19  TWOINT  =  1.00D-19  PREFAC  =  1.00D-14  XXXXXX  =  1.00D-09  EORDER  =  1.00D-04
 ENERGY  =  1.00D-08  ETEST   =  0.00D+00  EDENS   =  0.00D+00  THRDEDEF=  1.00D-06  GRADIENT=  1.00D-02  STEP    =  1.00D-03
 ORBITAL =  1.00D-08  CIVEC   =  1.00D-05  COEFF   =  1.00D-04  PRINTCI =  5.00D-02  PUNCHCI =  9.90D+01  OPTGRAD =  3.00D-04
 OPTENERG=  1.00D-06  OPTSTEP =  3.00D-04  THRGRAD =  1.00D-10  COMPRESS=  1.00D-11  VARMIN  =  1.00D-07  VARMAX  =  1.00D-03
 THRDOUB =  0.00D+00  THRDIV  =  1.00D-05  THRRED  =  1.00D-07  THRPSP  =  1.00D+00  THRDC   =  1.00D-10  THRCS   =  1.00D-10
 THRNRM  =  1.00D-08  THREQ   =  0.00D+00  THRDE   =  1.00D+00  THRREF  =  1.00D-05  SPARFAC =  1.00D+00  THRDLP  =  1.00D-07
 THRDIA  =  1.00D-10  THRDLS  =  1.00D-07  THRGPS  =  0.00D+00  THRKEX  =  0.00D+00  THRDIS  =  2.00D-01  THRVAR  =  1.00D-10
 THRLOC  =  1.00D-06  THRGAP  =  1.00D-06  THRLOCT = -1.00D+00  THRGAPT = -1.00D+00  THRORB  =  1.00D-06  THRMLTP =  0.00D+00
 THRCPQCI=  1.00D-10  KEXTA   =  0.00D+00  THRCOARS=  0.00D+00  SYMTOL  =  1.00D-06  GRADTOL =  1.00D-06  THROVL  =  1.00D-08
 THRORTH =  1.00D-08  GRID    =  1.00D-08  GRIDMAX =  1.00D-03  DTMAX   =  0.00D+00  THROCCDE=  1.00D-01  THROCCDE=  1.00D-01
 THRPRINT=  2.50D-01


 Variable memory set to  500000000 words,  buffer space 

 SETTING GEOMTYP        =    XYZ
 ZSYMEL=NOSYM

 SETTING BASIS          =    AVTZ


 Recomputing integrals since basis changed


 Using spherical harmonics

 Library entry O      S aug-cc-pVTZ          selected for orbital group  1
 Library entry O      P aug-cc-pVTZ          selected for orbital group  1
 Library entry O      D aug-cc-pVTZ          selected for orbital group  1
 Library entry O      F aug-cc-pVTZ          selected for orbital group  1
 Library entry H      S aug-cc-pVTZ          selected for orbital group  2
 Library entry H      P aug-cc-pVTZ          selected for orbital group  2
 Library entry H      D aug-cc-pVTZ          selected for orbital group  2
 Library entry C      S aug-cc-pVTZ          selected for orbital group  5
 Library entry C      P aug-cc-pVTZ          selected for orbital group  5
 Library entry C      D aug-cc-pVTZ          selected for orbital group  5
 Library entry C      F aug-cc-pVTZ          selected for orbital group  5


 PROGRAM * SEWARD (Integral evaluation for generally contracted gaussian basis sets)     Author: Roland Lindh, 1990

 Geometry written to block  1 of record 700


 Point group  C1  



 ATOMIC COORDINATES

 NR  ATOM    CHARGE       X              Y              Z

   1  O1      8.00   -0.992729436   -0.096321389   -0.594350729
   2  H1      1.00   -1.780134544    1.413329251    0.021264740
   3  H2      1.00    0.762875870    0.112979130   -0.139024067
   4  O2      8.00    8.158115814    0.057754105    0.423182577
   5  H3      1.00    8.853502570   -1.023315509    1.703525557
   6  C1      6.00    9.036848045   -0.833497269   -1.961952466
   7  H4      1.00    8.222721726    0.396891489   -3.385131727
   8  H5      1.00   11.089021995   -0.737512672   -2.102381658
   9  H6      1.00    8.416370422   -2.760771301   -2.338160341

 Bond lengths in Bohr (Angstrom)

 1-2  1.810534248  1-3  1.825726996  4-5  1.814263596  4-6  2.693579128  6-7  2.049901795
     ( 0.958093464)     ( 0.966133120)     ( 0.960066950)     ( 1.425380690)     ( 1.084761314)

 6-8  2.059211335  6-9  2.059346994
     ( 1.089687711)     ( 1.089759498)

 Bond angles

  2-1-3  103.75741034   4-6-7  106.65459099   4-6-8  111.72059382   4-6-9  111.90879545

  5-4-6  107.61952492   7-6-8  108.69153234   7-6-9  108.37480423   8-6-9  109.35579191

 NUCLEAR CHARGE:                   28
 NUMBER OF PRIMITIVE AOS:         363
 NUMBER OF SYMMETRY AOS:          324
 NUMBER OF CONTRACTIONS:          276   (  276A   )
 NUMBER OF CORE ORBITALS:           3   (    3A   )
 NUMBER OF VALENCE ORBITALS:       18   (   18A   )


 NUCLEAR REPULSION ENERGY   68.12162789


 Eigenvalues of metric

         1 0.569E-04 0.673E-04 0.791E-04 0.172E-03 0.299E-03 0.376E-03 0.406E-03 0.470E-03


 OPERATOR DM      FOR CENTER  0  COORDINATES:    0.000000    0.000000    0.000000


 **********************************************************************************************************************************
 DATASETS  * FILE   NREC   LENGTH (MB)   RECORD NAMES
              1      18       32.92       500      610      700      900      950      970     1000      129      960     1100   
                                          VAR    BASINP    GEOM    SYMINP    ZMAT    AOBASIS   BASIS     P2S    ABASIS      S 
                                         1400     1410     1200     1210     1080     1600     1650     1700   
                                           T        V       H0       H01     AOSYM     SMH    MOLCAS    OPER   

 PROGRAMS   *        TOTAL       INT
 CPU TIMES  *         0.60      0.42
 REAL TIME  *         1.82 SEC
 DISK USED  *        33.40 MB (local),      133.59 MB (total)
 GA USED    *         0.00 MB       (max)       0.00 MB       (current)
 **********************************************************************************************************************************

 Density functional group PBE=PBEX+PBEC
 Functional: PBEX(Automatically generated (new) PBEX)                          Gradient terms: 1
 Functional: PBEC(Automatically generated (new) PBEC)                          Gradient terms: 1
 Use libxcgrid:  F
 Use grid at  1800.2

 Functional: PBEX                      Factor:  1.0000
 Functional: PBEC                      Factor:  1.0000

 Generated new metagrid on record  1800.2 with target accuracy 1.0D-08 and 80784 points in CPU time    0.3
 Computed new grid on record 1800.1 in CPU time    0.3
  223668 words reserved for DFT integration

 PROGRAM * RKS-SCF (Restricted closed shell Kohn-Sham)     Authors: W. Meyer, H.-J. Werner, P.J. Knowles, 1993

 NUMBER OF ELECTRONS:      14+   14-    SPACE SYMMETRY=1    SPIN SYMMETRY: Singlet 
 CONVERGENCE THRESHOLDS:    1.00E-04 (Density)    1.00E-08 (Energy)
 INTEGRAL THRESHOLDS:       1.00E-11 (Initial)    1.00E-11 (Final)
 MAX. NUMBER OF ITERATIONS:       60
 INTERPOLATION TYPE:            DIIS
 INTERPOLATION STEPS:              2 (START)      1 (STEP)
 LEVEL SHIFTS:                  0.00 (CLOSED)  0.00 (OPEN) 



 Use fine grid record 1800.2 for energy threshold  1.0D-08
 Orbital guess generated from atomic densities. Full valence occupancy:   21

 Molecular orbital dump at record        2101.2

 Initial occupancy:  14

 Direct Fock-matrix evaluation.        Authors: Roland Lindh & Martin Schuetz (1993/96)

 Integral Threshold:                  0.1D-10
 Threshold for writing integrals:     0.1D-06
 Prescreening on density matrix:        ON 
 Calculation will be performed fully direct        

 ITERATION   DDIFF            GRAD            ENERGY        2-EL.EN.            DIPOLE MOMENTS         DIIS   CPU(IT)  CPU(TOT)
    1      0.000D+00      0.000D+00      -191.83002852    334.883110    1.07466    0.05542    0.44363    0      8.8     12.2     start
    2      0.000D+00      0.783D-02      -191.23276397    299.239836   -0.13816   -0.13151   -0.25990    1      7.4     19.6     diag
    3      0.154D-01      0.163D-01      -192.00384295    323.618528    0.77966    0.05855    0.21063    2      7.4     27.1     diag
    4      0.994D-02      0.158D-02      -192.01030228    323.443361    0.72004    0.04072    0.27003    3      7.1     34.1     diag
    5      0.168D-02      0.684D-03      -192.01174945    323.103696    0.72526    0.03507    0.24712    4      6.9     41.0     diag
    6      0.601D-03      0.143D-03      -192.01178388    323.105808    0.72206    0.04724    0.25138    5      6.7     47.7     diag
    7      0.114D-03      0.791D-04      -192.01179923    323.143549    0.72451    0.04032    0.24690    6      6.6     54.3     diag
    8      0.505D-04      0.151D-04      -192.01179986    323.153984    0.72502    0.04112    0.24784    7      6.3     60.6     diag
    9      0.918D-05      0.604D-06      -192.01179986    323.154318    0.72494    0.04123    0.24780    8      5.8     66.4     diag
   10      0.769D-06      0.180D-06      -192.01179986    323.154303    0.72499    0.04114    0.24781    0      5.5     71.9     orth

 Final occupancy:  14

 !RKS STATE  1.1 Energy              -192.011799863322
 Nuclear energy                        68.12162789
 One-electron energy                 -397.12403295
 Two-electron energy                  161.57715142
 Density functional                   -24.58654622     PBEX=-23.68105175 PBEC= -0.90549447
 Virial quotient                       -1.00560588
 !RKS STATE  1.1 Dipole moment          0.72498904     0.04113770     0.24780661
 Dipole moment /Debye                   1.84261763     0.10455476     0.62982033

 Orbital energies:

         1.1          2.1          3.1          4.1          5.1          6.1          7.1          8.1          9.1         10.1
    -18.762541   -18.754208    -9.926298    -0.941209    -0.925288    -0.625163    -0.476018    -0.464564    -0.396806    -0.385614

        11.1         12.1         13.1         14.1         15.1         16.1
     -0.338189    -0.300704    -0.260179    -0.236998    -0.036168    -0.019272


 HOMO     14.1    -0.236998 =      -6.4490eV
 LUMO     15.1    -0.036168 =      -0.9842eV
 LUMO-HOMO         0.200830 =       5.4649eV


 **********************************************************************************************************************************
 DATASETS  * FILE   NREC   LENGTH (MB)   RECORD NAMES
              1      19       32.92       500      610      700      900      950      970     1000      129      960     1100   
                                          VAR    BASINP    GEOM    SYMINP    ZMAT    AOBASIS   BASIS     P2S    ABASIS      S 
                                         1400     1410     1200     1210     1080     1600     1650     1700     1800   
                                           T        V       H0       H01     AOSYM     SMH    MOLCAS    OPER     GRID   

              2       5        4.46       700     1000      520     1800     2101   
                                         GEOM     BASIS   MCVARS    GRID      RKS  

 PROGRAMS   *        TOTAL   RKS-SCF       INT
 CPU TIMES  *        72.94     72.34      0.42
 REAL TIME  *        75.61 SEC
 DISK USED  *        42.66 MB (local),      170.63 MB (total)
 SF USED    *         0.92 MB
 GA USED    *         2.65 MB       (max)       2.65 MB       (current)
 **********************************************************************************************************************************
 SETTING EAB_PBE        =      -192.01179986  AU                              

 Dummy atoms: O2  H3  C1  H4  H5  H6


 Recomputing one-electron integrals since nuclear charges changed


 PROGRAM * SEWARD (Integral evaluation for generally contracted gaussian basis sets)     Author: Roland Lindh, 1990

 Geometry written to block  1 of record 700


 Point group  C1  



 ATOMIC COORDINATES

 NR  ATOM    CHARGE       X              Y              Z

   1  O1      8.00   -0.992729436   -0.096321389   -0.594350729
   2  H1      1.00   -1.780134544    1.413329251    0.021264740
   3  H2      1.00    0.762875870    0.112979130   -0.139024067
   4  O2      0.00    8.158115814    0.057754105    0.423182577
   5  H3      0.00    8.853502570   -1.023315509    1.703525557
   6  C1      0.00    9.036848045   -0.833497269   -1.961952466
   7  H4      0.00    8.222721726    0.396891489   -3.385131727
   8  H5      0.00   11.089021995   -0.737512672   -2.102381658
   9  H6      0.00    8.416370422   -2.760771301   -2.338160341

 Bond lengths in Bohr (Angstrom)

 1-2  1.810534248  1-3  1.825726996  4-5  1.814263596  4-6  2.693579128  6-7  2.049901795
     ( 0.958093464)     ( 0.966133120)     ( 0.960066950)     ( 1.425380690)     ( 1.084761314)

 6-8  2.059211335  6-9  2.059346994
     ( 1.089687711)     ( 1.089759498)

 Bond angles

  2-1-3  103.75741034   4-6-7  106.65459099   4-6-8  111.72059382   4-6-9  111.90879545

  5-4-6  107.61952492   7-6-8  108.69153234   7-6-9  108.37480423   8-6-9  109.35579191

 NUCLEAR CHARGE:                   10
 NUMBER OF PRIMITIVE AOS:         363
 NUMBER OF SYMMETRY AOS:          324
 NUMBER OF CONTRACTIONS:          276   (  276A   )
 NUMBER OF CORE ORBITALS:           1   (    1A   )
 NUMBER OF VALENCE ORBITALS:        6   (    6A   )

 MOLECULE CHANGED: INITIALIZING OCCUPATION AND DUMP RECORDS


 NUCLEAR REPULSION ENERGY    9.14996834


 Eigenvalues of metric

         1 0.569E-04 0.673E-04 0.791E-04 0.172E-03 0.299E-03 0.376E-03 0.406E-03 0.470E-03


 OPERATOR DM      FOR CENTER  0  COORDINATES:    0.000000    0.000000    0.000000


 **********************************************************************************************************************************
 DATASETS  * FILE   NREC   LENGTH (MB)   RECORD NAMES
              1      19       32.92       500      610      700      900      950      970     1000      129      960     1100   
                                          VAR    BASINP    GEOM    SYMINP    ZMAT    AOBASIS   BASIS     P2S    ABASIS      S 
                                         1400     1410     1200     1210     1080     1600     1650     1700     1800   
                                           T        V       H0       H01     AOSYM     SMH    MOLCAS    OPER     GRID   

              2       5        4.46       700     1000      520     1800     2101   
                                         GEOM     BASIS   MCVARS    GRID      RKS  

 PROGRAMS   *        TOTAL       INT   RKS-SCF       INT
 CPU TIMES  *        73.08      0.13     72.34      0.42
 REAL TIME  *        75.86 SEC
 DISK USED  *        42.66 MB (local),      170.63 MB (total)
 SF USED    *         0.92 MB
 GA USED    *         2.65 MB       (max)       2.65 MB       (current)
 **********************************************************************************************************************************

 Density functional group PBE=PBEX+PBEC
 Functional: PBEX(Automatically generated (new) PBEX)                          Gradient terms: 1
 Functional: PBEC(Automatically generated (new) PBEC)                          Gradient terms: 1
 Use libxcgrid:  F
 Use grid at  1800.2

 Functional: PBEX                      Factor:  1.0000
 Functional: PBEC                      Factor:  1.0000

 Generated new metagrid on record  1800.2 with target accuracy 1.0D-08 and 80784 points in CPU time    0.3
 Computed new grid on record 1800.1 in CPU time    0.3
  223668 words reserved for DFT integration

 PROGRAM * RKS-SCF (Restricted closed shell Kohn-Sham)     Authors: W. Meyer, H.-J. Werner, P.J. Knowles, 1993

 NUMBER OF ELECTRONS:       5+    5-    SPACE SYMMETRY=1    SPIN SYMMETRY: Singlet 
 CONVERGENCE THRESHOLDS:    1.00E-04 (Density)    1.00E-08 (Energy)
 INTEGRAL THRESHOLDS:       1.00E-11 (Initial)    1.00E-11 (Final)
 MAX. NUMBER OF ITERATIONS:       60
 INTERPOLATION TYPE:            DIIS
 INTERPOLATION STEPS:              2 (START)      1 (STEP)
 LEVEL SHIFTS:                  0.00 (CLOSED)  0.00 (OPEN) 



 Use fine grid record 1800.2 for energy threshold  1.0D-08
 Orbital guess generated from atomic densities. Full valence occupancy:    7

 Molecular orbital dump at record        2201.2

 Initial occupancy:   5

 Direct Fock-matrix evaluation.        Authors: Roland Lindh & Martin Schuetz (1993/96)

 Integral Threshold:                  0.1D-10
 Threshold for writing integrals:     0.1D-06
 Prescreening on density matrix:        ON 
 Calculation will be performed fully direct        

 ITERATION   DDIFF            GRAD            ENERGY        2-EL.EN.            DIPOLE MOMENTS         DIIS   CPU(IT)  CPU(TOT)
    1      0.000D+00      0.000D+00       -76.29646400     98.082266    0.47798    0.84253    0.52560    0      8.2     12.0     start
    2      0.000D+00      0.926D-02       -75.92469975     81.988624   -0.19933   -0.30549   -0.19448    1      7.1     19.0     diag
    3      0.102D-01      0.209D-01       -76.37981561     93.528633    0.31783    0.56600    0.35245    2      7.1     26.1     diag
    4      0.700D-02      0.526D-03       -76.38018884     93.146284    0.30523    0.54530    0.33933    3      6.5     32.6     diag
    5      0.240D-03      0.120D-03       -76.38020180     93.194376    0.30462    0.54389    0.33849    4      6.2     38.8     diag
    6      0.401D-04      0.282D-04       -76.38020264     93.205841    0.30560    0.54564    0.33958    5      5.8     44.6     diag
    7      0.963D-05      0.921D-06       -76.38020264     93.206090    0.30558    0.54559    0.33955    6      5.0     49.6     diag
    8      0.320D-06      0.801D-07       -76.38020264     93.206193    0.30558    0.54560    0.33955    0      4.0     53.6     orth

 Final occupancy:   5

 !RKS STATE  1.1 Energy               -76.380202643106
 Nuclear energy                         9.14996834
 One-electron energy                 -122.90150093
 Two-electron energy                   46.60309639
 Density functional                    -9.23176644     PBEX=-8.90723525 PBEC=-0.32453119
 Virial quotient                       -1.00554974
 !RKS STATE  1.1 Dipole moment          0.30558151     0.54560411     0.33955488
 Dipole moment /Debye                   0.77665986     1.38669649     0.86300590

 Orbital energies:

         1.1          2.1          3.1          4.1          5.1          6.1          7.1
    -18.760584    -0.931680    -0.482518    -0.344298    -0.266205    -0.034708     0.013682


 HOMO      5.1    -0.266205 =      -7.2438eV
 LUMO      6.1    -0.034708 =      -0.9445eV
 LUMO-HOMO         0.231497 =       6.2993eV


 **********************************************************************************************************************************
 DATASETS  * FILE   NREC   LENGTH (MB)   RECORD NAMES
              1      19       32.92       500      610      700      900      950      970     1000      129      960     1100   
                                          VAR    BASINP    GEOM    SYMINP    ZMAT    AOBASIS   BASIS     P2S    ABASIS      S 
                                         1400     1410     1200     1210     1080     1600     1650     1700     1800   
                                           T        V       H0       H01     AOSYM     SMH    MOLCAS    OPER     GRID   

              2       6       10.02       700     1000      520     1800     2101     2201   
                                         GEOM     BASIS   MCVARS    GRID      RKS      RKS  

 PROGRAMS   *        TOTAL   RKS-SCF       INT   RKS-SCF       INT
 CPU TIMES  *       127.04     53.96      0.13     72.34      0.42
 REAL TIME  *       130.09 SEC
 DISK USED  *        47.60 MB (local),      190.40 MB (total)
 SF USED    *         0.92 MB
 GA USED    *         2.65 MB       (max)       2.65 MB       (current)
 **********************************************************************************************************************************
 SETTING EA_PBE         =       -76.38020264  AU                              

 Dummy atoms: O1  H1  H2


 Recomputing one-electron integrals since nuclear charges changed


 PROGRAM * SEWARD (Integral evaluation for generally contracted gaussian basis sets)     Author: Roland Lindh, 1990

 Geometry written to block  1 of record 700


 Point group  C1  



 ATOMIC COORDINATES

 NR  ATOM    CHARGE       X              Y              Z

   1  O1      0.00   -0.992729436   -0.096321389   -0.594350729
   2  H1      0.00   -1.780134544    1.413329251    0.021264740
   3  H2      0.00    0.762875870    0.112979130   -0.139024067
   4  O2      8.00    8.158115814    0.057754105    0.423182577
   5  H3      1.00    8.853502570   -1.023315509    1.703525557
   6  C1      6.00    9.036848045   -0.833497269   -1.961952466
   7  H4      1.00    8.222721726    0.396891489   -3.385131727
   8  H5      1.00   11.089021995   -0.737512672   -2.102381658
   9  H6      1.00    8.416370422   -2.760771301   -2.338160341

 Bond lengths in Bohr (Angstrom)

 1-2  1.810534248  1-3  1.825726996  4-5  1.814263596  4-6  2.693579128  6-7  2.049901795
     ( 0.958093464)     ( 0.966133120)     ( 0.960066950)     ( 1.425380690)     ( 1.084761314)

 6-8  2.059211335  6-9  2.059346994
     ( 1.089687711)     ( 1.089759498)

 Bond angles

  2-1-3  103.75741034   4-6-7  106.65459099   4-6-8  111.72059382   4-6-9  111.90879545

  5-4-6  107.61952492   7-6-8  108.69153234   7-6-9  108.37480423   8-6-9  109.35579191

 NUCLEAR CHARGE:                   18
 NUMBER OF PRIMITIVE AOS:         363
 NUMBER OF SYMMETRY AOS:          324
 NUMBER OF CONTRACTIONS:          276   (  276A   )
 NUMBER OF CORE ORBITALS:           2   (    2A   )
 NUMBER OF VALENCE ORBITALS:       12   (   12A   )

 MOLECULE CHANGED: INITIALIZING OCCUPATION AND DUMP RECORDS


 NUCLEAR REPULSION ENERGY   40.29463209


 Eigenvalues of metric

         1 0.569E-04 0.673E-04 0.791E-04 0.172E-03 0.299E-03 0.376E-03 0.406E-03 0.470E-03


 OPERATOR DM      FOR CENTER  0  COORDINATES:    0.000000    0.000000    0.000000


 **********************************************************************************************************************************
 DATASETS  * FILE   NREC   LENGTH (MB)   RECORD NAMES
              1      19       32.92       500      610      700      900      950      970     1000      129      960     1100   
                                          VAR    BASINP    GEOM    SYMINP    ZMAT    AOBASIS   BASIS     P2S    ABASIS      S 
                                         1400     1410     1200     1210     1080     1600     1650     1700     1800   
                                           T        V       H0       H01     AOSYM     SMH    MOLCAS    OPER     GRID   

              2       6       10.02       700     1000      520     1800     2101     2201   
                                         GEOM     BASIS   MCVARS    GRID      RKS      RKS  

 PROGRAMS   *        TOTAL       INT   RKS-SCF       INT   RKS-SCF       INT
 CPU TIMES  *       127.15      0.10     53.96      0.13     72.34      0.42
 REAL TIME  *       130.30 SEC
 DISK USED  *        47.60 MB (local),      190.40 MB (total)
 SF USED    *         0.92 MB
 GA USED    *         2.65 MB       (max)       2.65 MB       (current)
 **********************************************************************************************************************************

 Density functional group PBE=PBEX+PBEC
 Functional: PBEX(Automatically generated (new) PBEX)                          Gradient terms: 1
 Functional: PBEC(Automatically generated (new) PBEC)                          Gradient terms: 1
 Use libxcgrid:  F
 Use grid at  1800.2

 Functional: PBEX                      Factor:  1.0000
 Functional: PBEC                      Factor:  1.0000

 Generated new metagrid on record  1800.2 with target accuracy 1.0D-08 and 80784 points in CPU time    0.2
 Computed new grid on record 1800.1 in CPU time    0.3
  223668 words reserved for DFT integration

 PROGRAM * RKS-SCF (Restricted closed shell Kohn-Sham)     Authors: W. Meyer, H.-J. Werner, P.J. Knowles, 1993

 NUMBER OF ELECTRONS:       9+    9-    SPACE SYMMETRY=1    SPIN SYMMETRY: Singlet 
 CONVERGENCE THRESHOLDS:    1.00E-04 (Density)    1.00E-08 (Energy)
 INTEGRAL THRESHOLDS:       1.00E-11 (Initial)    1.00E-11 (Final)
 MAX. NUMBER OF ITERATIONS:       60
 INTERPOLATION TYPE:            DIIS
 INTERPOLATION STEPS:              2 (START)      1 (STEP)
 LEVEL SHIFTS:                  0.00 (CLOSED)  0.00 (OPEN) 



 Use fine grid record 1800.2 for energy threshold  1.0D-08
 Orbital guess generated from atomic densities. Full valence occupancy:   14

 Molecular orbital dump at record        2301.2

 Initial occupancy:   9

 Direct Fock-matrix evaluation.        Authors: Roland Lindh & Martin Schuetz (1993/96)

 Integral Threshold:                  0.1D-10
 Threshold for writing integrals:     0.1D-06
 Prescreening on density matrix:        ON 
 Calculation will be performed fully direct        

 ITERATION   DDIFF            GRAD            ENERGY        2-EL.EN.            DIPOLE MOMENTS         DIIS   CPU(IT)  CPU(TOT)
    1      0.000D+00      0.000D+00      -115.53087915    199.524632    0.59504   -0.78705   -0.08194    0      8.5     12.4     start
    2      0.000D+00      0.676D-02      -115.29514916    179.812804   -0.13497    0.19155   -0.03840    1      7.3     19.7     diag
    3      0.115D-01      0.129D-01      -115.62365281    192.978275    0.43823   -0.56726   -0.16288    2      7.3     27.0     diag
    4      0.708D-02      0.185D-02      -115.62963544    192.758156    0.37332   -0.49165   -0.06808    3      6.9     33.9     diag
    5      0.130D-02      0.558D-03      -115.63021230    192.596397    0.37677   -0.49471   -0.07975    4      6.7     40.6     diag
    6      0.381D-03      0.923D-04      -115.63022812    192.627001    0.37762   -0.49558   -0.08260    5      6.6     47.2     diag
    7      0.483D-04      0.134D-04      -115.63022847    192.638083    0.37848   -0.49669   -0.08275    6      6.1     53.3     diag
    8      0.793D-05      0.943D-06      -115.63022847    192.638161    0.37832   -0.49649   -0.08276    7      5.7     59.0     diag
    9      0.110D-05      0.272D-06      -115.63022847    192.638070    0.37839   -0.49657   -0.08273    0      5.3     64.4     orth

 Final occupancy:   9

 !RKS STATE  1.1 Energy              -115.630228470670
 Nuclear energy                        40.29463209
 One-electron energy                 -236.88941341
 Two-electron energy                   96.31903490
 Density functional                   -15.35448206     PBEX=-14.77352907 PBEC= -0.58095299
 Virial quotient                       -1.00561623
 !RKS STATE  1.1 Dipole moment          0.37838609    -0.49657257    -0.08273333
 Dipole moment /Debye                   0.96169851    -1.26207891    -0.21027338

 Orbital energies:

         1.1          2.1          3.1          4.1          5.1          6.1          7.1          8.1          9.1         10.1
    -18.756917    -9.922473    -0.935811    -0.620978    -0.459761    -0.392700    -0.380997    -0.295529    -0.231589    -0.024307

        11.1
     -0.001382


 HOMO      9.1    -0.231589 =      -6.3019eV
 LUMO     10.1    -0.024307 =      -0.6614eV
 LUMO-HOMO         0.207282 =       5.6404eV


 **********************************************************************************************************************************
 DATASETS  * FILE   NREC   LENGTH (MB)   RECORD NAMES
              1      19       32.92       500      610      700      900      950      970     1000      129      960     1100   
                                          VAR    BASINP    GEOM    SYMINP    ZMAT    AOBASIS   BASIS     P2S    ABASIS      S 
                                         1400     1410     1200     1210     1080     1600     1650     1700     1800   
                                           T        V       H0       H01     AOSYM     SMH    MOLCAS    OPER     GRID   

              2       7       15.57       700     1000      520     1800     2101     2201     2301   
                                         GEOM     BASIS   MCVARS    GRID      RKS      RKS      RKS  

 PROGRAMS   *        TOTAL   RKS-SCF       INT   RKS-SCF       INT   RKS-SCF       INT
 CPU TIMES  *       191.89     64.74      0.10     53.96      0.13     72.34      0.42
 REAL TIME  *       195.51 SEC
 DISK USED  *        53.46 MB (local),      213.84 MB (total)
 SF USED    *         0.92 MB
 GA USED    *         2.65 MB       (max)       2.65 MB       (current)
 **********************************************************************************************************************************
 SETTING EB_PBE         =      -115.63022847  AU                              
 SETTING E_AB_INT       =        -0.00136875  AU                              

 *** results in hartree
 E_AB_INT         =        -0.00136875 AU
 Molecular orbitals read from record     2301.2  Type=RKS/CANONICAL (state 1.1)
 Occupation numbers read from record     2301.2  Type=RKS/RHF (state 1.1)
 Orbital energies read from record       2301.2  Type=RKS/CANONICAL (state 1.1)
 Redundancy group numbers read from rec  2301.2  Type=RKS/RHF (state 1.1)

 RPBE/aug-cc-pVTZ energy=   -115.630228470670

         RKS-SCF         RKS-SCF         RKS-SCF
   -115.63022847    -76.38020264   -192.01179986
 **********************************************************************************************************************************
 Molpro calculation terminated
