
 Primary working directories    : /scratch/sirous/43264/molpro.JoEBScmcTO
 Secondary working directories  : /scratch/sirous/43264/molpro.JoEBScmcTO
 Wavefunction directory         : /scratch/sirous/43264/
 Main file repository           : /scratch/sirous/43264/molpro.JoEBScmcTO/

 id        : karlovklimes

 Nodes                      nprocs
 nc-08.cc.karlov.mff.cuni.cz    4

 Using customized tuning parameters: mindgm=1; mindgv=20; mindgc=4; mindgr=1; noblas=0; minvec=7
 default implementation of scratch files=sf  


 Variables initialized (934), CPU time= 0.01 sec
 ***,CH3C6H4CN+CF3CN+BF3
 memory,500,m
 gdirect
 gthresh,energy=1.d-8,twoint=1.d-19,oneint=1.d-19,zero=1.d-15,orbital=1.d-8,grid=1.d-8
 symmetry,nosym
 geomtyp=xyz
                                                                                 ! Geometry
 geometry={
 O1        -0.525329794    -0.050971084     -0.314516861
 H1        -0.942006633    0.747901631     0.011252816
 H2        0.403696525    0.059785981     -0.073568368
 O2        4.121324626111177    0.03202405861875355     0.20905602800845152
 H3        4.489307450111176    -0.5400533443812464     0.8865843550084516
 C1        4.586329697111177    -0.4396058573812464     -1.0531030819915486
 H4        4.155512602111177    0.21148783361875353     -1.8062171139915484
 H5        5.6722933841111765    -0.38881299638124645     -1.1274150099915485
 H6        4.257987079111176    -1.4594753543812464     -1.2521837159915485
 }
 
 
 
 basis=avtz
 
 
 
                                                                                 ! Dimer Calculation
 {rks,pbe,accu=1.d-8;orbital,2101.2}
 eab_PBE=energy
 
 
                                                                                 !monomer A
 dummy,4,5,6,7,8,9;                                                              ! NOW MONOMER B IS DUMMY
 {rks,pbe,accu=1.d-8;orbital,2201.2}
 ea_PBE=energy
                                                                                 !monomer B
 dummy,1,2,3;                                                                    !NOW MONOMER A IS DUMMY
 {rks,pbe,accu=1.d-8;orbital,2301.2}
 eb_PBE=energy
 
 E_AB_int=eab_PBE-ea_PBE-eb_PBE
 
 
 text,results in hartree
 show,E_AB_int
 
 Commands  initialized (763), CPU time= 0.02 sec, 617 directives.
 Default parameters read. Elapsed time= 0.19 sec

 Checking input...
 Passed
1


                                         ***  PROGRAM SYSTEM MOLPRO  ***
                                       Copyright, TTI GmbH Stuttgart, 2015
                                    Version 2019.2 linked Jun  8 2019 11:26:33


 **********************************************************************************************************************************
 LABEL *   CH3C6H4CN+CF3CN+BF3                                                           
  64 bit mpp version                                                                     DATE: 06-Oct-19          TIME: 19:26:40  
 **********************************************************************************************************************************

 SHA1:             8135a10abc80eafa5b3ae28ffc55be4890dc4c84
 **********************************************************************************************************************************

 THRESHOLDS:

 ZERO    =  1.00D-15  ONEINT  =  1.00D-19  TWOINT  =  1.00D-19  PREFAC  =  1.00D-14  XXXXXX  =  1.00D-09  EORDER  =  1.00D-04
 ENERGY  =  1.00D-08  ETEST   =  0.00D+00  EDENS   =  0.00D+00  THRDEDEF=  1.00D-06  GRADIENT=  1.00D-02  STEP    =  1.00D-03
 ORBITAL =  1.00D-08  CIVEC   =  1.00D-05  COEFF   =  1.00D-04  PRINTCI =  5.00D-02  PUNCHCI =  9.90D+01  OPTGRAD =  3.00D-04
 OPTENERG=  1.00D-06  OPTSTEP =  3.00D-04  THRGRAD =  1.00D-10  COMPRESS=  1.00D-11  VARMIN  =  1.00D-07  VARMAX  =  1.00D-03
 THRDOUB =  0.00D+00  THRDIV  =  1.00D-05  THRRED  =  1.00D-07  THRPSP  =  1.00D+00  THRDC   =  1.00D-10  THRCS   =  1.00D-10
 THRNRM  =  1.00D-08  THREQ   =  0.00D+00  THRDE   =  1.00D+00  THRREF  =  1.00D-05  SPARFAC =  1.00D+00  THRDLP  =  1.00D-07
 THRDIA  =  1.00D-10  THRDLS  =  1.00D-07  THRGPS  =  0.00D+00  THRKEX  =  0.00D+00  THRDIS  =  2.00D-01  THRVAR  =  1.00D-10
 THRLOC  =  1.00D-06  THRGAP  =  1.00D-06  THRLOCT = -1.00D+00  THRGAPT = -1.00D+00  THRORB  =  1.00D-06  THRMLTP =  0.00D+00
 THRCPQCI=  1.00D-10  KEXTA   =  0.00D+00  THRCOARS=  0.00D+00  SYMTOL  =  1.00D-06  GRADTOL =  1.00D-06  THROVL  =  1.00D-08
 THRORTH =  1.00D-08  GRID    =  1.00D-08  GRIDMAX =  1.00D-03  DTMAX   =  0.00D+00  THROCCDE=  1.00D-01  THROCCDE=  1.00D-01
 THRPRINT=  2.50D-01


 Variable memory set to  500000000 words,  buffer space 

 SETTING GEOMTYP        =    XYZ
 ZSYMEL=NOSYM

 SETTING BASIS          =    AVTZ


 Recomputing integrals since basis changed


 Using spherical harmonics

 Library entry O      S aug-cc-pVTZ          selected for orbital group  1
 Library entry O      P aug-cc-pVTZ          selected for orbital group  1
 Library entry O      D aug-cc-pVTZ          selected for orbital group  1
 Library entry O      F aug-cc-pVTZ          selected for orbital group  1
 Library entry H      S aug-cc-pVTZ          selected for orbital group  2
 Library entry H      P aug-cc-pVTZ          selected for orbital group  2
 Library entry H      D aug-cc-pVTZ          selected for orbital group  2
 Library entry C      S aug-cc-pVTZ          selected for orbital group  5
 Library entry C      P aug-cc-pVTZ          selected for orbital group  5
 Library entry C      D aug-cc-pVTZ          selected for orbital group  5
 Library entry C      F aug-cc-pVTZ          selected for orbital group  5


 PROGRAM * SEWARD (Integral evaluation for generally contracted gaussian basis sets)     Author: Roland Lindh, 1990

 Geometry written to block  1 of record 700


 Point group  C1  



 ATOMIC COORDINATES

 NR  ATOM    CHARGE       X              Y              Z

   1  O1      8.00   -0.992729436   -0.096321389   -0.594350729
   2  H1      1.00   -1.780134544    1.413329251    0.021264740
   3  H2      1.00    0.762875870    0.112979130   -0.139024067
   4  O2      8.00    7.788174814    0.060516700    0.395058638
   5  H3      1.00    8.483561570   -1.020552914    1.675401617
   6  C1      6.00    8.666907044   -0.830734673   -1.990076406
   7  H4      1.00    7.852780725    0.399654084   -3.413255667
   8  H5      1.00   10.719080994   -0.734750077   -2.130505598
   9  H6      1.00    8.046429421   -2.758008705   -2.366284281

 Bond lengths in Bohr (Angstrom)

 1-2  1.810534248  1-3  1.825726996  4-5  1.814263596  4-6  2.693579128  6-7  2.049901795
     ( 0.958093464)     ( 0.966133120)     ( 0.960066950)     ( 1.425380690)     ( 1.084761314)

 6-8  2.059211335  6-9  2.059346994
     ( 1.089687711)     ( 1.089759498)

 Bond angles

  2-1-3  103.75741034   4-6-7  106.65459099   4-6-8  111.72059382   4-6-9  111.90879545

  5-4-6  107.61952492   7-6-8  108.69153234   7-6-9  108.37480423   8-6-9  109.35579191

 NUCLEAR CHARGE:                   28
 NUMBER OF PRIMITIVE AOS:         363
 NUMBER OF SYMMETRY AOS:          324
 NUMBER OF CONTRACTIONS:          276   (  276A   )
 NUMBER OF CORE ORBITALS:           3   (    3A   )
 NUMBER OF VALENCE ORBITALS:       18   (   18A   )


 NUCLEAR REPULSION ENERGY   68.86139614


 Eigenvalues of metric

         1 0.567E-04 0.651E-04 0.777E-04 0.169E-03 0.290E-03 0.374E-03 0.406E-03 0.464E-03


 OPERATOR DM      FOR CENTER  0  COORDINATES:    0.000000    0.000000    0.000000


 **********************************************************************************************************************************
 DATASETS  * FILE   NREC   LENGTH (MB)   RECORD NAMES
              1      18       32.92       500      610      700      900      950      970     1000      129      960     1100   
                                          VAR    BASINP    GEOM    SYMINP    ZMAT    AOBASIS   BASIS     P2S    ABASIS      S 
                                         1400     1410     1200     1210     1080     1600     1650     1700   
                                           T        V       H0       H01     AOSYM     SMH    MOLCAS    OPER   

 PROGRAMS   *        TOTAL       INT
 CPU TIMES  *         0.58      0.40
 REAL TIME  *         1.20 SEC
 DISK USED  *        33.40 MB (local),      133.59 MB (total)
 GA USED    *         0.00 MB       (max)       0.00 MB       (current)
 **********************************************************************************************************************************

 Density functional group PBE=PBEX+PBEC
 Functional: PBEX(Automatically generated (new) PBEX)                          Gradient terms: 1
 Functional: PBEC(Automatically generated (new) PBEC)                          Gradient terms: 1
 Use libxcgrid:  F
 Use grid at  1800.2

 Functional: PBEX                      Factor:  1.0000
 Functional: PBEC                      Factor:  1.0000

 Generated new metagrid on record  1800.2 with target accuracy 1.0D-08 and 80784 points in CPU time    0.3
 Computed new grid on record 1800.1 in CPU time    0.3
  223668 words reserved for DFT integration

 PROGRAM * RKS-SCF (Restricted closed shell Kohn-Sham)     Authors: W. Meyer, H.-J. Werner, P.J. Knowles, 1993

 NUMBER OF ELECTRONS:      14+   14-    SPACE SYMMETRY=1    SPIN SYMMETRY: Singlet 
 CONVERGENCE THRESHOLDS:    1.00E-04 (Density)    1.00E-08 (Energy)
 INTEGRAL THRESHOLDS:       1.00E-11 (Initial)    1.00E-11 (Final)
 MAX. NUMBER OF ITERATIONS:       60
 INTERPOLATION TYPE:            DIIS
 INTERPOLATION STEPS:              2 (START)      1 (STEP)
 LEVEL SHIFTS:                  0.00 (CLOSED)  0.00 (OPEN) 



 Use fine grid record 1800.2 for energy threshold  1.0D-08
 Orbital guess generated from atomic densities. Full valence occupancy:   21

 Molecular orbital dump at record        2101.2

 Initial occupancy:  14

 Direct Fock-matrix evaluation.        Authors: Roland Lindh & Martin Schuetz (1993/96)

 Integral Threshold:                  0.1D-10
 Threshold for writing integrals:     0.1D-06
 Prescreening on density matrix:        ON 
 Calculation will be performed fully direct        

 ITERATION   DDIFF            GRAD            ENERGY        2-EL.EN.            DIPOLE MOMENTS         DIIS   CPU(IT)  CPU(TOT)
    1      0.000D+00      0.000D+00      -191.83050002    336.353949    1.07540    0.05541    0.44366    0      8.6     11.8     start
    2      0.000D+00      0.782D-02      -191.23460746    300.730233   -0.11442   -0.13462   -0.26282    1      7.3     19.0     diag
    3      0.154D-01      0.163D-01      -192.00412140    325.095191    0.78586    0.05790    0.20935    2      7.4     26.4     diag
    4      0.995D-02      0.158D-02      -192.01057136    324.919466    0.72654    0.03962    0.26877    3      7.0     33.4     diag
    5      0.167D-02      0.683D-03      -192.01201327    324.579562    0.73179    0.03404    0.24593    4      6.9     40.2     diag
    6      0.601D-03      0.142D-03      -192.01204743    324.581591    0.72864    0.04618    0.25013    5      6.7     46.9     diag
    7      0.114D-03      0.789D-04      -192.01206268    324.619319    0.73104    0.03929    0.24566    6      6.5     53.4     diag
    8      0.504D-04      0.151D-04      -192.01206331    324.629660    0.73155    0.04008    0.24660    7      6.2     59.6     diag
    9      0.919D-05      0.608D-06      -192.01206331    324.629998    0.73146    0.04020    0.24656    8      5.8     65.4     diag
   10      0.769D-06      0.183D-06      -192.01206331    324.629978    0.73151    0.04010    0.24657    0      5.4     70.9     orth

 Final occupancy:  14

 !RKS STATE  1.1 Energy              -192.012063312189
 Nuclear energy                        68.86139614
 One-electron energy                 -398.60186358
 Two-electron energy                  162.31498915
 Density functional                   -24.58658501     PBEX=-23.68108557 PBEC= -0.90549944
 Virial quotient                       -1.00560897
 !RKS STATE  1.1 Dipole moment          0.73151033     0.04010488     0.24657290
 Dipole moment /Debye                   1.85919203     0.10192976     0.62668474

 Orbital energies:

         1.1          2.1          3.1          4.1          5.1          6.1          7.1          8.1          9.1         10.1
    -18.763190   -18.753515    -9.926631    -0.941808    -0.924592    -0.625556    -0.475304    -0.465064    -0.397196    -0.386068

        11.1         12.1         13.1         14.1         15.1         16.1
     -0.337538    -0.301257    -0.259549    -0.237609    -0.036314    -0.018418


 HOMO     14.1    -0.237609 =      -6.4657eV
 LUMO     15.1    -0.036314 =      -0.9882eV
 LUMO-HOMO         0.201295 =       5.4775eV


 **********************************************************************************************************************************
 DATASETS  * FILE   NREC   LENGTH (MB)   RECORD NAMES
              1      19       32.92       500      610      700      900      950      970     1000      129      960     1100   
                                          VAR    BASINP    GEOM    SYMINP    ZMAT    AOBASIS   BASIS     P2S    ABASIS      S 
                                         1400     1410     1200     1210     1080     1600     1650     1700     1800   
                                           T        V       H0       H01     AOSYM     SMH    MOLCAS    OPER     GRID   

              2       5        4.46       700     1000      520     1800     2101   
                                         GEOM     BASIS   MCVARS    GRID      RKS  

 PROGRAMS   *        TOTAL   RKS-SCF       INT
 CPU TIMES  *        71.84     71.26      0.40
 REAL TIME  *        74.34 SEC
 DISK USED  *        42.66 MB (local),      170.63 MB (total)
 SF USED    *         0.92 MB
 GA USED    *         2.65 MB       (max)       2.65 MB       (current)
 **********************************************************************************************************************************
 SETTING EAB_PBE        =      -192.01206331  AU                              

 Dummy atoms: O2  H3  C1  H4  H5  H6


 Recomputing one-electron integrals since nuclear charges changed


 PROGRAM * SEWARD (Integral evaluation for generally contracted gaussian basis sets)     Author: Roland Lindh, 1990

 Geometry written to block  1 of record 700


 Point group  C1  



 ATOMIC COORDINATES

 NR  ATOM    CHARGE       X              Y              Z

   1  O1      8.00   -0.992729436   -0.096321389   -0.594350729
   2  H1      1.00   -1.780134544    1.413329251    0.021264740
   3  H2      1.00    0.762875870    0.112979130   -0.139024067
   4  O2      0.00    7.788174814    0.060516700    0.395058638
   5  H3      0.00    8.483561570   -1.020552914    1.675401617
   6  C1      0.00    8.666907044   -0.830734673   -1.990076406
   7  H4      0.00    7.852780725    0.399654084   -3.413255667
   8  H5      0.00   10.719080994   -0.734750077   -2.130505598
   9  H6      0.00    8.046429421   -2.758008705   -2.366284281

 Bond lengths in Bohr (Angstrom)

 1-2  1.810534248  1-3  1.825726996  4-5  1.814263596  4-6  2.693579128  6-7  2.049901795
     ( 0.958093464)     ( 0.966133120)     ( 0.960066950)     ( 1.425380690)     ( 1.084761314)

 6-8  2.059211335  6-9  2.059346994
     ( 1.089687711)     ( 1.089759498)

 Bond angles

  2-1-3  103.75741034   4-6-7  106.65459099   4-6-8  111.72059382   4-6-9  111.90879545

  5-4-6  107.61952492   7-6-8  108.69153234   7-6-9  108.37480423   8-6-9  109.35579191

 NUCLEAR CHARGE:                   10
 NUMBER OF PRIMITIVE AOS:         363
 NUMBER OF SYMMETRY AOS:          324
 NUMBER OF CONTRACTIONS:          276   (  276A   )
 NUMBER OF CORE ORBITALS:           1   (    1A   )
 NUMBER OF VALENCE ORBITALS:        6   (    6A   )

 MOLECULE CHANGED: INITIALIZING OCCUPATION AND DUMP RECORDS


 NUCLEAR REPULSION ENERGY    9.14996834


 Eigenvalues of metric

         1 0.567E-04 0.651E-04 0.777E-04 0.169E-03 0.290E-03 0.374E-03 0.406E-03 0.464E-03


 OPERATOR DM      FOR CENTER  0  COORDINATES:    0.000000    0.000000    0.000000


 **********************************************************************************************************************************
 DATASETS  * FILE   NREC   LENGTH (MB)   RECORD NAMES
              1      19       32.92       500      610      700      900      950      970     1000      129      960     1100   
                                          VAR    BASINP    GEOM    SYMINP    ZMAT    AOBASIS   BASIS     P2S    ABASIS      S 
                                         1400     1410     1200     1210     1080     1600     1650     1700     1800   
                                           T        V       H0       H01     AOSYM     SMH    MOLCAS    OPER     GRID   

              2       5        4.46       700     1000      520     1800     2101   
                                         GEOM     BASIS   MCVARS    GRID      RKS  

 PROGRAMS   *        TOTAL       INT   RKS-SCF       INT
 CPU TIMES  *        71.95      0.10     71.26      0.40
 REAL TIME  *        74.48 SEC
 DISK USED  *        42.66 MB (local),      170.63 MB (total)
 SF USED    *         0.92 MB
 GA USED    *         2.65 MB       (max)       2.65 MB       (current)
 **********************************************************************************************************************************

 Density functional group PBE=PBEX+PBEC
 Functional: PBEX(Automatically generated (new) PBEX)                          Gradient terms: 1
 Functional: PBEC(Automatically generated (new) PBEC)                          Gradient terms: 1
 Use libxcgrid:  F
 Use grid at  1800.2

 Functional: PBEX                      Factor:  1.0000
 Functional: PBEC                      Factor:  1.0000

 Generated new metagrid on record  1800.2 with target accuracy 1.0D-08 and 80784 points in CPU time    0.3
 Computed new grid on record 1800.1 in CPU time    0.3
  223668 words reserved for DFT integration

 PROGRAM * RKS-SCF (Restricted closed shell Kohn-Sham)     Authors: W. Meyer, H.-J. Werner, P.J. Knowles, 1993

 NUMBER OF ELECTRONS:       5+    5-    SPACE SYMMETRY=1    SPIN SYMMETRY: Singlet 
 CONVERGENCE THRESHOLDS:    1.00E-04 (Density)    1.00E-08 (Energy)
 INTEGRAL THRESHOLDS:       1.00E-11 (Initial)    1.00E-11 (Final)
 MAX. NUMBER OF ITERATIONS:       60
 INTERPOLATION TYPE:            DIIS
 INTERPOLATION STEPS:              2 (START)      1 (STEP)
 LEVEL SHIFTS:                  0.00 (CLOSED)  0.00 (OPEN) 



 Use fine grid record 1800.2 for energy threshold  1.0D-08
 Orbital guess generated from atomic densities. Full valence occupancy:    7

 Molecular orbital dump at record        2201.2

 Initial occupancy:   5

 Direct Fock-matrix evaluation.        Authors: Roland Lindh & Martin Schuetz (1993/96)

 Integral Threshold:                  0.1D-10
 Threshold for writing integrals:     0.1D-06
 Prescreening on density matrix:        ON 
 Calculation will be performed fully direct        

 ITERATION   DDIFF            GRAD            ENERGY        2-EL.EN.            DIPOLE MOMENTS         DIIS   CPU(IT)  CPU(TOT)
    1      0.000D+00      0.000D+00       -76.29646385     98.082330    0.47798    0.84253    0.52562    0      8.1     11.6     start
    2      0.000D+00      0.926D-02       -75.92452096     81.985537   -0.20048   -0.30631   -0.19485    1      7.2     18.7     diag
    3      0.102D-01      0.209D-01       -76.37981618     93.528849    0.31786    0.56603    0.35248    2      7.1     25.9     diag
    4      0.702D-02      0.527D-03       -76.38018992     93.146222    0.30523    0.54532    0.33935    3      6.5     32.4     diag
    5      0.240D-03      0.120D-03       -76.38020291     93.194374    0.30463    0.54390    0.33851    4      6.2     38.6     diag
    6      0.403D-04      0.282D-04       -76.38020376     93.205843    0.30561    0.54566    0.33960    5      5.8     44.5     diag
    7      0.969D-05      0.923D-06       -76.38020376     93.206094    0.30558    0.54561    0.33957    6      4.9     49.4     diag
    8      0.322D-06      0.806D-07       -76.38020376     93.206197    0.30559    0.54562    0.33958    0      4.0     53.3     orth

 Final occupancy:   5

 !RKS STATE  1.1 Energy               -76.380203756141
 Nuclear energy                         9.14996834
 One-electron energy                 -122.90150415
 Two-electron energy                   46.60309851
 Density functional                    -9.23176645     PBEX=-8.90723517 PBEC=-0.32453128
 Virial quotient                       -1.00554988
 !RKS STATE  1.1 Dipole moment          0.30558873     0.54561939     0.33957940
 Dipole moment /Debye                   0.77667819     1.38673532     0.86306820

 Orbital energies:

         1.1          2.1          3.1          4.1          5.1          6.1          7.1
    -18.760584    -0.931680    -0.482518    -0.344298    -0.266205    -0.034718     0.013737


 HOMO      5.1    -0.266205 =      -7.2438eV
 LUMO      6.1    -0.034718 =      -0.9447eV
 LUMO-HOMO         0.231487 =       6.2991eV


 **********************************************************************************************************************************
 DATASETS  * FILE   NREC   LENGTH (MB)   RECORD NAMES
              1      19       32.92       500      610      700      900      950      970     1000      129      960     1100   
                                          VAR    BASINP    GEOM    SYMINP    ZMAT    AOBASIS   BASIS     P2S    ABASIS      S 
                                         1400     1410     1200     1210     1080     1600     1650     1700     1800   
                                           T        V       H0       H01     AOSYM     SMH    MOLCAS    OPER     GRID   

              2       6       10.02       700     1000      520     1800     2101     2201   
                                         GEOM     BASIS   MCVARS    GRID      RKS      RKS  

 PROGRAMS   *        TOTAL   RKS-SCF       INT   RKS-SCF       INT
 CPU TIMES  *       125.67     53.72      0.10     71.26      0.40
 REAL TIME  *       128.57 SEC
 DISK USED  *        47.60 MB (local),      190.40 MB (total)
 SF USED    *         0.92 MB
 GA USED    *         2.65 MB       (max)       2.65 MB       (current)
 **********************************************************************************************************************************
 SETTING EA_PBE         =       -76.38020376  AU                              

 Dummy atoms: O1  H1  H2


 Recomputing one-electron integrals since nuclear charges changed


 PROGRAM * SEWARD (Integral evaluation for generally contracted gaussian basis sets)     Author: Roland Lindh, 1990

 Geometry written to block  1 of record 700


 Point group  C1  



 ATOMIC COORDINATES

 NR  ATOM    CHARGE       X              Y              Z

   1  O1      0.00   -0.992729436   -0.096321389   -0.594350729
   2  H1      0.00   -1.780134544    1.413329251    0.021264740
   3  H2      0.00    0.762875870    0.112979130   -0.139024067
   4  O2      8.00    7.788174814    0.060516700    0.395058638
   5  H3      1.00    8.483561570   -1.020552914    1.675401617
   6  C1      6.00    8.666907044   -0.830734673   -1.990076406
   7  H4      1.00    7.852780725    0.399654084   -3.413255667
   8  H5      1.00   10.719080994   -0.734750077   -2.130505598
   9  H6      1.00    8.046429421   -2.758008705   -2.366284281

 Bond lengths in Bohr (Angstrom)

 1-2  1.810534248  1-3  1.825726996  4-5  1.814263596  4-6  2.693579128  6-7  2.049901795
     ( 0.958093464)     ( 0.966133120)     ( 0.960066950)     ( 1.425380690)     ( 1.084761314)

 6-8  2.059211335  6-9  2.059346994
     ( 1.089687711)     ( 1.089759498)

 Bond angles

  2-1-3  103.75741034   4-6-7  106.65459099   4-6-8  111.72059382   4-6-9  111.90879545

  5-4-6  107.61952492   7-6-8  108.69153234   7-6-9  108.37480423   8-6-9  109.35579191

 NUCLEAR CHARGE:                   18
 NUMBER OF PRIMITIVE AOS:         363
 NUMBER OF SYMMETRY AOS:          324
 NUMBER OF CONTRACTIONS:          276   (  276A   )
 NUMBER OF CORE ORBITALS:           2   (    2A   )
 NUMBER OF VALENCE ORBITALS:       12   (   12A   )

 MOLECULE CHANGED: INITIALIZING OCCUPATION AND DUMP RECORDS


 NUCLEAR REPULSION ENERGY   40.29463209


 Eigenvalues of metric

         1 0.567E-04 0.651E-04 0.777E-04 0.169E-03 0.290E-03 0.374E-03 0.406E-03 0.464E-03


 OPERATOR DM      FOR CENTER  0  COORDINATES:    0.000000    0.000000    0.000000


 **********************************************************************************************************************************
 DATASETS  * FILE   NREC   LENGTH (MB)   RECORD NAMES
              1      19       32.92       500      610      700      900      950      970     1000      129      960     1100   
                                          VAR    BASINP    GEOM    SYMINP    ZMAT    AOBASIS   BASIS     P2S    ABASIS      S 
                                         1400     1410     1200     1210     1080     1600     1650     1700     1800   
                                           T        V       H0       H01     AOSYM     SMH    MOLCAS    OPER     GRID   

              2       6       10.02       700     1000      520     1800     2101     2201   
                                         GEOM     BASIS   MCVARS    GRID      RKS      RKS  

 PROGRAMS   *        TOTAL       INT   RKS-SCF       INT   RKS-SCF       INT
 CPU TIMES  *       125.78      0.10     53.72      0.10     71.26      0.40
 REAL TIME  *       128.71 SEC
 DISK USED  *        47.60 MB (local),      190.40 MB (total)
 SF USED    *         0.92 MB
 GA USED    *         2.65 MB       (max)       2.65 MB       (current)
 **********************************************************************************************************************************

 Density functional group PBE=PBEX+PBEC
 Functional: PBEX(Automatically generated (new) PBEX)                          Gradient terms: 1
 Functional: PBEC(Automatically generated (new) PBEC)                          Gradient terms: 1
 Use libxcgrid:  F
 Use grid at  1800.2

 Functional: PBEX                      Factor:  1.0000
 Functional: PBEC                      Factor:  1.0000

 Generated new metagrid on record  1800.2 with target accuracy 1.0D-08 and 80784 points in CPU time    0.2
 Computed new grid on record 1800.1 in CPU time    0.3
  223668 words reserved for DFT integration

 PROGRAM * RKS-SCF (Restricted closed shell Kohn-Sham)     Authors: W. Meyer, H.-J. Werner, P.J. Knowles, 1993

 NUMBER OF ELECTRONS:       9+    9-    SPACE SYMMETRY=1    SPIN SYMMETRY: Singlet 
 CONVERGENCE THRESHOLDS:    1.00E-04 (Density)    1.00E-08 (Energy)
 INTEGRAL THRESHOLDS:       1.00E-11 (Initial)    1.00E-11 (Final)
 MAX. NUMBER OF ITERATIONS:       60
 INTERPOLATION TYPE:            DIIS
 INTERPOLATION STEPS:              2 (START)      1 (STEP)
 LEVEL SHIFTS:                  0.00 (CLOSED)  0.00 (OPEN) 



 Use fine grid record 1800.2 for energy threshold  1.0D-08
 Orbital guess generated from atomic densities. Full valence occupancy:   14

 Molecular orbital dump at record        2301.2

 Initial occupancy:   9

 Direct Fock-matrix evaluation.        Authors: Roland Lindh & Martin Schuetz (1993/96)

 Integral Threshold:                  0.1D-10
 Threshold for writing integrals:     0.1D-06
 Prescreening on density matrix:        ON 
 Calculation will be performed fully direct        

 ITERATION   DDIFF            GRAD            ENERGY        2-EL.EN.            DIPOLE MOMENTS         DIIS   CPU(IT)  CPU(TOT)
    1      0.000D+00      0.000D+00      -115.53087984    199.524639    0.59505   -0.78704   -0.08195    0      8.2     11.8     start
    2      0.000D+00      0.676D-02      -115.29510945    179.811639   -0.13516    0.19173   -0.03852    1      7.0     18.8     diag
    3      0.116D-01      0.129D-01      -115.62365197    192.978372    0.43826   -0.56726   -0.16291    2      7.1     25.9     diag
    4      0.710D-02      0.185D-02      -115.62963614    192.758205    0.37333   -0.49164   -0.06809    3      6.7     32.5     diag
    5      0.130D-02      0.558D-03      -115.63021319    192.596377    0.37678   -0.49470   -0.07976    4      6.6     39.2     diag
    6      0.382D-03      0.923D-04      -115.63022902    192.626994    0.37763   -0.49556   -0.08260    5      6.4     45.5     diag
    7      0.483D-04      0.134D-04      -115.63022937    192.638081    0.37849   -0.49668   -0.08276    6      6.0     51.5     diag
    8      0.795D-05      0.943D-06      -115.63022937    192.638160    0.37834   -0.49648   -0.08276    7      5.6     57.1     diag
    9      0.110D-05      0.272D-06      -115.63022937    192.638069    0.37840   -0.49656   -0.08274    0      5.2     62.3     orth

 Final occupancy:   9

 !RKS STATE  1.1 Energy              -115.630229371432
 Nuclear energy                        40.29463209
 One-electron energy                 -236.88941288
 Two-electron energy                   96.31903433
 Density functional                   -15.35448291     PBEX=-14.77353000 PBEC= -0.58095292
 Virial quotient                       -1.00561596
 !RKS STATE  1.1 Dipole moment          0.37839769    -0.49656216    -0.08273992
 Dipole moment /Debye                   0.96172800    -1.26205246    -0.21029011

 Orbital energies:

         1.1          2.1          3.1          4.1          5.1          6.1          7.1          8.1          9.1         10.1
    -18.756918    -9.922472    -0.935811    -0.620978    -0.459762    -0.392700    -0.380997    -0.295529    -0.231590    -0.024311

        11.1
     -0.001385


 HOMO      9.1    -0.231590 =      -6.3019eV
 LUMO     10.1    -0.024311 =      -0.6615eV
 LUMO-HOMO         0.207278 =       5.6403eV


 **********************************************************************************************************************************
 DATASETS  * FILE   NREC   LENGTH (MB)   RECORD NAMES
              1      19       32.92       500      610      700      900      950      970     1000      129      960     1100   
                                          VAR    BASINP    GEOM    SYMINP    ZMAT    AOBASIS   BASIS     P2S    ABASIS      S 
                                         1400     1410     1200     1210     1080     1600     1650     1700     1800   
                                           T        V       H0       H01     AOSYM     SMH    MOLCAS    OPER     GRID   

              2       7       15.57       700     1000      520     1800     2101     2201     2301   
                                         GEOM     BASIS   MCVARS    GRID      RKS      RKS      RKS  

 PROGRAMS   *        TOTAL   RKS-SCF       INT   RKS-SCF       INT   RKS-SCF       INT
 CPU TIMES  *       188.45     62.66      0.10     53.72      0.10     71.26      0.40
 REAL TIME  *       191.93 SEC
 DISK USED  *        53.46 MB (local),      213.84 MB (total)
 SF USED    *         0.92 MB
 GA USED    *         2.65 MB       (max)       2.65 MB       (current)
 **********************************************************************************************************************************
 SETTING EB_PBE         =      -115.63022937  AU                              
 SETTING E_AB_INT       =        -0.00163018  AU                              

 *** results in hartree
 E_AB_INT         =        -0.00163018 AU
 Molecular orbitals read from record     2301.2  Type=RKS/CANONICAL (state 1.1)
 Occupation numbers read from record     2301.2  Type=RKS/RHF (state 1.1)
 Orbital energies read from record       2301.2  Type=RKS/CANONICAL (state 1.1)
 Redundancy group numbers read from rec  2301.2  Type=RKS/RHF (state 1.1)

 RPBE/aug-cc-pVTZ energy=   -115.630229371432

         RKS-SCF         RKS-SCF         RKS-SCF
   -115.63022937    -76.38020376   -192.01206331
 **********************************************************************************************************************************
 Molpro calculation terminated
