 vasp.5.4.1 24Jun15 (build Jan 02 2020 16:21:29) gamma-only                     
  
 executed on           IFC15_impi date 2020.04.24  10:36:42
 running on   32 total cores
 distrk:  each k-point on   32 cores,    1 groups
 distr:  one band on NCORES_PER_BAND=   8 cores,    4 groups


--------------------------------------------------------------------------------------------------------


 INCAR:
 POTCAR:    PAW_PBE O_GW 28Sep2005                
 POTCAR:    PAW_PBE N_GW 10Apr2007                
 POTCAR:    PAW_PBE C_GW 28Sep2005                
 POTCAR:    PAW_PBE H_GW 21Apr2008                
 POTCAR:    PAW_PBE O_GW 28Sep2005                
   VRHFIN =O: s2p4                                                              
   LEXCH  = PE                                                                  
   EATOM  =   432.3788 eV,   31.7789 Ry                                         
                                                                                
   TITEL  = PAW_PBE O_GW 28Sep2005                                              
   LULTRA =        F    use ultrasoft PP ?                                      
   IUNSCR =        0    unscreen: 0-lin 1-nonlin 2-no                           
   RPACOR =    0.000    partial core radius                                     
   POMASS =   16.000; ZVAL   =    6.000    mass and valenz                      
   RCORE  =    1.520    outmost cutoff radius                                   
   RWIGS  =    1.550; RWIGS  =    0.820    wigner-seitz radius (au A)           
   ENMAX  =  414.635; ENMIN  =  310.976 eV                                      
   ICORE  =        2    local potential                                         
   LCOR   =        T    correct aug charges                                     
   LPAW   =        T    paw PP                                                  
   EAUG   =  605.392                                                            
   DEXC   =    0.000                                                            
   RMAX   =    1.553    core radius for proj-oper                               
   RAUG   =    1.300    factor for augmentation sphere                          
   RDEP   =    1.550    radius for radial grids                                 
   RDEPT  =    1.329    core radius for aug-charge                              
                                                                                
   Atomic configuration                                                         
    4 entries                                                                   
     n  l   j            E        occ.                                          
     1  0  0.50      -514.6923   2.0000                                         
     2  0  0.50       -23.9615   2.0000                                         
     2  1  0.50        -9.0305   4.0000                                         
     3  2  1.50        -9.5241   0.0000                                         
   Description                                                                  
     l       E           TYP  RCUT    TYP  RCUT                                 
     0    -23.9615316     23  1.200                                             
     0     81.6349560     23  1.200                                             
     1     -9.0304908     23  1.520                                             
     1     81.6349560     23  1.520                                             
     2     -9.5240782      7  1.500                                             
  local pseudopotential read in
  kinetic energy density of atom read in
  atomic valenz-charges read in
  non local Contribution for L=           0  read in
    real space projection operators read in
  non local Contribution for L=           0  read in
    real space projection operators read in
  non local Contribution for L=           1  read in
    real space projection operators read in
  non local Contribution for L=           1  read in
    real space projection operators read in
    PAW grid and wavefunctions read in
 
   number of l-projection  operators is LMAX  =           4
   number of lm-projection operators is LMMAX =           8
 
 POTCAR:    PAW_PBE N_GW 10Apr2007                
   VRHFIN =N: s2p3                                                              
   LEXCH  = PE                                                                  
   EATOM  =   264.5486 eV,   19.4438 Ry                                         
                                                                                
   TITEL  = PAW_PBE N_GW 10Apr2007                                              
   LULTRA =        F    use ultrasoft PP ?                                      
   IUNSCR =        0    unscreen: 0-lin 1-nonlin 2-no                           
   RPACOR =    0.000    partial core radius                                     
   POMASS =   14.001; ZVAL   =    5.000    mass and valenz                      
   RCORE  =    1.500    outmost cutoff radius                                   
   RWIGS  =    1.400; RWIGS  =    0.741    wigner-seitz radius (au A)           
   ENMAX  =  420.902; ENMIN  =  315.677 eV                                      
   ICORE  =        2    local potential                                         
   LCOR   =        T    correct aug charges                                     
   LPAW   =        T    paw PP                                                  
   EAUG   =  904.640                                                            
   DEXC   =    0.000                                                            
   RMAX   =    1.529    core radius for proj-oper                               
   RAUG   =    1.300    factor for augmentation sphere                          
   RDEP   =    1.514    radius for radial grids                                 
   RDEPT  =    1.100    core radius for aug-charge                              
                                                                                
   Atomic configuration                                                         
    4 entries                                                                   
     n  l   j            E        occ.                                          
     1  0  0.50      -384.7179   2.0000                                         
     2  0  0.50       -18.5828   2.0000                                         
     2  1  0.50        -7.0898   3.0000                                         
     3  2  1.50        -8.1635   0.0000                                         
   Description                                                                  
     l       E           TYP  RCUT    TYP  RCUT                                 
     0    -18.5828120     23  1.300                                             
     0     81.6349560     23  1.300                                             
     1     -7.0897854     23  1.500                                             
     1     81.6349560     23  1.500                                             
     2     -8.1634956      7  1.500                                             
  local pseudopotential read in
  kinetic energy density of atom read in
  atomic valenz-charges read in
  non local Contribution for L=           0  read in
    real space projection operators read in
  non local Contribution for L=           0  read in
    real space projection operators read in
  non local Contribution for L=           1  read in
    real space projection operators read in
  non local Contribution for L=           1  read in
    real space projection operators read in
    PAW grid and wavefunctions read in
 
   number of l-projection  operators is LMAX  =           4
   number of lm-projection operators is LMMAX =           8
 
 POTCAR:    PAW_PBE C_GW 28Sep2005                
   VRHFIN =C: s2p2                                                              
   LEXCH  = PE                                                                  
   EATOM  =   147.1560 eV,   10.8157 Ry                                         
                                                                                
   TITEL  = PAW_PBE C_GW 28Sep2005                                              
   LULTRA =        F    use ultrasoft PP ?                                      
   IUNSCR =        0    unscreen: 0-lin 1-nonlin 2-no                           
   RPACOR =    0.000    partial core radius                                     
   POMASS =   12.011; ZVAL   =    4.000    mass and valenz                      
   RCORE  =    1.500    outmost cutoff radius                                   
   RWIGS  =    1.630; RWIGS  =    0.863    wigner-seitz radius (au A)           
   ENMAX  =  413.992; ENMIN  =  310.494 eV                                      
   ICORE  =        2    local potential                                         
   LCOR   =        T    correct aug charges                                     
   LPAW   =        T    paw PP                                                  
   EAUG   =  644.873                                                            
   DEXC   =    0.000                                                            
   RMAX   =    1.529    core radius for proj-oper                               
   RAUG   =    1.300    factor for augmentation sphere                          
   RDEP   =    1.501    radius for radial grids                                 
   RDEPT  =    1.300    core radius for aug-charge                              
                                                                                
   Atomic configuration                                                         
    4 entries                                                                   
     n  l   j            E        occ.                                          
     1  0  0.50      -273.3789   2.0000                                         
     2  0  0.50       -13.7508   2.0000                                         
     2  1  0.50        -5.2854   2.0000                                         
     3  2  1.50        -5.4423   0.0000                                         
   Description                                                                  
     l       E           TYP  RCUT    TYP  RCUT                                 
     0    -13.7508457     23  1.200                                             
     0     95.2407820     23  1.200                                             
     1     -5.2854382     23  1.500                                             
     1    108.8466080     23  1.500                                             
     2     -5.4423304      7  1.500                                             
  local pseudopotential read in
  kinetic energy density of atom read in
  atomic valenz-charges read in
  non local Contribution for L=           0  read in
    real space projection operators read in
  non local Contribution for L=           0  read in
    real space projection operators read in
  non local Contribution for L=           1  read in
    real space projection operators read in
  non local Contribution for L=           1  read in
    real space projection operators read in
    PAW grid and wavefunctions read in
 
   number of l-projection  operators is LMAX  =           4
   number of lm-projection operators is LMMAX =           8
 
 POTCAR:    PAW_PBE H_GW 21Apr2008                
   VRHFIN =H: ultrasoft test                                                    
   LEXCH  = PE                                                                  
   EATOM  =    12.4884 eV,    0.9179 Ry                                         
                                                                                
   TITEL  = PAW_PBE H_GW 21Apr2008                                              
   LULTRA =        F    use ultrasoft PP ?                                      
   IUNSCR =        0    unscreen: 0-lin 1-nonlin 2-no                           
   RPACOR =    0.000    partial core radius                                     
   POMASS =    1.000; ZVAL   =    1.000    mass and valenz                      
   RCORE  =    1.100    outmost cutoff radius                                   
   RWIGS  =    1.100; RWIGS  =    0.582    wigner-seitz radius (au A)           
   ENMAX  =  300.000; ENMIN  =  250.000 eV                                      
   RCLOC  =    0.701    cutoff for local pot                                    
   LCOR   =        T    correct aug charges                                     
   LPAW   =        T    paw PP                                                  
   EAUG   =  500.000                                                            
   RMAX   =    1.123    core radius for proj-oper                               
   RAUG   =    1.200    factor for augmentation sphere                          
   RDEP   =    1.112    radius for radial grids                                 
   RDEPT  =    1.100    core radius for aug-charge                              
                                                                                
   Atomic configuration                                                         
    3 entries                                                                   
     n  l   j            E        occ.                                          
     1  0  0.50        -6.4927   1.0000                                         
     2  1  0.50        -3.4015   0.0000                                         
     3  2  1.50        13.6058   0.0000                                         
   Description                                                                  
     l       E           TYP  RCUT    TYP  RCUT                                 
     0     -6.4927495     23  0.950                                             
     0      6.8029130     23  0.950                                             
     1     -4.0817478     23  1.100                                             
     1    108.8466080     23  1.100                                             
     2     81.6349560     23  1.100                                             
  local pseudopotential read in
  kinetic energy density of atom read in
  atomic valenz-charges read in
  non local Contribution for L=           0  read in
    real space projection operators read in
  non local Contribution for L=           0  read in
    real space projection operators read in
  non local Contribution for L=           1  read in
    real space projection operators read in
  non local Contribution for L=           1  read in
    real space projection operators read in
  non local Contribution for L=           2  read in
    real space projection operators read in
    PAW grid and wavefunctions read in
 
   number of l-projection  operators is LMAX  =           5
   number of lm-projection operators is LMMAX =          13
 
  PAW_PBE O_GW 28Sep2005                :
 energy of atom  1       EATOM= -432.3788
 kinetic energy error for atom=    0.0005 (will be added to EATOM!!)
  PAW_PBE N_GW 10Apr2007                :
 energy of atom  2       EATOM= -264.5486
 kinetic energy error for atom=    0.0003 (will be added to EATOM!!)
  PAW_PBE C_GW 28Sep2005                :
 energy of atom  3       EATOM= -147.1560
 kinetic energy error for atom=    0.0002 (will be added to EATOM!!)
  PAW_PBE H_GW 21Apr2008                :
 energy of atom  4       EATOM=  -12.4884
 kinetic energy error for atom=    0.0000 (will be added to EATOM!!)
 
 
 POSCAR: O N C H                                 
  positions in cartesian coordinates
  No initial velocities read in
 exchange correlation table for  LEXCH =        8
   RHO(1)=    0.500       N(1)  =     2000
   RHO(2)=  100.500       N(2)  =     4000
 


--------------------------------------------------------------------------------------------------------


 ion  position               nearest neighbor table
   1  0.958  0.029  0.000-   5 1.23
   2  0.983  0.157  0.000-   8 1.22
   3  0.021  0.048  0.000-  10 1.03   5 1.37   6 1.37
   4  0.972  0.093  0.000-  11 1.01   5 1.37   8 1.41
   5  0.982  0.055  0.000-   1 1.23   3 1.37   4 1.37
   6  0.047  0.077  0.000-  12 1.08   7 1.35   3 1.37
   7  0.036  0.114  0.000-   9 1.08   6 1.35   8 1.45
   8  0.996  0.125  0.000-   2 1.22   4 1.41   7 1.45
   9  0.057  0.137  0.000-   7 1.08
  10  0.029  0.020  0.000-   3 1.03
  11  0.944  0.098  0.000-   4 1.01
  12  0.076  0.068  0.000-   6 1.08
 
  LATTYP: Found a simple cubic cell.
 ALAT       =    35.0000000000
  
  Lattice vectors:
  
 A1 = (  35.0000000000,   0.0000000000,   0.0000000000)
 A2 = (   0.0000000000,  35.0000000000,   0.0000000000)
 A3 = (   0.0000000000,   0.0000000000,  35.0000000000)


Analysis of symmetry for initial positions (statically):
=====================================================================
 Subroutine PRICEL returns:
 Original cell was already a primitive cell.
 

 Routine SETGRP: Setting up the symmetry group for a 
 simple cubic supercell.


 Subroutine GETGRP returns: Found  2 space group operations
 (whereof  2 operations were pure point group operations)
 out of a pool of 48 trial point group operations.


The static configuration has the point symmetry C_1h.


Analysis of symmetry for dynamics (positions and initial velocities):
=====================================================================
 Subroutine PRICEL returns:
 Original cell was already a primitive cell.
 

 Routine SETGRP: Setting up the symmetry group for a 
 simple cubic supercell.


 Subroutine GETGRP returns: Found  2 space group operations
 (whereof  2 operations were pure point group operations)
 out of a pool of 48 trial point group operations.


The dynamic configuration has the point symmetry C_1h.
 
 
 KPOINTS: automatic mesh                          

Automatic generation of k-mesh.
Space group operators:
 irot       det(A)        alpha          n_x          n_y          n_z        tau_x        tau_y        tau_z
    1     1.000000     0.000000     1.000000     0.000000     0.000000     0.000000     0.000000     0.000000
    2    -1.000000   180.000000     0.000000     0.000000     1.000000     0.000000     0.000000     0.000000
 
 Subroutine IBZKPT returns following result:
 ===========================================
 
 Found      1 irreducible k-points:
 
 Following reciprocal coordinates:
            Coordinates               Weight
  0.000000  0.000000  0.000000      1.000000
 
 Following cartesian coordinates:
            Coordinates               Weight
  0.000000  0.000000  0.000000      1.000000
 


--------------------------------------------------------------------------------------------------------




 Dimension of arrays:
   k-points           NKPTS =      1   k-points in BZ     NKDIM =      1   number of bands    NBANDS=     28
   number of dos      NEDOS =    301   number of ions     NIONS =     12
   non local maximal  LDIM  =      5   non local SUM 2l+1 LMDIM =     13
   total plane-waves  NPLWV = ******
   max r-space proj   IRMAX =      1   max aug-charges    IRDMAX=  33660
   dimension x,y,z NGX =   480 NGY =  480 NGZ =  480
   dimension x,y,z NGXF=   960 NGYF=  960 NGZF=  960
   support grid    NGXF=   960 NGYF=  960 NGZF=  960
   ions per type =               2   2   4   4
 NGX,Y,Z   is equivalent  to a cutoff of  22.80, 22.80, 22.80 a.u.
 NGXF,Y,Z  is equivalent  to a cutoff of  45.60, 45.60, 45.60 a.u.


 I would recommend the setting:
   dimension x,y,z NGX =   457 NGY =  457 NGZ =  457
 SYSTEM =  C                                       
 POSCAR =  O N C H                                 

 Startparameter for this run:
   NWRITE =      2    write-flag & timer
   PREC   = acc       normal or accurate (medium, high low for compatibility)
   ISTART =      0    job   : 0-new  1-cont  2-samecut
   ICHARG =      2    charge: 1-file 2-atom 10-const
   ISPIN  =      1    spin polarized calculation?
   LNONCOLLINEAR =      F non collinear calculations
   LSORBIT =      F    spin-orbit coupling
   INIWAV =      1    electr: 0-lowe 1-rand  2-diag
   LASPH  =      T    aspherical Exc in radial PAW
   METAGGA=      F    non-selfconsistent MetaGGA calc.

 Electronic Relaxation 1
   ENCUT  = 1600.0 eV 117.60 Ry   10.84 a.u. 114.15114.15114.15*2*pi/ulx,y,z
   ENINI  = 1600.0     initial cutoff
   ENAUG  =  904.6 eV  augmentation charge cutoff
   NELM   =     60;   NELMIN=  2; NELMDL= -5     # of ELM steps 
   EDIFF  = 0.1E-06   stopping-criterion for ELM
   LREAL  =      F    real-space projection
   NLSPLINE    = F    spline interpolate recip. space projectors
   LCOMPAT=      F    compatible to vasp.4.4
   GGA_COMPAT  = T    GGA compatible to vasp.4.4-vasp.4.6
   LMAXPAW     = -100 max onsite density
   LMAXMIX     =    2 max onsite mixed and CHGCAR
   VOSKOWN=      0    Vosko Wilk Nusair interpolation
   ROPT   =    0.00000   0.00000   0.00000   0.00000
 Ionic relaxation
   EDIFFG = 0.1E-05   stopping-criterion for IOM
   NSW    =      0    number of steps for IOM
   NBLOCK =      1;   KBLOCK =      1    inner block; outer block 
   IBRION =     -1    ionic relax: 0-MD 1-quasi-New 2-CG
   NFREE  =      0    steps in history (QN), initial steepest desc. (CG)
   ISIF   =      2    stress and relaxation
   IWAVPR =     10    prediction:  0-non 1-charg 2-wave 3-comb
   ISYM   =      2    0-nonsym 1-usesym 2-fastsym
   LCORR  =      T    Harris-Foulkes like correction to forces

   POTIM  = 0.5000    time-step for ionic-motion
   TEIN   =    0.0    initial temperature
   TEBEG  =    0.0;   TEEND  =   0.0 temperature during run
   SMASS  =  -3.00    Nose mass-parameter (am)
   estimated Nose-frequenzy (Omega)   =  0.10E-29 period in steps =****** mass=  -0.280E-25a.u.
   SCALEE = 1.0000    scale energy and forces
   NPACO  =    256;   APACO  = 16.0  distance and # of slots for P.C.
   PSTRESS=    0.0 pullay stress

  Mass of Ions in am
   POMASS =  16.00 14.00 12.01  1.00
  Ionic Valenz
   ZVAL   =   6.00  5.00  4.00  1.00
  Atomic Wigner-Seitz radii
   RWIGS  =  -1.00 -1.00 -1.00 -1.00
  virtual crystal weights 
   VCA    =   1.00  1.00  1.00  1.00
   NELECT =      42.0000    total number of electrons
   NUPDOWN=      -1.0000    fix difference up-down

 DOS related values:
   EMIN   =  10.00;   EMAX   =-10.00  energy-range for DOS
   EFERMI =   0.00
   ISMEAR =     0;   SIGMA  =   0.01  broadening in eV -4-tet -1-fermi 0-gaus

 Electronic relaxation 2 (details)
   IALGO  =     38    algorithm
   LDIAG  =      T    sub-space diagonalisation (order eigenvalues)
   LSUBROT=      F    optimize rotation matrix (better conditioning)
   TURBO    =      0    0=normal 1=particle mesh
   IRESTART =      0    0=no restart 2=restart with 2 vectors
   NREBOOT  =      0    no. of reboots
   NMIN     =      0    reboot dimension
   EREF     =   0.00    reference energy to select bands
   IMIX   =      4    mixing-type and parameters
     AMIX     =   0.40;   BMIX     =  1.00
     AMIX_MAG =   1.60;   BMIX_MAG =  1.00
     AMIN     =   0.10
     WC   =   100.;   INIMIX=   1;  MIXPRE=   1;  MAXMIX= -45

 Intra band minimization:
   WEIMIN = 0.0000     energy-eigenvalue tresh-hold
   EBREAK =  0.89E-09  absolut break condition
   DEPER  =   0.30     relativ break condition  

   TIME   =   0.40     timestep for ELM

  volume/ion in A,a.u.               =    3572.92     24111.23
  Fermi-wavevector in a.u.,A,eV,Ry     =   0.162589  0.307248  0.359670  0.026435
  Thomas-Fermi vector in A             =   0.859803
 
 Write flags
   LWAVE  =      T    write WAVECAR
   LCHARG =      T    write CHGCAR
   LVTOT  =      F    write LOCPOT, total local potential
   LVHAR  =      F    write LOCPOT, Hartree potential only
   LELF   =      F    write electronic localiz. function (ELF)
   LORBIT =      0    0 simple, 1 ext, 2 COOP (PROOUT)


 Dipole corrections
   LMONO  =      F    monopole corrections only (constant potential shift)
   LDIPOL =      F    correct potential (dipole corrections)
   IDIPOL =      0    1-x, 2-y, 3-z, 4-all directions 
   EPSILON=  1.0000000 bulk dielectric constant

 Exchange correlation treatment:
   GGA     =    --    GGA type
   LEXCH   =     8    internal setting for exchange type
   VOSKOWN=      0    Vosko Wilk Nusair interpolation
   LHFCALC =     F    Hartree Fock is set to
   LHFONE  =     F    Hartree Fock one center treatment
   AEXX    =    0.0000 exact exchange contribution

 Linear response parameters
   LEPSILON=     F    determine dielectric tensor
   LRPA    =     F    only Hartree local field effects (RPA)
   LNABLA  =     F    use nabla operator in PAW spheres
   LVEL    =     F    velocity operator in full k-point grid
   LINTERFAST=   F  fast interpolation
   KINTER  =     0    interpolate to denser k-point grid
   CSHIFT  =0.1000    complex shift for real part using Kramers Kronig
   OMEGAMAX=  -1.0    maximum frequency
   DEG_THRESHOLD= 0.2000000E-02 threshold for treating states as degnerate
   RTIME   =    0.100 relaxation time in fs

 Orbital magnetization related:
   ORBITALMAG=     F  switch on orbital magnetization
   LCHIMAG   =     F  perturbation theory with respect to B field
   DQ        =  0.001000  dq finite difference perturbation B field



--------------------------------------------------------------------------------------------------------


 Static calculation
 charge density and potential will be updated during run
 non-spin polarized calculation
 Variant of blocked Davidson
 Davidson routine will perform the subspace rotation
 perform sub-space diagonalisation
    after iterative eigenvector-optimisation
 modified Broyden-mixing scheme, WC =      100.0
 initial mixing is a Kerker type mixing with AMIX =  0.4000 and BMIX =      1.0000
 Hartree-type preconditioning will be used
 using additional bands            7
 reciprocal scheme for non local part
 calculate Harris-corrections to forces 
   (improved forces if not selfconsistent)
 use gradient corrections 
 use of overlap-Matrix (Vanderbilt PP)
 Gauss-broadening in eV      SIGMA  =   0.01


--------------------------------------------------------------------------------------------------------


  energy-cutoff  :     1600.00
  volume of cell :    42875.00
      direct lattice vectors                 reciprocal lattice vectors
    35.000000000  0.000000000  0.000000000     0.028571429  0.000000000  0.000000000
     0.000000000 35.000000000  0.000000000     0.000000000  0.028571429  0.000000000
     0.000000000  0.000000000 35.000000000     0.000000000  0.000000000  0.028571429

  length of vectors
    35.000000000 35.000000000 35.000000000     0.028571429  0.028571429  0.028571429


 
 k-points in units of 2pi/SCALE and weight: automatic mesh                          
   0.00000000  0.00000000  0.00000000       1.000
 
 k-points in reciprocal lattice and weights: automatic mesh                          
   0.00000000  0.00000000  0.00000000       1.000
 
 position of ions in fractional coordinates (direct lattice) 
   0.95810480  0.02891911  0.00000000
   0.98293649  0.15675449  0.00000000
   0.02058597  0.04823626  0.00000000
   0.97206506  0.09256123  0.00000000
   0.98205297  0.05469337  0.00000000
   0.04676369  0.07729360  0.00000000
   0.03648297  0.11446217  0.00000000
   0.99632569  0.12463300  0.00000000
   0.05743857  0.13696754  0.00000000
   0.02923574  0.02017663  0.00000000
   0.94371351  0.09806814  0.00000000
   0.07625891  0.06823834  0.00000000
 
 position of ions in cartesian coordinates  (Angst):
  33.53366800  1.01216900  0.00000000
  34.40277700  5.48640700  0.00000000
   0.72050900  1.68826900  0.00000000
  34.02227700  3.23964300  0.00000000
  34.37185400  1.91426800  0.00000000
   1.63672900  2.70527600  0.00000000
   1.27690400  4.00617600  0.00000000
  34.87139900  4.36215500  0.00000000
   2.01035000  4.79386400  0.00000000
   1.02325100  0.70618200  0.00000000
  33.02997300  3.43238500  0.00000000
   2.66906200  2.38834200  0.00000000
 


--------------------------------------------------------------------------------------------------------


 use parallel FFT for wavefunctions z direction half grid
 k-point  1 :   0.0000 0.0000 0.0000  plane waves: 3115599

 maximum and minimum number of plane-waves per node :    389462   389421

 maximum number of plane-waves:   3115599
 maximum index in each direction: 
   IXMAX=  114   IYMAX=  114   IZMAX=  114
   IXMIN= -114   IYMIN= -114   IZMIN=    0

 NGX is ok and might be reduce to 458
 NGY is ok and might be reduce to 458
 NGZ is ok and might be reduce to 458

 parallel 3D FFT for wavefunctions:
    minimum data exchange during FFTs selected (reduces bandwidth)
 parallel 3D FFT for charge:
    minimum data exchange during FFTs selected (reduces bandwidth)


 total amount of memory used by VASP on root node  4072922. kBytes
========================================================================

   base      :      30000. kBytes
   nonl-proj :     236769. kBytes
   fftplans  :    1215227. kBytes
   grid      :    2547302. kBytes
   one-center:          8. kBytes
   wavefun   :      43616. kBytes
 
     INWAV:  cpu time    0.0001: real time    0.0003
 Broyden mixing: mesh for mixing (old mesh)
   NGX =229   NGY =229   NGZ =229
  (NGX  =960   NGY  =960   NGZ  =960)
  gives a total of ****** points

 initial charge density was supplied:
 charge density of overlapping atoms calculated
 number of electron      42.0000000 magnetization 
 keeping initial charge density in first step


--------------------------------------------------------------------------------------------------------


 Maximum index for augmentation-charges         1120 (set IRDMAX)


--------------------------------------------------------------------------------------------------------


 First call to EWALD:  gamma=   0.051
 Maximum number of real-space cells 3x 3x 3
 Maximum number of reciprocal cells 3x 3x 3

 FEWALD executed in parallel
    FEWALD:  cpu time    0.0025: real time    0.0025


----------------------------------------- Iteration    1(   1)  ---------------------------------------


    POTLOK:  cpu time   14.7712: real time   14.8130
    SETDIJ:  cpu time    0.1350: real time    0.1354
     EDDAV:  cpu time   14.8551: real time   14.9038
       DOS:  cpu time    0.0003: real time    0.0003
    --------------------------------------------
      LOOP:  cpu time   29.7637: real time   29.8568

 eigenvalue-minimisations  :    72
 total energy-change (2. order) : 0.4371900E+03  (-0.9307429E+03)
 number of electron      42.0000000 magnetization 
 augmentation part       42.0000000 magnetization 

 Free energy of the ion-electron system (eV)
  ---------------------------------------------------
  alpha Z        PSCENC =         0.17739900
  Ewald energy   TEWEN  =      4015.64081378
  -Hartree energ DENC   =     -5524.55640404
  -exchange      EXHF   =         0.00000000
  -V(xc)+E(xc)   XCENC  =       159.77740422
  PAW double counting   =      1543.07547066    -1553.88115226
  entropy T*S    EENTRO =        -0.00220231
  eigenvalues    EBANDS =      -235.47119425
  atomic energy  EATOM  =      2032.42985693
  Solvation  Ediel_sol  =         0.00000000
  ---------------------------------------------------
  free energy    TOTEN  =       437.18999173 eV

  energy without entropy =      437.19219404  energy(sigma->0) =      437.19109289


--------------------------------------------------------------------------------------------------------




----------------------------------------- Iteration    1(   2)  ---------------------------------------


     EDDAV:  cpu time   16.5900: real time   16.6442
       DOS:  cpu time    0.0002: real time    0.0002
    --------------------------------------------
      LOOP:  cpu time   16.5938: real time   16.6505

 eigenvalue-minimisations  :    84
 total energy-change (2. order) :-0.1852934E+03  (-0.1830369E+03)
 number of electron      42.0000000 magnetization 
 augmentation part       42.0000000 magnetization 

 Free energy of the ion-electron system (eV)
  ---------------------------------------------------
  alpha Z        PSCENC =         0.17739900
  Ewald energy   TEWEN  =      4015.64081378
  -Hartree energ DENC   =     -5524.55640404
  -exchange      EXHF   =         0.00000000
  -V(xc)+E(xc)   XCENC  =       159.77740422
  PAW double counting   =      1543.07547066    -1553.88115226
  entropy T*S    EENTRO =        -0.00002754
  eigenvalues    EBANDS =      -420.76674579
  atomic energy  EATOM  =      2032.42985693
  Solvation  Ediel_sol  =         0.00000000
  ---------------------------------------------------
  free energy    TOTEN  =       251.89661496 eV

  energy without entropy =      251.89664250  energy(sigma->0) =      251.89662873


--------------------------------------------------------------------------------------------------------




----------------------------------------- Iteration    1(   3)  ---------------------------------------


     EDDAV:  cpu time   17.1949: real time   17.2512
       DOS:  cpu time    0.0001: real time    0.0001
    --------------------------------------------
      LOOP:  cpu time   17.1977: real time   17.2566

 eigenvalue-minimisations  :    88
 total energy-change (2. order) :-0.1733034E+03  (-0.1695889E+03)
 number of electron      42.0000000 magnetization 
 augmentation part       42.0000000 magnetization 

 Free energy of the ion-electron system (eV)
  ---------------------------------------------------
  alpha Z        PSCENC =         0.17739900
  Ewald energy   TEWEN  =      4015.64081378
  -Hartree energ DENC   =     -5524.55640404
  -exchange      EXHF   =         0.00000000
  -V(xc)+E(xc)   XCENC  =       159.77740422
  PAW double counting   =      1543.07547066    -1553.88115226
  entropy T*S    EENTRO =        -0.00000000
  eigenvalues    EBANDS =      -594.07021005
  atomic energy  EATOM  =      2032.42985693
  Solvation  Ediel_sol  =         0.00000000
  ---------------------------------------------------
  free energy    TOTEN  =        78.59317824 eV

  energy without entropy =       78.59317824  energy(sigma->0) =       78.59317824


--------------------------------------------------------------------------------------------------------




----------------------------------------- Iteration    1(   4)  ---------------------------------------


     EDDAV:  cpu time   15.9601: real time   16.0111
       DOS:  cpu time    0.0001: real time    0.0001
    --------------------------------------------
      LOOP:  cpu time   15.9625: real time   16.0164

 eigenvalue-minimisations  :    80
 total energy-change (2. order) :-0.1180397E+03  (-0.1163040E+03)
 number of electron      42.0000000 magnetization 
 augmentation part       42.0000000 magnetization 

 Free energy of the ion-electron system (eV)
  ---------------------------------------------------
  alpha Z        PSCENC =         0.17739900
  Ewald energy   TEWEN  =      4015.64081378
  -Hartree energ DENC   =     -5524.55640404
  -exchange      EXHF   =         0.00000000
  -V(xc)+E(xc)   XCENC  =       159.77740422
  PAW double counting   =      1543.07547066    -1553.88115226
  entropy T*S    EENTRO =        -0.00000000
  eigenvalues    EBANDS =      -712.10987952
  atomic energy  EATOM  =      2032.42985693
  Solvation  Ediel_sol  =         0.00000000
  ---------------------------------------------------
  free energy    TOTEN  =       -39.44649122 eV

  energy without entropy =      -39.44649122  energy(sigma->0) =      -39.44649122


--------------------------------------------------------------------------------------------------------




----------------------------------------- Iteration    1(   5)  ---------------------------------------


     EDDAV:  cpu time   15.9761: real time   16.0282
       DOS:  cpu time    0.0001: real time    0.0001
    CHARGE:  cpu time    8.9791: real time    9.0071
    MIXING:  cpu time    0.3527: real time    0.3536
    --------------------------------------------
      LOOP:  cpu time   25.3107: real time   25.3942

 eigenvalue-minimisations  :    80
 total energy-change (2. order) :-0.4397276E+02  (-0.4387902E+02)
 number of electron      42.0000001 magnetization 
 augmentation part        2.0074164 magnetization 

 Broyden mixing:
  rms(total) = 0.13163E+01    rms(broyden)= 0.13163E+01
  rms(prec ) = 0.13551E+01
  weight for this iteration     100.00

 Free energy of the ion-electron system (eV)
  ---------------------------------------------------
  alpha Z        PSCENC =         0.17739900
  Ewald energy   TEWEN  =      4015.64081378
  -Hartree energ DENC   =     -5524.55640404
  -exchange      EXHF   =         0.00000000
  -V(xc)+E(xc)   XCENC  =       159.77740422
  PAW double counting   =      1543.07547066    -1553.88115226
  entropy T*S    EENTRO =        -0.00000000
  eigenvalues    EBANDS =      -756.08263467
  atomic energy  EATOM  =      2032.42985693
  Solvation  Ediel_sol  =         0.00000000
  ---------------------------------------------------
  free energy    TOTEN  =       -83.41924638 eV

  energy without entropy =      -83.41924638  energy(sigma->0) =      -83.41924638


--------------------------------------------------------------------------------------------------------




----------------------------------------- Iteration    1(   6)  ---------------------------------------


    POTLOK:  cpu time   15.2506: real time   15.2925
    SETDIJ:  cpu time    0.2556: real time    0.2562
     EDDAV:  cpu time   18.4274: real time   18.4896
       DOS:  cpu time    0.0001: real time    0.0001
    CHARGE:  cpu time    8.8782: real time    8.9055
    MIXING:  cpu time    0.4371: real time    0.4385
    --------------------------------------------
      LOOP:  cpu time   43.2511: real time   43.4598

 eigenvalue-minimisations  :    80
 total energy-change (2. order) : 0.6212871E-01  (-0.5711949E+01)
 number of electron      42.0000001 magnetization 
 augmentation part        1.9419852 magnetization 

 Broyden mixing:
  rms(total) = 0.75552E+00    rms(broyden)= 0.75552E+00
  rms(prec ) = 0.77862E+00
  weight for this iteration     100.00

 eigenvalues of (default mixing * dielectric matrix)
  average eigenvalue GAMMA=   1.4012
  1.4012

 Free energy of the ion-electron system (eV)
  ---------------------------------------------------
  alpha Z        PSCENC =         0.17739900
  Ewald energy   TEWEN  =      4015.64081378
  -Hartree energ DENC   =     -5582.05034141
  -exchange      EXHF   =         0.00000000
  -V(xc)+E(xc)   XCENC  =       162.95342533
  PAW double counting   =      1888.54486648    -1900.12833607
  entropy T*S    EENTRO =        -0.00000000
  eigenvalues    EBANDS =      -700.92480171
  atomic energy  EATOM  =      2032.42985693
  Solvation  Ediel_sol  =         0.00000000
  ---------------------------------------------------
  free energy    TOTEN  =       -83.35711767 eV

  energy without entropy =      -83.35711767  energy(sigma->0) =      -83.35711767


--------------------------------------------------------------------------------------------------------




----------------------------------------- Iteration    1(   7)  ---------------------------------------


    POTLOK:  cpu time   15.3665: real time   15.4085
    SETDIJ:  cpu time    0.2539: real time    0.2548
     EDDAV:  cpu time   21.2969: real time   21.3671
       DOS:  cpu time    0.0001: real time    0.0001
    CHARGE:  cpu time    8.8433: real time    8.8708
    MIXING:  cpu time    0.4484: real time    0.4495
    --------------------------------------------
      LOOP:  cpu time   46.2112: real time   46.3555

 eigenvalue-minimisations  :    96
 total energy-change (2. order) : 0.1461587E+01  (-0.9000330E+00)
 number of electron      42.0000001 magnetization 
 augmentation part        1.7488693 magnetization 

 Broyden mixing:
  rms(total) = 0.39601E+00    rms(broyden)= 0.39601E+00
  rms(prec ) = 0.40493E+00
  weight for this iteration     100.00

 eigenvalues of (default mixing * dielectric matrix)
  average eigenvalue GAMMA=   1.1313
  0.9672  1.2954

 Free energy of the ion-electron system (eV)
  ---------------------------------------------------
  alpha Z        PSCENC =         0.17739900
  Ewald energy   TEWEN  =      4015.64081378
  -Hartree energ DENC   =     -5643.59656185
  -exchange      EXHF   =         0.00000000
  -V(xc)+E(xc)   XCENC  =       166.01552772
  PAW double counting   =      2211.17358220    -2223.20300650
  entropy T*S    EENTRO =        -0.00000000
  eigenvalues    EBANDS =      -640.53314215
  atomic energy  EATOM  =      2032.42985693
  Solvation  Ediel_sol  =         0.00000000
  ---------------------------------------------------
  free energy    TOTEN  =       -81.89553086 eV

  energy without entropy =      -81.89553086  energy(sigma->0) =      -81.89553086


--------------------------------------------------------------------------------------------------------




----------------------------------------- Iteration    1(   8)  ---------------------------------------


    POTLOK:  cpu time   15.3884: real time   15.4307
    SETDIJ:  cpu time    0.2524: real time    0.2530
     EDDAV:  cpu time   19.8602: real time   19.9271
       DOS:  cpu time    0.0001: real time    0.0001
    CHARGE:  cpu time    8.8635: real time    8.8909
    MIXING:  cpu time    0.4561: real time    0.4573
    --------------------------------------------
      LOOP:  cpu time   44.8229: real time   44.9642

 eigenvalue-minimisations  :    88
 total energy-change (2. order) : 0.2089000E+00  (-0.9700238E-01)
 number of electron      42.0000001 magnetization 
 augmentation part        1.8099218 magnetization 

 Broyden mixing:
  rms(total) = 0.19985E+00    rms(broyden)= 0.19985E+00
  rms(prec ) = 0.20641E+00
  weight for this iteration     100.00

 eigenvalues of (default mixing * dielectric matrix)
  average eigenvalue GAMMA=   1.3511
  2.0550  0.9991  0.9991

 Free energy of the ion-electron system (eV)
  ---------------------------------------------------
  alpha Z        PSCENC =         0.17739900
  Ewald energy   TEWEN  =      4015.64081378
  -Hartree energ DENC   =     -5649.76630337
  -exchange      EXHF   =         0.00000000
  -V(xc)+E(xc)   XCENC  =       166.14865380
  PAW double counting   =      2260.06398126    -2272.12088745
  entropy T*S    EENTRO =        -0.00000000
  eigenvalues    EBANDS =      -634.26014479
  atomic energy  EATOM  =      2032.42985693
  Solvation  Ediel_sol  =         0.00000000
  ---------------------------------------------------
  free energy    TOTEN  =       -81.68663085 eV

  energy without entropy =      -81.68663085  energy(sigma->0) =      -81.68663085


--------------------------------------------------------------------------------------------------------




----------------------------------------- Iteration    1(   9)  ---------------------------------------


    POTLOK:  cpu time   15.3251: real time   15.3672
    SETDIJ:  cpu time    0.2540: real time    0.2546
     EDDAV:  cpu time   19.8775: real time   19.9437
       DOS:  cpu time    0.0001: real time    0.0001
    CHARGE:  cpu time    8.8457: real time    8.8731
    MIXING:  cpu time    0.4682: real time    0.4694
    --------------------------------------------
      LOOP:  cpu time   44.7728: real time   44.9129

 eigenvalue-minimisations  :    88
 total energy-change (2. order) : 0.1266159E+00  (-0.2965357E-01)
 number of electron      42.0000001 magnetization 
 augmentation part        1.7861820 magnetization 

 Broyden mixing:
  rms(total) = 0.69934E-01    rms(broyden)= 0.69934E-01
  rms(prec ) = 0.74365E-01
  weight for this iteration     100.00

 eigenvalues of (default mixing * dielectric matrix)
  average eigenvalue GAMMA=   1.3491
  2.1790  1.3495  0.9339  0.9339

 Free energy of the ion-electron system (eV)
  ---------------------------------------------------
  alpha Z        PSCENC =         0.17739900
  Ewald energy   TEWEN  =      4015.64081378
  -Hartree energ DENC   =     -5668.14980695
  -exchange      EXHF   =         0.00000000
  -V(xc)+E(xc)   XCENC  =       166.98483133
  PAW double counting   =      2361.23641536    -2373.53155508
  entropy T*S    EENTRO =        -0.00000000
  eigenvalues    EBANDS =      -616.34796934
  atomic energy  EATOM  =      2032.42985693
  Solvation  Ediel_sol  =         0.00000000
  ---------------------------------------------------
  free energy    TOTEN  =       -81.56001497 eV

  energy without entropy =      -81.56001497  energy(sigma->0) =      -81.56001497


--------------------------------------------------------------------------------------------------------




----------------------------------------- Iteration    1(  10)  ---------------------------------------


    POTLOK:  cpu time   15.3442: real time   15.3860
    SETDIJ:  cpu time    0.2545: real time    0.2554
     EDDAV:  cpu time   19.1499: real time   19.2127
       DOS:  cpu time    0.0001: real time    0.0001
    CHARGE:  cpu time    8.8466: real time    8.8742
    MIXING:  cpu time    0.4813: real time    0.4825
    --------------------------------------------
      LOOP:  cpu time   44.0787: real time   44.2157

 eigenvalue-minimisations  :    84
 total energy-change (2. order) : 0.1375699E-01  (-0.2384022E-02)
 number of electron      42.0000001 magnetization 
 augmentation part        1.7904623 magnetization 

 Broyden mixing:
  rms(total) = 0.31335E-01    rms(broyden)= 0.31335E-01
  rms(prec ) = 0.36144E-01
  weight for this iteration     100.00

 eigenvalues of (default mixing * dielectric matrix)
  average eigenvalue GAMMA=   1.4033
  2.3531  1.6578  0.9653  0.9653  1.0753

 Free energy of the ion-electron system (eV)
  ---------------------------------------------------
  alpha Z        PSCENC =         0.17739900
  Ewald energy   TEWEN  =      4015.64081378
  -Hartree energ DENC   =     -5671.66937082
  -exchange      EXHF   =         0.00000000
  -V(xc)+E(xc)   XCENC  =       167.06978795
  PAW double counting   =      2367.92324174    -2380.21705029
  entropy T*S    EENTRO =        -0.00000000
  eigenvalues    EBANDS =      -612.90093627
  atomic energy  EATOM  =      2032.42985693
  Solvation  Ediel_sol  =         0.00000000
  ---------------------------------------------------
  free energy    TOTEN  =       -81.54625798 eV

  energy without entropy =      -81.54625798  energy(sigma->0) =      -81.54625798


--------------------------------------------------------------------------------------------------------




----------------------------------------- Iteration    1(  11)  ---------------------------------------


    POTLOK:  cpu time   15.3529: real time   15.3950
    SETDIJ:  cpu time    0.2557: real time    0.2563
     EDDAV:  cpu time   21.2209: real time   21.2940
       DOS:  cpu time    0.0001: real time    0.0001
    CHARGE:  cpu time    8.8362: real time    8.8635
    MIXING:  cpu time    0.4926: real time    0.4941
    --------------------------------------------
      LOOP:  cpu time   46.1604: real time   46.3077

 eigenvalue-minimisations  :    96
 total energy-change (2. order) : 0.2286102E-02  (-0.6414375E-03)
 number of electron      42.0000001 magnetization 
 augmentation part        1.7923932 magnetization 

 Broyden mixing:
  rms(total) = 0.14194E-01    rms(broyden)= 0.14194E-01
  rms(prec ) = 0.19240E-01
  weight for this iteration     100.00

 eigenvalues of (default mixing * dielectric matrix)
  average eigenvalue GAMMA=   1.4051
  2.2699  2.2699  0.9139  0.9139  1.0314  1.0314

 Free energy of the ion-electron system (eV)
  ---------------------------------------------------
  alpha Z        PSCENC =         0.17739900
  Ewald energy   TEWEN  =      4015.64081378
  -Hartree energ DENC   =     -5675.07453654
  -exchange      EXHF   =         0.00000000
  -V(xc)+E(xc)   XCENC  =       167.13353620
  PAW double counting   =      2368.67603102    -2380.95213345
  entropy T*S    EENTRO =        -0.00000000
  eigenvalues    EBANDS =      -609.57493882
  atomic energy  EATOM  =      2032.42985693
  Solvation  Ediel_sol  =         0.00000000
  ---------------------------------------------------
  free energy    TOTEN  =       -81.54397187 eV

  energy without entropy =      -81.54397187  energy(sigma->0) =      -81.54397187


--------------------------------------------------------------------------------------------------------




----------------------------------------- Iteration    1(  12)  ---------------------------------------


    POTLOK:  cpu time   15.3233: real time   15.3651
    SETDIJ:  cpu time    0.2543: real time    0.2549
     EDDAV:  cpu time   18.4794: real time   18.5437
       DOS:  cpu time    0.0001: real time    0.0001
    CHARGE:  cpu time    8.8332: real time    8.8606
    MIXING:  cpu time    0.5104: real time    0.5116
    --------------------------------------------
      LOOP:  cpu time   43.4028: real time   43.5408

 eigenvalue-minimisations  :    80
 total energy-change (2. order) :-0.3093009E-02  (-0.2103313E-03)
 number of electron      42.0000001 magnetization 
 augmentation part        1.7916341 magnetization 

 Broyden mixing:
  rms(total) = 0.91187E-02    rms(broyden)= 0.91187E-02
  rms(prec ) = 0.13445E-01
  weight for this iteration     100.00

 eigenvalues of (default mixing * dielectric matrix)
  average eigenvalue GAMMA=   1.5981
  3.1380  2.3986  1.6536  0.9110  0.9110  1.0872  1.0872

 Free energy of the ion-electron system (eV)
  ---------------------------------------------------
  alpha Z        PSCENC =         0.17739900
  Ewald energy   TEWEN  =      4015.64081378
  -Hartree energ DENC   =     -5677.29291788
  -exchange      EXHF   =         0.00000000
  -V(xc)+E(xc)   XCENC  =       167.15832934
  PAW double counting   =      2365.70183539    -2377.96779708
  entropy T*S    EENTRO =        -0.00000000
  eigenvalues    EBANDS =      -607.39458436
  atomic energy  EATOM  =      2032.42985693
  Solvation  Ediel_sol  =         0.00000000
  ---------------------------------------------------
  free energy    TOTEN  =       -81.54706488 eV

  energy without entropy =      -81.54706488  energy(sigma->0) =      -81.54706488


--------------------------------------------------------------------------------------------------------




----------------------------------------- Iteration    1(  13)  ---------------------------------------


    POTLOK:  cpu time   15.3057: real time   15.3478
    SETDIJ:  cpu time    0.2540: real time    0.2546
     EDDAV:  cpu time   17.7677: real time   17.8273
       DOS:  cpu time    0.0001: real time    0.0001
    CHARGE:  cpu time    8.8420: real time    8.8692
    MIXING:  cpu time    0.5247: real time    0.5263
    --------------------------------------------
      LOOP:  cpu time   42.6964: real time   42.8298

 eigenvalue-minimisations  :    76
 total energy-change (2. order) :-0.8708175E-02  (-0.6674965E-03)
 number of electron      42.0000001 magnetization 
 augmentation part        1.7903113 magnetization 

 Broyden mixing:
  rms(total) = 0.56868E-02    rms(broyden)= 0.56868E-02
  rms(prec ) = 0.75744E-02
  weight for this iteration     100.00

 eigenvalues of (default mixing * dielectric matrix)
  average eigenvalue GAMMA=   1.6196
  3.8946  2.4071  1.7224  0.9792  0.9277  0.9277  1.0491  1.0491

 Free energy of the ion-electron system (eV)
  ---------------------------------------------------
  alpha Z        PSCENC =         0.17739900
  Ewald energy   TEWEN  =      4015.64081378
  -Hartree energ DENC   =     -5681.55128232
  -exchange      EXHF   =         0.00000000
  -V(xc)+E(xc)   XCENC  =       167.21130817
  PAW double counting   =      2363.88808515    -2376.14689632
  entropy T*S    EENTRO =        -0.00000000
  eigenvalues    EBANDS =      -603.20505744
  atomic energy  EATOM  =      2032.42985693
  Solvation  Ediel_sol  =         0.00000000
  ---------------------------------------------------
  free energy    TOTEN  =       -81.55577306 eV

  energy without entropy =      -81.55577306  energy(sigma->0) =      -81.55577306


--------------------------------------------------------------------------------------------------------




----------------------------------------- Iteration    1(  14)  ---------------------------------------


    POTLOK:  cpu time   15.2936: real time   15.3354
    SETDIJ:  cpu time    0.2582: real time    0.2592
     EDDAV:  cpu time   19.8724: real time   19.9404
       DOS:  cpu time    0.0001: real time    0.0001
    CHARGE:  cpu time    8.8423: real time    8.8695
    MIXING:  cpu time    0.5400: real time    0.5416
    --------------------------------------------
      LOOP:  cpu time   44.8089: real time   44.9508

 eigenvalue-minimisations  :    88
 total energy-change (2. order) :-0.4274618E-02  (-0.1056445E-03)
 number of electron      42.0000001 magnetization 
 augmentation part        1.7902602 magnetization 

 Broyden mixing:
  rms(total) = 0.34443E-02    rms(broyden)= 0.34443E-02
  rms(prec ) = 0.49067E-02
  weight for this iteration     100.00

 eigenvalues of (default mixing * dielectric matrix)
  average eigenvalue GAMMA=   1.6316
  4.2485  2.4252  1.4794  1.4794  0.9184  0.9184  1.1490  1.0330  1.0330

 Free energy of the ion-electron system (eV)
  ---------------------------------------------------
  alpha Z        PSCENC =         0.17739900
  Ewald energy   TEWEN  =      4015.64081378
  -Hartree energ DENC   =     -5682.70467688
  -exchange      EXHF   =         0.00000000
  -V(xc)+E(xc)   XCENC  =       167.21788254
  PAW double counting   =      2363.10482054    -2375.35990166
  entropy T*S    EENTRO =        -0.00000000
  eigenvalues    EBANDS =      -602.06624193
  atomic energy  EATOM  =      2032.42985693
  Solvation  Ediel_sol  =         0.00000000
  ---------------------------------------------------
  free energy    TOTEN  =       -81.56004768 eV

  energy without entropy =      -81.56004768  energy(sigma->0) =      -81.56004768


--------------------------------------------------------------------------------------------------------




----------------------------------------- Iteration    1(  15)  ---------------------------------------


    POTLOK:  cpu time   15.3098: real time   15.3516
    SETDIJ:  cpu time    0.2545: real time    0.2555
     EDDAV:  cpu time   17.0738: real time   17.1310
       DOS:  cpu time    0.0001: real time    0.0001
    CHARGE:  cpu time    8.8554: real time    8.8827
    MIXING:  cpu time    0.5525: real time    0.5539
    --------------------------------------------
      LOOP:  cpu time   42.0483: real time   42.1796

 eigenvalue-minimisations  :    72
 total energy-change (2. order) :-0.4940852E-02  (-0.4054459E-04)
 number of electron      42.0000001 magnetization 
 augmentation part        1.7903974 magnetization 

 Broyden mixing:
  rms(total) = 0.24001E-02    rms(broyden)= 0.24001E-02
  rms(prec ) = 0.33956E-02
  weight for this iteration     100.00

 eigenvalues of (default mixing * dielectric matrix)
  average eigenvalue GAMMA=   1.8105
  5.5865  2.7795  2.2356  1.6084  1.0582  1.0582  0.9227  0.9227  0.9664  0.9664

 Free energy of the ion-electron system (eV)
  ---------------------------------------------------
  alpha Z        PSCENC =         0.17739900
  Ewald energy   TEWEN  =      4015.64081378
  -Hartree energ DENC   =     -5683.29952676
  -exchange      EXHF   =         0.00000000
  -V(xc)+E(xc)   XCENC  =       167.21334196
  PAW double counting   =      2362.73917707    -2374.99476606
  entropy T*S    EENTRO =        -0.00000000
  eigenvalues    EBANDS =      -601.47128444
  atomic energy  EATOM  =      2032.42985693
  Solvation  Ediel_sol  =         0.00000000
  ---------------------------------------------------
  free energy    TOTEN  =       -81.56498853 eV

  energy without entropy =      -81.56498853  energy(sigma->0) =      -81.56498853


--------------------------------------------------------------------------------------------------------




----------------------------------------- Iteration    1(  16)  ---------------------------------------


    POTLOK:  cpu time   15.2831: real time   15.3248
    SETDIJ:  cpu time    0.2547: real time    0.2556
     EDDAV:  cpu time   15.6604: real time   15.7129
       DOS:  cpu time    0.0001: real time    0.0001
    CHARGE:  cpu time    8.8499: real time    8.8775
    MIXING:  cpu time    0.5788: real time    0.5805
    --------------------------------------------
      LOOP:  cpu time   40.6292: real time   40.7565

 eigenvalue-minimisations  :    64
 total energy-change (2. order) :-0.4605668E-02  (-0.5843464E-04)
 number of electron      42.0000001 magnetization 
 augmentation part        1.7903341 magnetization 

 Broyden mixing:
  rms(total) = 0.13087E-02    rms(broyden)= 0.13087E-02
  rms(prec ) = 0.18412E-02
  weight for this iteration     100.00

 eigenvalues of (default mixing * dielectric matrix)
  average eigenvalue GAMMA=   1.8625
  6.1680  3.0047  2.3368  1.6859  1.1750  1.1750  1.0756  1.0756  0.9677  0.9116
  0.9116

 Free energy of the ion-electron system (eV)
  ---------------------------------------------------
  alpha Z        PSCENC =         0.17739900
  Ewald energy   TEWEN  =      4015.64081378
  -Hartree energ DENC   =     -5683.97993521
  -exchange      EXHF   =         0.00000000
  -V(xc)+E(xc)   XCENC  =       167.21089505
  PAW double counting   =      2362.61516463    -2374.87222485
  entropy T*S    EENTRO =        -0.00000000
  eigenvalues    EBANDS =      -600.79156353
  atomic energy  EATOM  =      2032.42985693
  Solvation  Ediel_sol  =         0.00000000
  ---------------------------------------------------
  free energy    TOTEN  =       -81.56959419 eV

  energy without entropy =      -81.56959419  energy(sigma->0) =      -81.56959419


--------------------------------------------------------------------------------------------------------




----------------------------------------- Iteration    1(  17)  ---------------------------------------


    POTLOK:  cpu time   15.2853: real time   15.3270
    SETDIJ:  cpu time    0.2547: real time    0.2553
     EDDAV:  cpu time   19.8565: real time   19.9230
       DOS:  cpu time    0.0001: real time    0.0001
    CHARGE:  cpu time    8.8610: real time    8.8885
    MIXING:  cpu time    0.5938: real time    0.5956
    --------------------------------------------
      LOOP:  cpu time   44.8535: real time   44.9943

 eigenvalue-minimisations  :    88
 total energy-change (2. order) :-0.2715207E-02  (-0.2120910E-04)
 number of electron      42.0000001 magnetization 
 augmentation part        1.7901735 magnetization 

 Broyden mixing:
  rms(total) = 0.82661E-03    rms(broyden)= 0.82661E-03
  rms(prec ) = 0.11277E-02
  weight for this iteration     100.00

 eigenvalues of (default mixing * dielectric matrix)
  average eigenvalue GAMMA=   1.9814
  6.9637  3.8166  2.4359  2.1182  1.4839  1.0671  1.0671  1.0509  1.0509  0.9091
  0.9068  0.9068

 Free energy of the ion-electron system (eV)
  ---------------------------------------------------
  alpha Z        PSCENC =         0.17739900
  Ewald energy   TEWEN  =      4015.64081378
  -Hartree energ DENC   =     -5684.18730413
  -exchange      EXHF   =         0.00000000
  -V(xc)+E(xc)   XCENC  =       167.20771001
  PAW double counting   =      2362.83563426    -2375.09302668
  entropy T*S    EENTRO =        -0.00000000
  eigenvalues    EBANDS =      -600.58339257
  atomic energy  EATOM  =      2032.42985693
  Solvation  Ediel_sol  =         0.00000000
  ---------------------------------------------------
  free energy    TOTEN  =       -81.57230940 eV

  energy without entropy =      -81.57230940  energy(sigma->0) =      -81.57230940


--------------------------------------------------------------------------------------------------------




----------------------------------------- Iteration    1(  18)  ---------------------------------------


    POTLOK:  cpu time   15.2576: real time   15.2992
    SETDIJ:  cpu time    0.2552: real time    0.2558
     EDDAV:  cpu time   15.6662: real time   15.7193
       DOS:  cpu time    0.0001: real time    0.0001
    CHARGE:  cpu time    8.8437: real time    8.8710
    MIXING:  cpu time    0.6144: real time    0.6162
    --------------------------------------------
      LOOP:  cpu time   40.6393: real time   40.7666

 eigenvalue-minimisations  :    64
 total energy-change (2. order) :-0.1702178E-02  (-0.1039982E-04)
 number of electron      42.0000001 magnetization 
 augmentation part        1.7902370 magnetization 

 Broyden mixing:
  rms(total) = 0.45248E-03    rms(broyden)= 0.45248E-03
  rms(prec ) = 0.60695E-03
  weight for this iteration     100.00

 eigenvalues of (default mixing * dielectric matrix)
  average eigenvalue GAMMA=   2.0113
  7.5636  4.0889  2.4958  2.2558  1.6367  1.1713  1.1713  1.0388  1.0388  0.9384
  0.9384  0.9045  0.9045

 Free energy of the ion-electron system (eV)
  ---------------------------------------------------
  alpha Z        PSCENC =         0.17739900
  Ewald energy   TEWEN  =      4015.64081378
  -Hartree energ DENC   =     -5684.24491977
  -exchange      EXHF   =         0.00000000
  -V(xc)+E(xc)   XCENC  =       167.20360848
  PAW double counting   =      2362.87828374    -2375.13533640
  entropy T*S    EENTRO =        -0.00000000
  eigenvalues    EBANDS =      -600.52371735
  atomic energy  EATOM  =      2032.42985693
  Solvation  Ediel_sol  =         0.00000000
  ---------------------------------------------------
  free energy    TOTEN  =       -81.57401158 eV

  energy without entropy =      -81.57401158  energy(sigma->0) =      -81.57401158


--------------------------------------------------------------------------------------------------------




----------------------------------------- Iteration    1(  19)  ---------------------------------------


    POTLOK:  cpu time   15.2427: real time   15.2844
    SETDIJ:  cpu time    0.2545: real time    0.2551
     EDDAV:  cpu time   18.4724: real time   18.5346
       DOS:  cpu time    0.0001: real time    0.0001
    CHARGE:  cpu time    8.8361: real time    8.8637
    MIXING:  cpu time    0.6320: real time    0.6335
    --------------------------------------------
      LOOP:  cpu time   43.4400: real time   43.5762

 eigenvalue-minimisations  :    80
 total energy-change (2. order) :-0.6063450E-03  (-0.2306485E-05)
 number of electron      42.0000001 magnetization 
 augmentation part        1.7901127 magnetization 

 Broyden mixing:
  rms(total) = 0.35640E-03    rms(broyden)= 0.35640E-03
  rms(prec ) = 0.44498E-03
  weight for this iteration     100.00

 eigenvalues of (default mixing * dielectric matrix)
  average eigenvalue GAMMA=   2.0772
  8.1703  4.4921  2.6515  2.4963  1.8066  1.4941  1.1357  1.1357  1.0031  1.0031
  0.8973  0.8973  0.9489  0.9489

 Free energy of the ion-electron system (eV)
  ---------------------------------------------------
  alpha Z        PSCENC =         0.17739900
  Ewald energy   TEWEN  =      4015.64081378
  -Hartree energ DENC   =     -5684.27530381
  -exchange      EXHF   =         0.00000000
  -V(xc)+E(xc)   XCENC  =       167.20316571
  PAW double counting   =      2362.85614536    -2375.11300586
  entropy T*S    EENTRO =        -0.00000000
  eigenvalues    EBANDS =      -600.49368903
  atomic energy  EATOM  =      2032.42985693
  Solvation  Ediel_sol  =         0.00000000
  ---------------------------------------------------
  free energy    TOTEN  =       -81.57461792 eV

  energy without entropy =      -81.57461792  energy(sigma->0) =      -81.57461792


--------------------------------------------------------------------------------------------------------




----------------------------------------- Iteration    1(  20)  ---------------------------------------


    POTLOK:  cpu time   15.2639: real time   15.3058
    SETDIJ:  cpu time    0.2551: real time    0.2557
     EDDAV:  cpu time   15.6335: real time   15.6864
       DOS:  cpu time    0.0001: real time    0.0001
    CHARGE:  cpu time    8.8227: real time    8.8499
    MIXING:  cpu time    0.6552: real time    0.6571
    --------------------------------------------
      LOOP:  cpu time   40.6327: real time   40.7600

 eigenvalue-minimisations  :    64
 total energy-change (2. order) :-0.4640272E-03  (-0.1330187E-05)
 number of electron      42.0000001 magnetization 
 augmentation part        1.7901960 magnetization 

 Broyden mixing:
  rms(total) = 0.19505E-03    rms(broyden)= 0.19505E-03
  rms(prec ) = 0.24414E-03
  weight for this iteration     100.00

 eigenvalues of (default mixing * dielectric matrix)
  average eigenvalue GAMMA=   2.0736
  8.2817  4.9261  2.9160  2.2941  2.0677  1.3347  1.0684  1.0684  1.1778  1.1778
  0.9024  0.9024  0.9134  1.0369  1.0369

 Free energy of the ion-electron system (eV)
  ---------------------------------------------------
  alpha Z        PSCENC =         0.17739900
  Ewald energy   TEWEN  =      4015.64081378
  -Hartree energ DENC   =     -5684.26851099
  -exchange      EXHF   =         0.00000000
  -V(xc)+E(xc)   XCENC  =       167.20151603
  PAW double counting   =      2362.77356498    -2375.03015907
  entropy T*S    EENTRO =        -0.00000000
  eigenvalues    EBANDS =      -600.49956262
  atomic energy  EATOM  =      2032.42985693
  Solvation  Ediel_sol  =         0.00000000
  ---------------------------------------------------
  free energy    TOTEN  =       -81.57508195 eV

  energy without entropy =      -81.57508195  energy(sigma->0) =      -81.57508195


--------------------------------------------------------------------------------------------------------




----------------------------------------- Iteration    1(  21)  ---------------------------------------


    POTLOK:  cpu time   15.2439: real time   15.2855
    SETDIJ:  cpu time    0.2556: real time    0.2565
     EDDAV:  cpu time   18.4475: real time   18.5073
       DOS:  cpu time    0.0001: real time    0.0001
    CHARGE:  cpu time    8.8285: real time    8.8559
    MIXING:  cpu time    0.6780: real time    0.6800
    --------------------------------------------
      LOOP:  cpu time   43.4558: real time   43.5901

 eigenvalue-minimisations  :    80
 total energy-change (2. order) :-0.1651567E-03  (-0.4175383E-06)
 number of electron      42.0000001 magnetization 
 augmentation part        1.7902046 magnetization 

 Broyden mixing:
  rms(total) = 0.13533E-03    rms(broyden)= 0.13532E-03
  rms(prec ) = 0.16718E-03
  weight for this iteration     100.00

 eigenvalues of (default mixing * dielectric matrix)
  average eigenvalue GAMMA=   2.1391
  8.7125  5.3618  3.4475  2.5422  2.0854  1.7085  1.2887  1.1317  1.1317  1.0610
  1.0610  0.9085  0.9040  0.9040  0.9882  0.9882

 Free energy of the ion-electron system (eV)
  ---------------------------------------------------
  alpha Z        PSCENC =         0.17739900
  Ewald energy   TEWEN  =      4015.64081378
  -Hartree energ DENC   =     -5684.27520683
  -exchange      EXHF   =         0.00000000
  -V(xc)+E(xc)   XCENC  =       167.20153922
  PAW double counting   =      2362.80535654    -2375.06196207
  entropy T*S    EENTRO =        -0.00000000
  eigenvalues    EBANDS =      -600.49304368
  atomic energy  EATOM  =      2032.42985693
  Solvation  Ediel_sol  =         0.00000000
  ---------------------------------------------------
  free energy    TOTEN  =       -81.57524711 eV

  energy without entropy =      -81.57524711  energy(sigma->0) =      -81.57524711


--------------------------------------------------------------------------------------------------------




----------------------------------------- Iteration    1(  22)  ---------------------------------------


    POTLOK:  cpu time   15.2378: real time   15.2794
    SETDIJ:  cpu time    0.2546: real time    0.2553
     EDDAV:  cpu time   15.6180: real time   15.6702
       DOS:  cpu time    0.0001: real time    0.0001
    CHARGE:  cpu time    8.8339: real time    8.8612
    MIXING:  cpu time    0.7034: real time    0.7051
    --------------------------------------------
      LOOP:  cpu time   40.6499: real time   40.7763

 eigenvalue-minimisations  :    64
 total energy-change (2. order) :-0.1373947E-03  (-0.1789453E-06)
 number of electron      42.0000001 magnetization 
 augmentation part        1.7901783 magnetization 

 Broyden mixing:
  rms(total) = 0.76268E-04    rms(broyden)= 0.76268E-04
  rms(prec ) = 0.92529E-04
  weight for this iteration     100.00

 eigenvalues of (default mixing * dielectric matrix)
  average eigenvalue GAMMA=   2.1380
  8.7638  5.7183  3.5877  2.5061  2.4019  1.6304  1.3537  1.3537  1.1026  1.1026
  1.1517  1.0022  1.0022  0.9003  0.9003  0.9802  0.8874

 Free energy of the ion-electron system (eV)
  ---------------------------------------------------
  alpha Z        PSCENC =         0.17739900
  Ewald energy   TEWEN  =      4015.64081378
  -Hartree energ DENC   =     -5684.28008466
  -exchange      EXHF   =         0.00000000
  -V(xc)+E(xc)   XCENC  =       167.20137528
  PAW double counting   =      2362.78152782    -2375.03812467
  entropy T*S    EENTRO =        -0.00000000
  eigenvalues    EBANDS =      -600.48814799
  atomic energy  EATOM  =      2032.42985693
  Solvation  Ediel_sol  =         0.00000000
  ---------------------------------------------------
  free energy    TOTEN  =       -81.57538450 eV

  energy without entropy =      -81.57538450  energy(sigma->0) =      -81.57538450


--------------------------------------------------------------------------------------------------------




----------------------------------------- Iteration    1(  23)  ---------------------------------------


    POTLOK:  cpu time   15.2359: real time   15.2778
    SETDIJ:  cpu time    0.2548: real time    0.2554
     EDDAV:  cpu time   14.2258: real time   14.2729
       DOS:  cpu time    0.0001: real time    0.0001
    CHARGE:  cpu time    8.8288: real time    8.8560
    MIXING:  cpu time    0.7284: real time    0.7305
    --------------------------------------------
      LOOP:  cpu time   39.2760: real time   39.3977

 eigenvalue-minimisations  :    56
 total energy-change (2. order) :-0.4388024E-04  (-0.3980165E-07)
 number of electron      42.0000001 magnetization 
 augmentation part        1.7901755 magnetization 

 Broyden mixing:
  rms(total) = 0.44445E-04    rms(broyden)= 0.44445E-04
  rms(prec ) = 0.56339E-04
  weight for this iteration     100.00

 eigenvalues of (default mixing * dielectric matrix)
  average eigenvalue GAMMA=   2.1727
  8.9176  6.1909  3.9566  2.7902  2.3671  2.0097  1.4056  1.4056  1.1323  1.1323
  1.0906  1.0906  0.9924  0.9924  0.9039  0.9039  0.9131  0.9131

 Free energy of the ion-electron system (eV)
  ---------------------------------------------------
  alpha Z        PSCENC =         0.17739900
  Ewald energy   TEWEN  =      4015.64081378
  -Hartree energ DENC   =     -5684.28315105
  -exchange      EXHF   =         0.00000000
  -V(xc)+E(xc)   XCENC  =       167.20134746
  PAW double counting   =      2362.79684756    -2375.05352019
  entropy T*S    EENTRO =        -0.00000000
  eigenvalues    EBANDS =      -600.48502188
  atomic energy  EATOM  =      2032.42985693
  Solvation  Ediel_sol  =         0.00000000
  ---------------------------------------------------
  free energy    TOTEN  =       -81.57542838 eV

  energy without entropy =      -81.57542838  energy(sigma->0) =      -81.57542838


--------------------------------------------------------------------------------------------------------




----------------------------------------- Iteration    1(  24)  ---------------------------------------


    POTLOK:  cpu time   15.2185: real time   15.2600
    SETDIJ:  cpu time    0.2549: real time    0.2555
     EDDAV:  cpu time   11.4113: real time   11.4501
       DOS:  cpu time    0.0001: real time    0.0001
    CHARGE:  cpu time    8.8234: real time    8.8508
    MIXING:  cpu time    0.7496: real time    0.7514
    --------------------------------------------
      LOOP:  cpu time   36.4599: real time   36.5729

 eigenvalue-minimisations  :    40
 total energy-change (2. order) :-0.3291013E-04  (-0.1455652E-07)
 number of electron      42.0000001 magnetization 
 augmentation part        1.7901776 magnetization 

 Broyden mixing:
  rms(total) = 0.26903E-04    rms(broyden)= 0.26903E-04
  rms(prec ) = 0.33499E-04
  weight for this iteration     100.00

 eigenvalues of (default mixing * dielectric matrix)
  average eigenvalue GAMMA=   2.1762
  9.0611  6.3946  4.2059  2.9641  2.4049  2.2003  1.4629  1.4629  1.0961  1.0961
  1.1956  1.1956  0.9960  0.9960  0.9037  0.9037  0.9160  0.9461  0.9461

 Free energy of the ion-electron system (eV)
  ---------------------------------------------------
  alpha Z        PSCENC =         0.17739900
  Ewald energy   TEWEN  =      4015.64081378
  -Hartree energ DENC   =     -5684.28471130
  -exchange      EXHF   =         0.00000000
  -V(xc)+E(xc)   XCENC  =       167.20127985
  PAW double counting   =      2362.79630226    -2375.05296913
  entropy T*S    EENTRO =        -0.00000000
  eigenvalues    EBANDS =      -600.48343268
  atomic energy  EATOM  =      2032.42985693
  Solvation  Ediel_sol  =         0.00000000
  ---------------------------------------------------
  free energy    TOTEN  =       -81.57546129 eV

  energy without entropy =      -81.57546129  energy(sigma->0) =      -81.57546129


--------------------------------------------------------------------------------------------------------




----------------------------------------- Iteration    1(  25)  ---------------------------------------


    POTLOK:  cpu time   15.2279: real time   15.2697
    SETDIJ:  cpu time    0.2543: real time    0.2549
     EDDAV:  cpu time   14.2272: real time   14.2737
       DOS:  cpu time    0.0001: real time    0.0001
    CHARGE:  cpu time    8.8275: real time    8.8547
    MIXING:  cpu time    0.7755: real time    0.7777
    --------------------------------------------
      LOOP:  cpu time   39.3146: real time   39.4356

 eigenvalue-minimisations  :    56
 total energy-change (2. order) :-0.1480976E-04  (-0.7083235E-08)
 number of electron      42.0000001 magnetization 
 augmentation part        1.7901799 magnetization 

 Broyden mixing:
  rms(total) = 0.15301E-04    rms(broyden)= 0.15301E-04
  rms(prec ) = 0.19601E-04
  weight for this iteration     100.00

 eigenvalues of (default mixing * dielectric matrix)
  average eigenvalue GAMMA=   2.1877
  9.2334  6.5263  4.5661  3.0390  2.4535  2.4535  1.7148  1.4805  1.4805  1.0923
  1.0923  1.1052  1.1052  0.9940  0.9940  0.9035  0.9035  0.9037  0.9037  0.8096

 Free energy of the ion-electron system (eV)
  ---------------------------------------------------
  alpha Z        PSCENC =         0.17739900
  Ewald energy   TEWEN  =      4015.64081378
  -Hartree energ DENC   =     -5684.28657272
  -exchange      EXHF   =         0.00000000
  -V(xc)+E(xc)   XCENC  =       167.20128857
  PAW double counting   =      2362.79725496    -2375.05391411
  entropy T*S    EENTRO =        -0.00000000
  eigenvalues    EBANDS =      -600.48160250
  atomic energy  EATOM  =      2032.42985693
  Solvation  Ediel_sol  =         0.00000000
  ---------------------------------------------------
  free energy    TOTEN  =       -81.57547610 eV

  energy without entropy =      -81.57547610  energy(sigma->0) =      -81.57547610


--------------------------------------------------------------------------------------------------------




----------------------------------------- Iteration    1(  26)  ---------------------------------------


    POTLOK:  cpu time   15.2067: real time   15.2482
    SETDIJ:  cpu time    0.2550: real time    0.2557
     EDDAV:  cpu time   11.4067: real time   11.4446
       DOS:  cpu time    0.0001: real time    0.0001
    CHARGE:  cpu time    8.8311: real time    8.8584
    MIXING:  cpu time    0.8043: real time    0.8062
    --------------------------------------------
      LOOP:  cpu time   36.5061: real time   36.6177

 eigenvalue-minimisations  :    40
 total energy-change (2. order) :-0.7840616E-05  (-0.3125667E-08)
 number of electron      42.0000001 magnetization 
 augmentation part        1.7901785 magnetization 

 Broyden mixing:
  rms(total) = 0.14795E-04    rms(broyden)= 0.14794E-04
  rms(prec ) = 0.16839E-04
  weight for this iteration     100.00

 eigenvalues of (default mixing * dielectric matrix)
  average eigenvalue GAMMA=   2.2148
  9.2946  6.9321  4.9727  3.4639  2.6499  2.3614  2.0937  1.4034  1.4034  1.2341
  1.2341  1.0797  1.0797  1.0024  1.0024  0.9013  0.9013  0.9370  0.9370  0.8717
  0.7546

 Free energy of the ion-electron system (eV)
  ---------------------------------------------------
  alpha Z        PSCENC =         0.17739900
  Ewald energy   TEWEN  =      4015.64081378
  -Hartree energ DENC   =     -5684.28809672
  -exchange      EXHF   =         0.00000000
  -V(xc)+E(xc)   XCENC  =       167.20131425
  PAW double counting   =      2362.79752558    -2375.05417896
  entropy T*S    EENTRO =        -0.00000000
  eigenvalues    EBANDS =      -600.48011781
  atomic energy  EATOM  =      2032.42985693
  Solvation  Ediel_sol  =         0.00000000
  ---------------------------------------------------
  free energy    TOTEN  =       -81.57548394 eV

  energy without entropy =      -81.57548394  energy(sigma->0) =      -81.57548394


--------------------------------------------------------------------------------------------------------




----------------------------------------- Iteration    1(  27)  ---------------------------------------


    POTLOK:  cpu time   15.2282: real time   15.2700
    SETDIJ:  cpu time    0.2545: real time    0.2551
     EDDAV:  cpu time   12.8010: real time   12.8439
       DOS:  cpu time    0.0001: real time    0.0001
    CHARGE:  cpu time    8.8345: real time    8.8618
    MIXING:  cpu time    0.8335: real time    0.8355
    --------------------------------------------
      LOOP:  cpu time   37.9539: real time   38.0712

 eigenvalue-minimisations  :    48
 total energy-change (2. order) :-0.4123719E-05  (-0.1961430E-08)
 number of electron      42.0000001 magnetization 
 augmentation part        1.7901793 magnetization 

 Broyden mixing:
  rms(total) = 0.78672E-05    rms(broyden)= 0.78672E-05
  rms(prec ) = 0.92354E-05
  weight for this iteration     100.00

 eigenvalues of (default mixing * dielectric matrix)
  average eigenvalue GAMMA=   2.2060
  9.3870  7.0209  5.1763  3.5592  2.6350  2.3046  2.1414  1.6211  1.4290  1.4290
  1.1016  1.1016  0.9961  0.9961  1.1595  1.1595  0.9021  0.9021  0.9734  0.9734
  0.8936  0.6698

 Free energy of the ion-electron system (eV)
  ---------------------------------------------------
  alpha Z        PSCENC =         0.17739900
  Ewald energy   TEWEN  =      4015.64081378
  -Hartree energ DENC   =     -5684.28827109
  -exchange      EXHF   =         0.00000000
  -V(xc)+E(xc)   XCENC  =       167.20131012
  PAW double counting   =      2362.79814468    -2375.05480389
  entropy T*S    EENTRO =        -0.00000000
  eigenvalues    EBANDS =      -600.47993759
  atomic energy  EATOM  =      2032.42985693
  Solvation  Ediel_sol  =         0.00000000
  ---------------------------------------------------
  free energy    TOTEN  =       -81.57548807 eV

  energy without entropy =      -81.57548807  energy(sigma->0) =      -81.57548807


--------------------------------------------------------------------------------------------------------




----------------------------------------- Iteration    1(  28)  ---------------------------------------


    POTLOK:  cpu time   15.2496: real time   15.2915
    SETDIJ:  cpu time    0.2551: real time    0.2557
     EDDAV:  cpu time   11.4280: real time   11.4650
       DOS:  cpu time    0.0001: real time    0.0001
    CHARGE:  cpu time    8.8155: real time    8.8430
[...]
  rms(prec ) = 0.30948E-05
  weight for this iteration     100.00

 eigenvalues of (default mixing * dielectric matrix)
  average eigenvalue GAMMA=   2.2191
  9.4681  7.7127  5.7373  4.3868  3.0481  2.6281  2.2462  1.9117  1.9117  1.3672
  1.3672  1.2899  1.1009  1.1009  1.0003  1.0003  0.9033  0.9033  1.0701  1.0701
  1.0449  0.8856  0.8686  0.8686  0.5867

 Free energy of the ion-electron system (eV)
  ---------------------------------------------------
  alpha Z        PSCENC =         0.17739900
  Ewald energy   TEWEN  =      4015.64081378
  -Hartree energ DENC   =     -5684.28809045
  -exchange      EXHF   =         0.00000000
  -V(xc)+E(xc)   XCENC  =       167.20129393
  PAW double counting   =      2362.79652444    -2375.05318211
  entropy T*S    EENTRO =        -0.00000000
  eigenvalues    EBANDS =      -600.48010744
  atomic energy  EATOM  =      2032.42985693
  Solvation  Ediel_sol  =         0.00000000
  ---------------------------------------------------
  free energy    TOTEN  =       -81.57549193 eV

  energy without entropy =      -81.57549193  energy(sigma->0) =      -81.57549193


--------------------------------------------------------------------------------------------------------




----------------------------------------- Iteration    1(  31)  ---------------------------------------


    POTLOK:  cpu time   15.3240: real time   15.3661
    SETDIJ:  cpu time    0.2546: real time    0.2552
     EDDAV:  cpu time   12.8298: real time   12.8729
       DOS:  cpu time    0.0001: real time    0.0001
    CHARGE:  cpu time    8.8399: real time    8.8673
    MIXING:  cpu time    0.9557: real time    0.9583
    --------------------------------------------
      LOOP:  cpu time   38.2062: real time   38.3250

 eigenvalue-minimisations  :    48
 total energy-change (2. order) :-0.3288383E-06  (-0.1074323E-09)
 number of electron      42.0000001 magnetization 
 augmentation part        1.7901796 magnetization 

 Broyden mixing:
  rms(total) = 0.18099E-05    rms(broyden)= 0.18099E-05
  rms(prec ) = 0.19958E-05
  weight for this iteration     100.00

 eigenvalues of (default mixing * dielectric matrix)
  average eigenvalue GAMMA=   2.2563
  9.5315  7.9150  6.0738  4.6541  3.4168  2.8010  2.3741  2.3741  2.0211  1.4874
  1.3768  1.3768  1.1057  1.1057  0.9987  0.9987  1.1207  1.1207  0.9032  0.9032
  0.9636  0.9636  0.8899  0.8899  0.7317  0.5659

 Free energy of the ion-electron system (eV)
  ---------------------------------------------------
  alpha Z        PSCENC =         0.17739900
  Ewald energy   TEWEN  =      4015.64081378
  -Hartree energ DENC   =     -5684.28814447
  -exchange      EXHF   =         0.00000000
  -V(xc)+E(xc)   XCENC  =       167.20129567
  PAW double counting   =      2362.79676626    -2375.05342507
  entropy T*S    EENTRO =        -0.00000000
  eigenvalues    EBANDS =      -600.48005436
  atomic energy  EATOM  =      2032.42985693
  Solvation  Ediel_sol  =         0.00000000
  ---------------------------------------------------
  free energy    TOTEN  =       -81.57549226 eV

  energy without entropy =      -81.57549226  energy(sigma->0) =      -81.57549226


--------------------------------------------------------------------------------------------------------




----------------------------------------- Iteration    1(  32)  ---------------------------------------


    POTLOK:  cpu time   15.3439: real time   15.3857
    SETDIJ:  cpu time    0.2556: real time    0.2562
     EDDAV:  cpu time   12.8176: real time   12.8604
       DOS:  cpu time    0.0001: real time    0.0001
    CHARGE:  cpu time    8.8344: real time    8.8618
    MIXING:  cpu time    0.9857: real time    0.9884
    --------------------------------------------
      LOOP:  cpu time   38.2394: real time   38.3576

 eigenvalue-minimisations  :    48
 total energy-change (2. order) :-0.2492384E-06  ( 0.7302248E-10)
 number of electron      42.0000001 magnetization 
 augmentation part        1.7901798 magnetization 

 Broyden mixing:
  rms(total) = 0.10628E-05    rms(broyden)= 0.10628E-05
  rms(prec ) = 0.11618E-05
  weight for this iteration     100.00

 eigenvalues of (default mixing * dielectric matrix)
  average eigenvalue GAMMA=   2.2370
  9.5480  8.0781  6.2050  4.8174  3.5625  2.8025  2.4141  2.4141  1.9230  1.5717
  1.3839  1.3839  1.1033  1.1033  1.1825  1.1825  0.9986  0.9986  0.9033  0.9033
  0.9645  0.9645  0.9544  0.8802  0.8802  0.7164  0.5587

 Free energy of the ion-electron system (eV)
  ---------------------------------------------------
  alpha Z        PSCENC =         0.17739900
  Ewald energy   TEWEN  =      4015.64081378
  -Hartree energ DENC   =     -5684.28815775
  -exchange      EXHF   =         0.00000000
  -V(xc)+E(xc)   XCENC  =       167.20129364
  PAW double counting   =      2362.79678591    -2375.05344587
  entropy T*S    EENTRO =        -0.00000000
  eigenvalues    EBANDS =      -600.48003815
  atomic energy  EATOM  =      2032.42985693
  Solvation  Ediel_sol  =         0.00000000
  ---------------------------------------------------
  free energy    TOTEN  =       -81.57549250 eV

  energy without entropy =      -81.57549250  energy(sigma->0) =      -81.57549250


--------------------------------------------------------------------------------------------------------




----------------------------------------- Iteration    1(  33)  ---------------------------------------


    POTLOK:  cpu time   15.3033: real time   15.3450
    SETDIJ:  cpu time    0.2530: real time    0.2539
     EDDAV:  cpu time   14.2459: real time   14.2936
       DOS:  cpu time    0.0001: real time    0.0001
    --------------------------------------------
      LOOP:  cpu time   29.8042: real time   29.8975

 eigenvalue-minimisations  :    56
 total energy-change (2. order) :-0.5912079E-07  ( 0.1776552E-09)
 number of electron      42.0000001 magnetization 
 augmentation part        1.7901798 magnetization 

 Free energy of the ion-electron system (eV)
  ---------------------------------------------------
  alpha Z        PSCENC =         0.17739900
  Ewald energy   TEWEN  =      4015.64081378
  -Hartree energ DENC   =     -5684.28815858
  -exchange      EXHF   =         0.00000000
  -V(xc)+E(xc)   XCENC  =       167.20129326
  PAW double counting   =      2362.79681740    -2375.05347763
  entropy T*S    EENTRO =        -0.00000000
  eigenvalues    EBANDS =      -600.48003672
  atomic energy  EATOM  =      2032.42985693
  Solvation  Ediel_sol  =         0.00000000
  ---------------------------------------------------
  free energy    TOTEN  =       -81.57549256 eV

  energy without entropy =      -81.57549256  energy(sigma->0) =      -81.57549256


--------------------------------------------------------------------------------------------------------




 average (electrostatic) potential at core
  the test charge radii are     0.7215  0.5902  0.6991  0.5883
  (the norm of the test charge is              1.0000)
       1 -80.0185       2 -80.0062       3 -74.8301       4 -74.2012       5 -62.4913
       6 -60.9827       7 -59.4911       8 -61.6582       9 -40.6468      10 -43.1102
      11 -42.6517      12 -41.4649
 
 
 
 E-fermi :  -6.1713     XC(G=0):  -0.0514     alpha+bet : -0.0195


 k-point     1 :       0.0000    0.0000    0.0000
  band No.  band energies     occupation 
      1     -27.2178      2.00000
      2     -26.3204      2.00000
      3     -24.7984      2.00000
      4     -23.4332      2.00000
      5     -20.1288      2.00000
      6     -17.5596      2.00000
      7     -16.7472      2.00000
      8     -15.1268      2.00000
      9     -14.1475      2.00000
     10     -13.1074      2.00000
     11     -12.1556      2.00000
     12     -11.7508      2.00000
     13     -11.0620      2.00000
     14     -10.3460      2.00000
     15     -10.2237      2.00000
     16     -10.1862      2.00000
     17      -9.2611      2.00000
     18      -7.0819      2.00000
     19      -6.9443      2.00000
     20      -6.4169      2.00000
     21      -6.2245      2.00000
     22      -2.4449      0.00000
     23      -1.1228      0.00000
     24      -1.1160      0.00000
     25      -0.2443      0.00000
     26      -0.2046      0.00000
     27       0.0095      0.00000
     28       0.0357      0.00000


--------------------------------------------------------------------------------------------------------


 soft charge-density along one line, spin component           1
         0         1         2         3         4         5         6         7         8         9
 total charge-density along one line
 
 pseudopotential strength for first ion, spin component:           1
 13.760 -10.556  -0.086   0.000  -0.081   0.390  -0.000   0.367
-10.556   8.195   0.083  -0.000   0.078  -0.353   0.000  -0.333
 -0.086   0.083 -10.366   0.000  -0.095   1.104  -0.000   0.147
  0.000  -0.000   0.000 -10.320  -0.000  -0.000   1.019   0.000
 -0.081   0.078  -0.095  -0.000 -10.353   0.147   0.000   1.083
  0.390  -0.353   1.104  -0.000   0.147  38.703   0.000  -0.094
 -0.000   0.000  -0.000   1.019   0.000   0.000  38.741  -0.000
  0.367  -0.333   0.147   0.000   1.083  -0.094  -0.000  38.717
 total augmentation occupancy for first ion, spin component:           1
  1.920   0.035  -0.079   0.000  -0.077   0.023   0.000   0.022
  0.035   0.003   0.040   0.000   0.038   0.004   0.000   0.003
 -0.079   0.040   1.676   0.000  -0.099   0.075   0.000   0.033
  0.000   0.000   0.000   1.485   0.000   0.000   0.045   0.000
 -0.077   0.038  -0.099   0.000   1.687   0.033   0.000   0.071
  0.023   0.004   0.075   0.000   0.033   0.005   0.000   0.004
  0.000   0.000   0.000   0.045   0.000   0.000   0.002   0.000
  0.022   0.003   0.033   0.000   0.071   0.004   0.000   0.005


------------------------ aborting loop because EDIFF is reached ----------------------------------------


    CHARGE:  cpu time    8.8247: real time    8.8519
    FORLOC:  cpu time    2.2157: real time    2.2217
    FORNL :  cpu time    2.0594: real time    2.0650
    STRESS:  cpu time   10.6811: real time   10.7104
    FORHAR:  cpu time    5.6470: real time    5.6623
    MIXING:  cpu time    1.0247: real time    1.0275
    OFIELD:  cpu time    0.0000: real time    0.0000

  FORCE on cell =-STRESS in cart. coord.  units (eV):
  Direction    XX          YY          ZZ          XY          YZ          ZX
  --------------------------------------------------------------------------------------
  Alpha Z     0.17740     0.17740     0.17740
  Ewald    1854.18283  2506.90663  -345.44862   127.26163    -0.00000    -0.00000
  Hartree  2193.40926  2679.54270   811.33619   103.91505    -0.00000     0.00000
  E(xc)    -173.61890  -172.90642  -177.78498     0.11118    -0.00000     0.00000
  Local   -4513.40803 -5626.77359 -1017.20451  -228.53267    -0.00000     0.00000
  n-local  -122.63930  -123.55273  -117.64711     0.37025     0.00000     0.00000
  augment    11.38353     9.77946    10.72870    -0.29272    -0.00000    -0.00000
  Kinetic   753.36127   728.85623   835.83889    -2.83772    -0.00000    -0.00000
  Fock        0.00000     0.00000     0.00000     0.00000     0.00000     0.00000
  -------------------------------------------------------------------------------------
  Total       2.84805     2.02967    -0.00404    -0.00500     0.00000     0.00000
  in kB       0.10643     0.07585    -0.00015    -0.00019     0.00000     0.00000
  external pressure =        0.06 kB  Pullay stress =        0.00 kB


 VOLUME and BASIS-vectors are now :
 -----------------------------------------------------------------------------
  energy-cutoff  :     1600.00
  volume of cell :    42875.00
      direct lattice vectors                 reciprocal lattice vectors
    35.000000000  0.000000000  0.000000000     0.028571429  0.000000000  0.000000000
     0.000000000 35.000000000  0.000000000     0.000000000  0.028571429  0.000000000
     0.000000000  0.000000000 35.000000000     0.000000000  0.000000000  0.028571429

  length of vectors
    35.000000000 35.000000000 35.000000000     0.028571429  0.028571429  0.028571429


 FORCES acting on ions
    electron-ion (+dipol)            ewald-force                    non-local-force                 convergence-correction
 -----------------------------------------------------------------------------------------------
   0.284E+03 0.326E+03 0.792E-08   -.322E+03 -.366E+03 0.705E-17   0.379E+02 0.400E+02 0.000E+00   0.375E-05 0.760E-05 -.114E-12
   0.131E+03 -.401E+03 0.452E-09   -.152E+03 0.453E+03 0.123E-17   0.200E+02 -.512E+02 0.000E+00   -.390E-05 0.311E-05 -.212E-13
   -.152E+03 0.218E+03 -.149E-09   0.153E+03 -.220E+03 0.174E-17   0.242E-01 0.218E+01 0.000E+00   0.110E-05 0.360E-05 0.234E-13
   0.206E+03 -.559E+02 -.445E-09   -.206E+03 0.592E+02 0.195E-17   0.424E+00 -.287E+01 0.000E+00   0.555E-06 -.211E-06 -.479E-13
   0.292E+02 0.575E+02 -.413E-08   -.318E+02 -.592E+02 -.569E-17   0.121E+01 0.950E+00 0.000E+00   0.659E-05 0.866E-05 -.375E-13
   -.238E+03 0.285E+02 0.294E-09   0.242E+03 -.237E+02 0.100E-17   -.434E+01 -.475E+01 0.000E+00   -.303E-05 -.238E-05 0.444E-13
   -.176E+03 -.136E+03 -.592E-09   0.177E+03 0.139E+03 -.115E-17   -.111E+01 -.291E+01 0.000E+00   -.542E-06 -.295E-05 0.541E-13
   -.388E+02 -.602E+02 -.466E-09   0.436E+02 0.604E+02 -.586E-17   -.472E+01 -.636E+00 0.000E+00   -.200E-05 -.500E-05 0.177E-14
   -.683E+02 -.608E+02 0.454E-10   0.725E+02 0.655E+02 0.123E-18   -.407E+01 -.447E+01 0.000E+00   -.189E-06 -.688E-06 0.157E-13
   -.439E+02 0.102E+03 0.761E-11   0.457E+02 -.108E+03 -.309E-18   -.207E+01 0.702E+01 0.000E+00   0.226E-07 0.143E-05 0.156E-14
   0.111E+03 -.226E+02 -.113E-10   -.118E+03 0.241E+02 0.494E-18   0.758E+01 -.152E+01 0.000E+00   0.250E-06 0.131E-06 -.130E-13
   -.895E+02 0.219E+02 0.234E-12   0.957E+02 -.236E+02 -.234E-18   -.586E+01 0.166E+01 0.000E+00   -.395E-06 -.139E-06 0.126E-13
 -----------------------------------------------------------------------------------------------
   -.449E+02 0.166E+02 0.292E-08   0.114E-12 0.568E-13 0.357E-18   0.449E+02 -.166E+02 0.000E+00   0.222E-05 0.131E-04 -.798E-13
 
 
 POSITION                                       TOTAL-FORCE (eV/Angst)
 -----------------------------------------------------------------------------------
     33.53367      1.01217      0.00000         0.255979     -0.034238      0.000000
     34.40278      5.48641      0.00000        -0.238401      0.713399      0.000000
      0.72051      1.68827      0.00000         0.951997     -0.591934      0.000000
     34.02228      3.23964      0.00000         0.199938      0.386497      0.000000
     34.37185      1.91427      0.00000        -1.379894     -0.692053      0.000000
      1.63673      2.70528      0.00000         0.144178      0.021150      0.000000
      1.27690      4.00618      0.00000        -0.054543     -0.120295      0.000000
     34.87140      4.36216      0.00000         0.166087     -0.393954      0.000000
      2.01035      4.79386      0.00000         0.206882      0.233170      0.000000
      1.02325      0.70618      0.00000        -0.272869      0.536093      0.000000
     33.02997      3.43239      0.00000        -0.300361      0.011595      0.000000
      2.66906      2.38834      0.00000         0.321007     -0.069432      0.000000
 -----------------------------------------------------------------------------------
    total drift:                               -0.000087     -0.000069      0.000000


--------------------------------------------------------------------------------------------------------



  FREE ENERGIE OF THE ION-ELECTRON SYSTEM (eV)
  ---------------------------------------------------
  free  energy   TOTEN  =       -81.57549256 eV

  energy  without entropy=      -81.57549256  energy(sigma->0) =      -81.57549256
 


--------------------------------------------------------------------------------------------------------


    POTLOK:  cpu time   15.6301: real time   15.6729


--------------------------------------------------------------------------------------------------------


 writing wavefunctions
     LOOP+:  cpu time 1885.5868: real time 1891.4222
    4ORBIT:  cpu time    0.0000: real time    0.0000

 total amount of memory used by VASP on root node  4072922. kBytes
========================================================================

   base      :      30000. kBytes
   nonl-proj :     236769. kBytes
   fftplans  :    1215227. kBytes
   grid      :    2547302. kBytes
   one-center:          8. kBytes
   wavefun   :      43616. kBytes
 
  
  
 General timing and accounting informations for this job:
 ========================================================
  
                  Total CPU time used (sec):     2656.498
                            User time (sec):     2405.773
                          System time (sec):      250.725
                         Elapsed time (sec):     2665.118
  
                   Maximum memory used (kb):     6582916.
                   Average memory used (kb):           0.
  
                          Minor page faults:       206997
                          Major page faults:            6
                 Voluntary context switches:        36445
 
 PROFILE, used timers:      14
 =============================
 
 index                 routine                    time                            calls level
----------------------------------------------------------------------------------------------
    1    total_time                         2665.118431                                1   1
    2      w1_copy                               3.382928                           2407   2
    3      fftwav_mpi                          190.942930                            981   2
    4      fftext_mpi                            0.937620                              7   2
    5      overl                                 0.001622                           1370   2
    6      orth1                                 5.175985                           1408   2
    7      lincom                                0.369269                             34   2
    8      eccp                                  8.408463                            231   2
    9      hamiltmu                            269.993566                            469   2
   10        vhamil                               39.599272                          800   3
   11        overl1                                0.001202                          800   3
   12        kinhamil                            144.601700                          800   3
   13          fftext_mpi                          143.522776                        800   4
   14      pdssyex_zheevx                        0.074575                             33   2
 
 Flat profile
 ============
 
             routine name                   CPU           calls
 ---------------------------------------------------------------
 total_time                           2185.831474           1
 fftwav_mpi                            190.942930         981
 fftext_mpi                            144.460396         807
 hamiltmu                               85.791392         469
 vhamil                                 39.599272         800
 eccp                                    8.408463         231
 orth1                                   5.175985        1408
 w1_copy                                 3.382928        2407
 kinhamil                                1.078924         800
 lincom                                  0.369269          34
 pdssyex_zheevx                          0.074575          33
 overl                                   0.001622        1370
 overl1                                  0.001202         800
 ---------------------------------------------------------------
  summed up times    2665.11843109131     
 
Profiling took   0.008736  0.004831  0.003230  0.003222 seconds
Profiling took   0.005047 seconds
