 vasp.5.4.1 24Jun15 (build Jan 02 2020 16:21:29) gamma-only                     
  
 executed on           IFC15_impi date 2020.04.24  11:21:19
 running on   32 total cores
 distrk:  each k-point on   32 cores,    1 groups
 distr:  one band on NCORES_PER_BAND=   8 cores,    4 groups


--------------------------------------------------------------------------------------------------------


 INCAR:
 POTCAR:    PAW_PBE O_GW 28Sep2005                
 POTCAR:    PAW_PBE N_GW 10Apr2007                
 POTCAR:    PAW_PBE C_GW 28Sep2005                
 POTCAR:    PAW_PBE H_GW 21Apr2008                
 POTCAR:    PAW_PBE O_GW 28Sep2005                
   VRHFIN =O: s2p4                                                              
   LEXCH  = PE                                                                  
   EATOM  =   432.3788 eV,   31.7789 Ry                                         
                                                                                
   TITEL  = PAW_PBE O_GW 28Sep2005                                              
   LULTRA =        F    use ultrasoft PP ?                                      
   IUNSCR =        0    unscreen: 0-lin 1-nonlin 2-no                           
   RPACOR =    0.000    partial core radius                                     
   POMASS =   16.000; ZVAL   =    6.000    mass and valenz                      
   RCORE  =    1.520    outmost cutoff radius                                   
   RWIGS  =    1.550; RWIGS  =    0.820    wigner-seitz radius (au A)           
   ENMAX  =  414.635; ENMIN  =  310.976 eV                                      
   ICORE  =        2    local potential                                         
   LCOR   =        T    correct aug charges                                     
   LPAW   =        T    paw PP                                                  
   EAUG   =  605.392                                                            
   DEXC   =    0.000                                                            
   RMAX   =    1.553    core radius for proj-oper                               
   RAUG   =    1.300    factor for augmentation sphere                          
   RDEP   =    1.550    radius for radial grids                                 
   RDEPT  =    1.329    core radius for aug-charge                              
                                                                                
   Atomic configuration                                                         
    4 entries                                                                   
     n  l   j            E        occ.                                          
     1  0  0.50      -514.6923   2.0000                                         
     2  0  0.50       -23.9615   2.0000                                         
     2  1  0.50        -9.0305   4.0000                                         
     3  2  1.50        -9.5241   0.0000                                         
   Description                                                                  
     l       E           TYP  RCUT    TYP  RCUT                                 
     0    -23.9615316     23  1.200                                             
     0     81.6349560     23  1.200                                             
     1     -9.0304908     23  1.520                                             
     1     81.6349560     23  1.520                                             
     2     -9.5240782      7  1.500                                             
  local pseudopotential read in
  kinetic energy density of atom read in
  atomic valenz-charges read in
  non local Contribution for L=           0  read in
    real space projection operators read in
  non local Contribution for L=           0  read in
    real space projection operators read in
  non local Contribution for L=           1  read in
    real space projection operators read in
  non local Contribution for L=           1  read in
    real space projection operators read in
    PAW grid and wavefunctions read in
 
   number of l-projection  operators is LMAX  =           4
   number of lm-projection operators is LMMAX =           8
 
 POTCAR:    PAW_PBE N_GW 10Apr2007                
   VRHFIN =N: s2p3                                                              
   LEXCH  = PE                                                                  
   EATOM  =   264.5486 eV,   19.4438 Ry                                         
                                                                                
   TITEL  = PAW_PBE N_GW 10Apr2007                                              
   LULTRA =        F    use ultrasoft PP ?                                      
   IUNSCR =        0    unscreen: 0-lin 1-nonlin 2-no                           
   RPACOR =    0.000    partial core radius                                     
   POMASS =   14.001; ZVAL   =    5.000    mass and valenz                      
   RCORE  =    1.500    outmost cutoff radius                                   
   RWIGS  =    1.400; RWIGS  =    0.741    wigner-seitz radius (au A)           
   ENMAX  =  420.902; ENMIN  =  315.677 eV                                      
   ICORE  =        2    local potential                                         
   LCOR   =        T    correct aug charges                                     
   LPAW   =        T    paw PP                                                  
   EAUG   =  904.640                                                            
   DEXC   =    0.000                                                            
   RMAX   =    1.529    core radius for proj-oper                               
   RAUG   =    1.300    factor for augmentation sphere                          
   RDEP   =    1.514    radius for radial grids                                 
   RDEPT  =    1.100    core radius for aug-charge                              
                                                                                
   Atomic configuration                                                         
    4 entries                                                                   
     n  l   j            E        occ.                                          
     1  0  0.50      -384.7179   2.0000                                         
     2  0  0.50       -18.5828   2.0000                                         
     2  1  0.50        -7.0898   3.0000                                         
     3  2  1.50        -8.1635   0.0000                                         
   Description                                                                  
     l       E           TYP  RCUT    TYP  RCUT                                 
     0    -18.5828120     23  1.300                                             
     0     81.6349560     23  1.300                                             
     1     -7.0897854     23  1.500                                             
     1     81.6349560     23  1.500                                             
     2     -8.1634956      7  1.500                                             
  local pseudopotential read in
  kinetic energy density of atom read in
  atomic valenz-charges read in
  non local Contribution for L=           0  read in
    real space projection operators read in
  non local Contribution for L=           0  read in
    real space projection operators read in
  non local Contribution for L=           1  read in
    real space projection operators read in
  non local Contribution for L=           1  read in
    real space projection operators read in
    PAW grid and wavefunctions read in
 
   number of l-projection  operators is LMAX  =           4
   number of lm-projection operators is LMMAX =           8
 
 POTCAR:    PAW_PBE C_GW 28Sep2005                
   VRHFIN =C: s2p2                                                              
   LEXCH  = PE                                                                  
   EATOM  =   147.1560 eV,   10.8157 Ry                                         
                                                                                
   TITEL  = PAW_PBE C_GW 28Sep2005                                              
   LULTRA =        F    use ultrasoft PP ?                                      
   IUNSCR =        0    unscreen: 0-lin 1-nonlin 2-no                           
   RPACOR =    0.000    partial core radius                                     
   POMASS =   12.011; ZVAL   =    4.000    mass and valenz                      
   RCORE  =    1.500    outmost cutoff radius                                   
   RWIGS  =    1.630; RWIGS  =    0.863    wigner-seitz radius (au A)           
   ENMAX  =  413.992; ENMIN  =  310.494 eV                                      
   ICORE  =        2    local potential                                         
   LCOR   =        T    correct aug charges                                     
   LPAW   =        T    paw PP                                                  
   EAUG   =  644.873                                                            
   DEXC   =    0.000                                                            
   RMAX   =    1.529    core radius for proj-oper                               
   RAUG   =    1.300    factor for augmentation sphere                          
   RDEP   =    1.501    radius for radial grids                                 
   RDEPT  =    1.300    core radius for aug-charge                              
                                                                                
   Atomic configuration                                                         
    4 entries                                                                   
     n  l   j            E        occ.                                          
     1  0  0.50      -273.3789   2.0000                                         
     2  0  0.50       -13.7508   2.0000                                         
     2  1  0.50        -5.2854   2.0000                                         
     3  2  1.50        -5.4423   0.0000                                         
   Description                                                                  
     l       E           TYP  RCUT    TYP  RCUT                                 
     0    -13.7508457     23  1.200                                             
     0     95.2407820     23  1.200                                             
     1     -5.2854382     23  1.500                                             
     1    108.8466080     23  1.500                                             
     2     -5.4423304      7  1.500                                             
  local pseudopotential read in
  kinetic energy density of atom read in
  atomic valenz-charges read in
  non local Contribution for L=           0  read in
    real space projection operators read in
  non local Contribution for L=           0  read in
    real space projection operators read in
  non local Contribution for L=           1  read in
    real space projection operators read in
  non local Contribution for L=           1  read in
    real space projection operators read in
    PAW grid and wavefunctions read in
 
   number of l-projection  operators is LMAX  =           4
   number of lm-projection operators is LMMAX =           8
 
 POTCAR:    PAW_PBE H_GW 21Apr2008                
   VRHFIN =H: ultrasoft test                                                    
   LEXCH  = PE                                                                  
   EATOM  =    12.4884 eV,    0.9179 Ry                                         
                                                                                
   TITEL  = PAW_PBE H_GW 21Apr2008                                              
   LULTRA =        F    use ultrasoft PP ?                                      
   IUNSCR =        0    unscreen: 0-lin 1-nonlin 2-no                           
   RPACOR =    0.000    partial core radius                                     
   POMASS =    1.000; ZVAL   =    1.000    mass and valenz                      
   RCORE  =    1.100    outmost cutoff radius                                   
   RWIGS  =    1.100; RWIGS  =    0.582    wigner-seitz radius (au A)           
   ENMAX  =  300.000; ENMIN  =  250.000 eV                                      
   RCLOC  =    0.701    cutoff for local pot                                    
   LCOR   =        T    correct aug charges                                     
   LPAW   =        T    paw PP                                                  
   EAUG   =  500.000                                                            
   RMAX   =    1.123    core radius for proj-oper                               
   RAUG   =    1.200    factor for augmentation sphere                          
   RDEP   =    1.112    radius for radial grids                                 
   RDEPT  =    1.100    core radius for aug-charge                              
                                                                                
   Atomic configuration                                                         
    3 entries                                                                   
     n  l   j            E        occ.                                          
     1  0  0.50        -6.4927   1.0000                                         
     2  1  0.50        -3.4015   0.0000                                         
     3  2  1.50        13.6058   0.0000                                         
   Description                                                                  
     l       E           TYP  RCUT    TYP  RCUT                                 
     0     -6.4927495     23  0.950                                             
     0      6.8029130     23  0.950                                             
     1     -4.0817478     23  1.100                                             
     1    108.8466080     23  1.100                                             
     2     81.6349560     23  1.100                                             
  local pseudopotential read in
  kinetic energy density of atom read in
  atomic valenz-charges read in
  non local Contribution for L=           0  read in
    real space projection operators read in
  non local Contribution for L=           0  read in
    real space projection operators read in
  non local Contribution for L=           1  read in
    real space projection operators read in
  non local Contribution for L=           1  read in
    real space projection operators read in
  non local Contribution for L=           2  read in
    real space projection operators read in
    PAW grid and wavefunctions read in
 
   number of l-projection  operators is LMAX  =           5
   number of lm-projection operators is LMMAX =          13
 
  PAW_PBE O_GW 28Sep2005                :
 energy of atom  1       EATOM= -432.3788
 kinetic energy error for atom=    0.0005 (will be added to EATOM!!)
  PAW_PBE N_GW 10Apr2007                :
 energy of atom  2       EATOM= -264.5486
 kinetic energy error for atom=    0.0003 (will be added to EATOM!!)
  PAW_PBE C_GW 28Sep2005                :
 energy of atom  3       EATOM= -147.1560
 kinetic energy error for atom=    0.0002 (will be added to EATOM!!)
  PAW_PBE H_GW 21Apr2008                :
 energy of atom  4       EATOM=  -12.4884
 kinetic energy error for atom=    0.0000 (will be added to EATOM!!)
 
 
 POSCAR: O N C H                                 
  positions in cartesian coordinates
  No initial velocities read in
 exchange correlation table for  LEXCH =        8
   RHO(1)=    0.500       N(1)  =     2000
   RHO(2)=  100.500       N(2)  =     4000
 


--------------------------------------------------------------------------------------------------------


 ion  position               nearest neighbor table
   1  0.974  0.925  0.982-   7 1.22
   2  0.955  0.028  0.061-   8 1.22
   3  0.943  0.035  0.997-  12 1.01   5 1.37   8 1.38
   4  0.961  0.976  0.021-  11 1.01   8 1.38   7 1.40
   5  0.942  0.020  0.961-   9 1.08   6 1.35   3 1.37
   6  0.951  0.983  0.954-  10 1.08   5 1.35   7 1.45
   7  0.963  0.958  0.985-   1 1.22   4 1.40   6 1.45
   8  0.953  0.014  0.029-   2 1.22   4 1.38   3 1.38
   9  0.934  0.040  0.939-   5 1.08
  10  0.951  0.972  0.925-   6 1.08
  11  0.970  0.960  0.044-   4 1.01
  12  0.939  0.063  0.002-   3 1.01
 
  LATTYP: Found a simple cubic cell.
 ALAT       =    35.0000000000
  
  Lattice vectors:
  
 A1 = (  35.0000000000,   0.0000000000,   0.0000000000)
 A2 = (   0.0000000000,  35.0000000000,   0.0000000000)
 A3 = (   0.0000000000,   0.0000000000,  35.0000000000)


Analysis of symmetry for initial positions (statically):
=====================================================================
 Subroutine PRICEL returns:
 Original cell was already a primitive cell.
 

 Routine SETGRP: Setting up the symmetry group for a 
 simple cubic supercell.


 Subroutine GETGRP returns: Found  1 space group operations
 (whereof  1 operations were pure point group operations)
 out of a pool of 48 trial point group operations.


The static configuration has the point symmetry C_1 .


Analysis of symmetry for dynamics (positions and initial velocities):
=====================================================================
 Subroutine PRICEL returns:
 Original cell was already a primitive cell.
 

 Routine SETGRP: Setting up the symmetry group for a 
 simple cubic supercell.


 Subroutine GETGRP returns: Found  1 space group operations
 (whereof  1 operations were pure point group operations)
 out of a pool of 48 trial point group operations.


The dynamic configuration has the point symmetry C_1 .
 
 
 KPOINTS: automatic mesh                          

Automatic generation of k-mesh.
Space group operators:
 irot       det(A)        alpha          n_x          n_y          n_z        tau_x        tau_y        tau_z
    1     1.000000     0.000000     1.000000     0.000000     0.000000     0.000000     0.000000     0.000000
 
 Subroutine IBZKPT returns following result:
 ===========================================
 
 Found      1 irreducible k-points:
 
 Following reciprocal coordinates:
            Coordinates               Weight
  0.000000  0.000000  0.000000      1.000000
 
 Following cartesian coordinates:
            Coordinates               Weight
  0.000000  0.000000  0.000000      1.000000
 


--------------------------------------------------------------------------------------------------------




 Dimension of arrays:
   k-points           NKPTS =      1   k-points in BZ     NKDIM =      1   number of bands    NBANDS=     28
   number of dos      NEDOS =    301   number of ions     NIONS =     12
   non local maximal  LDIM  =      5   non local SUM 2l+1 LMDIM =     13
   total plane-waves  NPLWV = ******
   max r-space proj   IRMAX =      1   max aug-charges    IRDMAX=  33660
   dimension x,y,z NGX =   480 NGY =  480 NGZ =  480
   dimension x,y,z NGXF=   960 NGYF=  960 NGZF=  960
   support grid    NGXF=   960 NGYF=  960 NGZF=  960
   ions per type =               2   2   4   4
 NGX,Y,Z   is equivalent  to a cutoff of  22.80, 22.80, 22.80 a.u.
 NGXF,Y,Z  is equivalent  to a cutoff of  45.60, 45.60, 45.60 a.u.


 I would recommend the setting:
   dimension x,y,z NGX =   457 NGY =  457 NGZ =  457
 SYSTEM =  C                                       
 POSCAR =  O N C H                                 

 Startparameter for this run:
   NWRITE =      2    write-flag & timer
   PREC   = acc       normal or accurate (medium, high low for compatibility)
   ISTART =      0    job   : 0-new  1-cont  2-samecut
   ICHARG =      2    charge: 1-file 2-atom 10-const
   ISPIN  =      1    spin polarized calculation?
   LNONCOLLINEAR =      F non collinear calculations
   LSORBIT =      F    spin-orbit coupling
   INIWAV =      1    electr: 0-lowe 1-rand  2-diag
   LASPH  =      T    aspherical Exc in radial PAW
   METAGGA=      F    non-selfconsistent MetaGGA calc.

 Electronic Relaxation 1
   ENCUT  = 1600.0 eV 117.60 Ry   10.84 a.u. 114.15114.15114.15*2*pi/ulx,y,z
   ENINI  = 1600.0     initial cutoff
   ENAUG  =  904.6 eV  augmentation charge cutoff
   NELM   =     60;   NELMIN=  2; NELMDL= -5     # of ELM steps 
   EDIFF  = 0.1E-06   stopping-criterion for ELM
   LREAL  =      F    real-space projection
   NLSPLINE    = F    spline interpolate recip. space projectors
   LCOMPAT=      F    compatible to vasp.4.4
   GGA_COMPAT  = T    GGA compatible to vasp.4.4-vasp.4.6
   LMAXPAW     = -100 max onsite density
   LMAXMIX     =    2 max onsite mixed and CHGCAR
   VOSKOWN=      0    Vosko Wilk Nusair interpolation
   ROPT   =    0.00000   0.00000   0.00000   0.00000
 Ionic relaxation
   EDIFFG = 0.1E-05   stopping-criterion for IOM
   NSW    =      0    number of steps for IOM
   NBLOCK =      1;   KBLOCK =      1    inner block; outer block 
   IBRION =     -1    ionic relax: 0-MD 1-quasi-New 2-CG
   NFREE  =      0    steps in history (QN), initial steepest desc. (CG)
   ISIF   =      2    stress and relaxation
   IWAVPR =     10    prediction:  0-non 1-charg 2-wave 3-comb
   ISYM   =      2    0-nonsym 1-usesym 2-fastsym
   LCORR  =      T    Harris-Foulkes like correction to forces

   POTIM  = 0.5000    time-step for ionic-motion
   TEIN   =    0.0    initial temperature
   TEBEG  =    0.0;   TEEND  =   0.0 temperature during run
   SMASS  =  -3.00    Nose mass-parameter (am)
   estimated Nose-frequenzy (Omega)   =  0.10E-29 period in steps =****** mass=  -0.280E-25a.u.
   SCALEE = 1.0000    scale energy and forces
   NPACO  =    256;   APACO  = 16.0  distance and # of slots for P.C.
   PSTRESS=    0.0 pullay stress

  Mass of Ions in am
   POMASS =  16.00 14.00 12.01  1.00
  Ionic Valenz
   ZVAL   =   6.00  5.00  4.00  1.00
  Atomic Wigner-Seitz radii
   RWIGS  =  -1.00 -1.00 -1.00 -1.00
  virtual crystal weights 
   VCA    =   1.00  1.00  1.00  1.00
   NELECT =      42.0000    total number of electrons
   NUPDOWN=      -1.0000    fix difference up-down

 DOS related values:
   EMIN   =  10.00;   EMAX   =-10.00  energy-range for DOS
   EFERMI =   0.00
   ISMEAR =     0;   SIGMA  =   0.01  broadening in eV -4-tet -1-fermi 0-gaus

 Electronic relaxation 2 (details)
   IALGO  =     38    algorithm
   LDIAG  =      T    sub-space diagonalisation (order eigenvalues)
   LSUBROT=      F    optimize rotation matrix (better conditioning)
   TURBO    =      0    0=normal 1=particle mesh
   IRESTART =      0    0=no restart 2=restart with 2 vectors
   NREBOOT  =      0    no. of reboots
   NMIN     =      0    reboot dimension
   EREF     =   0.00    reference energy to select bands
   IMIX   =      4    mixing-type and parameters
     AMIX     =   0.40;   BMIX     =  1.00
     AMIX_MAG =   1.60;   BMIX_MAG =  1.00
     AMIN     =   0.10
     WC   =   100.;   INIMIX=   1;  MIXPRE=   1;  MAXMIX= -45

 Intra band minimization:
   WEIMIN = 0.0000     energy-eigenvalue tresh-hold
   EBREAK =  0.89E-09  absolut break condition
   DEPER  =   0.30     relativ break condition  

   TIME   =   0.40     timestep for ELM

  volume/ion in A,a.u.               =    3572.92     24111.23
  Fermi-wavevector in a.u.,A,eV,Ry     =   0.162589  0.307248  0.359670  0.026435
  Thomas-Fermi vector in A             =   0.859803
 
 Write flags
   LWAVE  =      T    write WAVECAR
   LCHARG =      T    write CHGCAR
   LVTOT  =      F    write LOCPOT, total local potential
   LVHAR  =      F    write LOCPOT, Hartree potential only
   LELF   =      F    write electronic localiz. function (ELF)
   LORBIT =      0    0 simple, 1 ext, 2 COOP (PROOUT)


 Dipole corrections
   LMONO  =      F    monopole corrections only (constant potential shift)
   LDIPOL =      F    correct potential (dipole corrections)
   IDIPOL =      0    1-x, 2-y, 3-z, 4-all directions 
   EPSILON=  1.0000000 bulk dielectric constant

 Exchange correlation treatment:
   GGA     =    --    GGA type
   LEXCH   =     8    internal setting for exchange type
   VOSKOWN=      0    Vosko Wilk Nusair interpolation
   LHFCALC =     F    Hartree Fock is set to
   LHFONE  =     F    Hartree Fock one center treatment
   AEXX    =    0.0000 exact exchange contribution

 Linear response parameters
   LEPSILON=     F    determine dielectric tensor
   LRPA    =     F    only Hartree local field effects (RPA)
   LNABLA  =     F    use nabla operator in PAW spheres
   LVEL    =     F    velocity operator in full k-point grid
   LINTERFAST=   F  fast interpolation
   KINTER  =     0    interpolate to denser k-point grid
   CSHIFT  =0.1000    complex shift for real part using Kramers Kronig
   OMEGAMAX=  -1.0    maximum frequency
   DEG_THRESHOLD= 0.2000000E-02 threshold for treating states as degnerate
   RTIME   =    0.100 relaxation time in fs

 Orbital magnetization related:
   ORBITALMAG=     F  switch on orbital magnetization
   LCHIMAG   =     F  perturbation theory with respect to B field
   DQ        =  0.001000  dq finite difference perturbation B field



--------------------------------------------------------------------------------------------------------


 Static calculation
 charge density and potential will be updated during run
 non-spin polarized calculation
 Variant of blocked Davidson
 Davidson routine will perform the subspace rotation
 perform sub-space diagonalisation
    after iterative eigenvector-optimisation
 modified Broyden-mixing scheme, WC =      100.0
 initial mixing is a Kerker type mixing with AMIX =  0.4000 and BMIX =      1.0000
 Hartree-type preconditioning will be used
 using additional bands            7
 reciprocal scheme for non local part
 calculate Harris-corrections to forces 
   (improved forces if not selfconsistent)
 use gradient corrections 
 use of overlap-Matrix (Vanderbilt PP)
 Gauss-broadening in eV      SIGMA  =   0.01


--------------------------------------------------------------------------------------------------------


  energy-cutoff  :     1600.00
  volume of cell :    42875.00
      direct lattice vectors                 reciprocal lattice vectors
    35.000000000  0.000000000  0.000000000     0.028571429  0.000000000  0.000000000
     0.000000000 35.000000000  0.000000000     0.000000000  0.028571429  0.000000000
     0.000000000  0.000000000 35.000000000     0.000000000  0.000000000  0.028571429

  length of vectors
    35.000000000 35.000000000 35.000000000     0.028571429  0.028571429  0.028571429


 
 k-points in units of 2pi/SCALE and weight: automatic mesh                          
   0.00000000  0.00000000  0.00000000       1.000
 
 k-points in reciprocal lattice and weights: automatic mesh                          
   0.00000000  0.00000000  0.00000000       1.000
 
 position of ions in fractional coordinates (direct lattice) 
   0.97369734  0.92539754  0.98211297
   0.95539689  0.02776589  0.06085160
   0.94253260  0.03466306  0.99719809
   0.96066034  0.97600729  0.02098960
   0.94212263  0.01991943  0.96101706
   0.95101363  0.98308671  0.95392889
   0.96260114  0.95835617  0.98512603
   0.95297169  0.01386317  0.02910649
   0.93435654  0.03974454  0.93869583
   0.95064894  0.97169009  0.92537129
   0.96994846  0.96039363  0.04352489
   0.93915820  0.06290014  0.00162323
 
 position of ions in cartesian coordinates  (Angst):
  34.07940700 32.38891400 34.37395400
  33.43889100  0.97180600  2.12980600
  32.98864100  1.21320700 34.90193300
  33.62311200 34.16025500  0.73463600
  32.97429200  0.69718000 33.63559700
  33.28547700 34.40803500 33.38751100
  33.69104000 33.54246600 34.47941100
  33.35400900  0.48521100  1.01872700
  32.70247900  1.39105900 32.85435400
  33.27271300 34.00915300 32.38799500
  33.94819600 33.61377700  1.52337100
  32.87053700  2.20150500  0.05681300
 


--------------------------------------------------------------------------------------------------------


 use parallel FFT for wavefunctions z direction half grid
 k-point  1 :   0.0000 0.0000 0.0000  plane waves: 3115599

 maximum and minimum number of plane-waves per node :    389462   389421

 maximum number of plane-waves:   3115599
 maximum index in each direction: 
   IXMAX=  114   IYMAX=  114   IZMAX=  114
   IXMIN= -114   IYMIN= -114   IZMIN=    0

 NGX is ok and might be reduce to 458
 NGY is ok and might be reduce to 458
 NGZ is ok and might be reduce to 458

 parallel 3D FFT for wavefunctions:
    minimum data exchange during FFTs selected (reduces bandwidth)
 parallel 3D FFT for charge:
    minimum data exchange during FFTs selected (reduces bandwidth)


 total amount of memory used by VASP on root node  4072922. kBytes
========================================================================

   base      :      30000. kBytes
   nonl-proj :     236769. kBytes
   fftplans  :    1215227. kBytes
   grid      :    2547302. kBytes
   one-center:          8. kBytes
   wavefun   :      43616. kBytes
 
     INWAV:  cpu time    0.0001: real time    0.0002
 Broyden mixing: mesh for mixing (old mesh)
   NGX =229   NGY =229   NGZ =229
  (NGX  =960   NGY  =960   NGZ  =960)
  gives a total of ****** points

 initial charge density was supplied:
 charge density of overlapping atoms calculated
 number of electron      42.0000000 magnetization 
 keeping initial charge density in first step


--------------------------------------------------------------------------------------------------------


 Maximum index for augmentation-charges         1108 (set IRDMAX)


--------------------------------------------------------------------------------------------------------


 First call to EWALD:  gamma=   0.051
 Maximum number of real-space cells 3x 3x 3
 Maximum number of reciprocal cells 3x 3x 3

 FEWALD executed in parallel
    FEWALD:  cpu time    0.0026: real time    0.0026


----------------------------------------- Iteration    1(   1)  ---------------------------------------


    POTLOK:  cpu time   14.7316: real time   14.7774
    SETDIJ:  cpu time    0.1346: real time    0.1352
     EDDAV:  cpu time   14.7626: real time   14.8120
       DOS:  cpu time    0.0003: real time    0.0003
    --------------------------------------------
      LOOP:  cpu time   29.6312: real time   29.7291

 eigenvalue-minimisations  :    72
 total energy-change (2. order) : 0.4500595E+03  (-0.9185780E+03)
 number of electron      42.0000000 magnetization 
 augmentation part       42.0000000 magnetization 

 Free energy of the ion-electron system (eV)
  ---------------------------------------------------
  alpha Z        PSCENC =         0.17739900
  Ewald energy   TEWEN  =      4015.67209291
  -Hartree energ DENC   =     -5523.82024282
  -exchange      EXHF   =         0.00000000
  -V(xc)+E(xc)   XCENC  =       159.79840605
  PAW double counting   =      1543.07547066    -1553.88115226
  entropy T*S    EENTRO =        -0.00240920
  eigenvalues    EBANDS =      -223.38993707
  atomic energy  EATOM  =      2032.42985693
  Solvation  Ediel_sol  =         0.00000000
  ---------------------------------------------------
  free energy    TOTEN  =       450.05948420 eV

  energy without entropy =      450.06189340  energy(sigma->0) =      450.06068880


--------------------------------------------------------------------------------------------------------




----------------------------------------- Iteration    1(   2)  ---------------------------------------


     EDDAV:  cpu time   17.1533: real time   17.2105
       DOS:  cpu time    0.0001: real time    0.0001
    --------------------------------------------
      LOOP:  cpu time   17.1559: real time   17.2162

 eigenvalue-minimisations  :    88
 total energy-change (2. order) :-0.1742398E+03  (-0.1719168E+03)
 number of electron      42.0000000 magnetization 
 augmentation part       42.0000000 magnetization 

 Free energy of the ion-electron system (eV)
  ---------------------------------------------------
  alpha Z        PSCENC =         0.17739900
  Ewald energy   TEWEN  =      4015.67209291
  -Hartree energ DENC   =     -5523.82024282
  -exchange      EXHF   =         0.00000000
  -V(xc)+E(xc)   XCENC  =       159.79840605
  PAW double counting   =      1543.07547066    -1553.88115226
  entropy T*S    EENTRO =        -0.00000000
  eigenvalues    EBANDS =      -397.63217321
  atomic energy  EATOM  =      2032.42985693
  Solvation  Ediel_sol  =         0.00000000
  ---------------------------------------------------
  free energy    TOTEN  =       275.81965725 eV

  energy without entropy =      275.81965725  energy(sigma->0) =      275.81965725


--------------------------------------------------------------------------------------------------------




----------------------------------------- Iteration    1(   3)  ---------------------------------------


     EDDAV:  cpu time   17.1470: real time   17.2043
       DOS:  cpu time    0.0001: real time    0.0001
    --------------------------------------------
      LOOP:  cpu time   17.1492: real time   17.2090

 eigenvalue-minimisations  :    88
 total energy-change (2. order) :-0.2062673E+03  (-0.2035720E+03)
 number of electron      42.0000000 magnetization 
 augmentation part       42.0000000 magnetization 

 Free energy of the ion-electron system (eV)
  ---------------------------------------------------
  alpha Z        PSCENC =         0.17739900
  Ewald energy   TEWEN  =      4015.67209291
  -Hartree energ DENC   =     -5523.82024282
  -exchange      EXHF   =         0.00000000
  -V(xc)+E(xc)   XCENC  =       159.79840605
  PAW double counting   =      1543.07547066    -1553.88115226
  entropy T*S    EENTRO =        -0.00000000
  eigenvalues    EBANDS =      -603.89947271
  atomic energy  EATOM  =      2032.42985693
  Solvation  Ediel_sol  =         0.00000000
  ---------------------------------------------------
  free energy    TOTEN  =        69.55235775 eV

  energy without entropy =       69.55235775  energy(sigma->0) =       69.55235775


--------------------------------------------------------------------------------------------------------




----------------------------------------- Iteration    1(   4)  ---------------------------------------


     EDDAV:  cpu time   17.1536: real time   17.2108
       DOS:  cpu time    0.0001: real time    0.0001
    --------------------------------------------
      LOOP:  cpu time   17.1557: real time   17.2157

 eigenvalue-minimisations  :    88
 total energy-change (2. order) :-0.1305096E+03  (-0.1301119E+03)
 number of electron      42.0000000 magnetization 
 augmentation part       42.0000000 magnetization 

 Free energy of the ion-electron system (eV)
  ---------------------------------------------------
  alpha Z        PSCENC =         0.17739900
  Ewald energy   TEWEN  =      4015.67209291
  -Hartree energ DENC   =     -5523.82024282
  -exchange      EXHF   =         0.00000000
  -V(xc)+E(xc)   XCENC  =       159.79840605
  PAW double counting   =      1543.07547066    -1553.88115226
  entropy T*S    EENTRO =        -0.00000000
  eigenvalues    EBANDS =      -734.40910048
  atomic energy  EATOM  =      2032.42985693
  Solvation  Ediel_sol  =         0.00000000
  ---------------------------------------------------
  free energy    TOTEN  =       -60.95727002 eV

  energy without entropy =      -60.95727002  energy(sigma->0) =      -60.95727002


--------------------------------------------------------------------------------------------------------




----------------------------------------- Iteration    1(   5)  ---------------------------------------


     EDDAV:  cpu time   14.7240: real time   14.7738
       DOS:  cpu time    0.0001: real time    0.0001
    CHARGE:  cpu time    2.8583: real time    2.8693
    MIXING:  cpu time    0.3529: real time    0.3538
    --------------------------------------------
      LOOP:  cpu time   17.9373: real time   18.0016

 eigenvalue-minimisations  :    72
 total energy-change (2. order) :-0.2732069E+02  (-0.2731646E+02)
 number of electron      42.0000001 magnetization 
 augmentation part        2.1671443 magnetization 

 Broyden mixing:
  rms(total) = 0.14491E+01    rms(broyden)= 0.14491E+01
  rms(prec ) = 0.14929E+01
  weight for this iteration     100.00

 Free energy of the ion-electron system (eV)
  ---------------------------------------------------
  alpha Z        PSCENC =         0.17739900
  Ewald energy   TEWEN  =      4015.67209291
  -Hartree energ DENC   =     -5523.82024282
  -exchange      EXHF   =         0.00000000
  -V(xc)+E(xc)   XCENC  =       159.79840605
  PAW double counting   =      1543.07547066    -1553.88115226
  entropy T*S    EENTRO =        -0.00000000
  eigenvalues    EBANDS =      -761.72979071
  atomic energy  EATOM  =      2032.42985693
  Solvation  Ediel_sol  =         0.00000000
  ---------------------------------------------------
  free energy    TOTEN  =       -88.27796025 eV

  energy without entropy =      -88.27796025  energy(sigma->0) =      -88.27796025


--------------------------------------------------------------------------------------------------------




----------------------------------------- Iteration    1(   6)  ---------------------------------------


    POTLOK:  cpu time   14.4237: real time   14.4633
    SETDIJ:  cpu time    0.1358: real time    0.1361
     EDDAV:  cpu time   18.3764: real time   18.4369
       DOS:  cpu time    0.0001: real time    0.0001
    CHARGE:  cpu time    2.8217: real time    2.8323
    MIXING:  cpu time    0.3678: real time    0.3687
    --------------------------------------------
      LOOP:  cpu time   36.1276: real time   36.2419

 eigenvalue-minimisations  :    96
 total energy-change (2. order) : 0.5401877E+01  (-0.2170954E+01)
 number of electron      42.0000001 magnetization 
 augmentation part        1.8488253 magnetization 

 Broyden mixing:
  rms(total) = 0.66509E+00    rms(broyden)= 0.66509E+00
  rms(prec ) = 0.68287E+00
  weight for this iteration     100.00

 eigenvalues of (default mixing * dielectric matrix)
  average eigenvalue GAMMA=   1.2555
  1.2555

 Free energy of the ion-electron system (eV)
  ---------------------------------------------------
  alpha Z        PSCENC =         0.17739900
  Ewald energy   TEWEN  =      4015.67209291
  -Hartree energ DENC   =     -5599.07231413
  -exchange      EXHF   =         0.00000000
  -V(xc)+E(xc)   XCENC  =       163.83212464
  PAW double counting   =      1928.28070283    -1939.99094483
  entropy T*S    EENTRO =        -0.00000000
  eigenvalues    EBANDS =      -684.20500065
  atomic energy  EATOM  =      2032.42985693
  Solvation  Ediel_sol  =         0.00000000
  ---------------------------------------------------
  free energy    TOTEN  =       -82.87608331 eV

  energy without entropy =      -82.87608331  energy(sigma->0) =      -82.87608331


--------------------------------------------------------------------------------------------------------




----------------------------------------- Iteration    1(   7)  ---------------------------------------


    POTLOK:  cpu time   14.4019: real time   14.4415
    SETDIJ:  cpu time    0.1361: real time    0.1364
     EDDAV:  cpu time   16.5343: real time   16.5898
       DOS:  cpu time    0.0001: real time    0.0001
    CHARGE:  cpu time    2.8115: real time    2.8220
    MIXING:  cpu time    0.3795: real time    0.3807
    --------------------------------------------
      LOOP:  cpu time   34.2654: real time   34.3753

 eigenvalue-minimisations  :    84
 total energy-change (2. order) : 0.1027132E+01  (-0.2813090E+00)
 number of electron      42.0000000 magnetization 
 augmentation part        1.8122315 magnetization 

 Broyden mixing:
  rms(total) = 0.31590E+00    rms(broyden)= 0.31590E+00
  rms(prec ) = 0.32401E+00
  weight for this iteration     100.00

 eigenvalues of (default mixing * dielectric matrix)
  average eigenvalue GAMMA=   1.4997
  1.1670  1.8325

 Free energy of the ion-electron system (eV)
  ---------------------------------------------------
  alpha Z        PSCENC =         0.17739900
  Ewald energy   TEWEN  =      4015.67209291
  -Hartree energ DENC   =     -5640.59641486
  -exchange      EXHF   =         0.00000000
  -V(xc)+E(xc)   XCENC  =       165.75888636
  PAW double counting   =      2182.97556361    -2194.95843175
  entropy T*S    EENTRO =        -0.00000000
  eigenvalues    EBANDS =      -643.30790322
  atomic energy  EATOM  =      2032.42985693
  Solvation  Ediel_sol  =         0.00000000
  ---------------------------------------------------
  free energy    TOTEN  =       -81.84895101 eV

  energy without entropy =      -81.84895101  energy(sigma->0) =      -81.84895101


--------------------------------------------------------------------------------------------------------




----------------------------------------- Iteration    1(   8)  ---------------------------------------


    POTLOK:  cpu time   14.4182: real time   14.4574
    SETDIJ:  cpu time    0.1367: real time    0.1371
     EDDAV:  cpu time   21.5885: real time   21.6572
       DOS:  cpu time    0.0001: real time    0.0001
    CHARGE:  cpu time    2.8424: real time    2.8531
    MIXING:  cpu time    0.4165: real time    0.4175
    --------------------------------------------
      LOOP:  cpu time   39.4045: real time   39.5275

 eigenvalue-minimisations  :    88
 total energy-change (2. order) : 0.2536622E+00  (-0.4550554E-01)
 number of electron      42.0000000 magnetization 
 augmentation part        1.7974413 magnetization 

 Broyden mixing:
  rms(total) = 0.10052E+00    rms(broyden)= 0.10052E+00
  rms(prec ) = 0.10588E+00
  weight for this iteration     100.00

 eigenvalues of (default mixing * dielectric matrix)
  average eigenvalue GAMMA=   1.5405
  2.2477  1.0794  1.2942

 Free energy of the ion-electron system (eV)
  ---------------------------------------------------
  alpha Z        PSCENC =         0.17739900
  Ewald energy   TEWEN  =      4015.67209291
  -Hartree energ DENC   =     -5663.16877475
  -exchange      EXHF   =         0.00000000
  -V(xc)+E(xc)   XCENC  =       166.80936182
  PAW double counting   =      2334.22569497    -2346.47850902
  entropy T*S    EENTRO =        -0.00000000
  eigenvalues    EBANDS =      -621.26241062
  atomic energy  EATOM  =      2032.42985693
  Solvation  Ediel_sol  =         0.00000000
  ---------------------------------------------------
  free energy    TOTEN  =       -81.59528877 eV

  energy without entropy =      -81.59528877  energy(sigma->0) =      -81.59528877


--------------------------------------------------------------------------------------------------------




----------------------------------------- Iteration    1(   9)  ---------------------------------------


    POTLOK:  cpu time   15.4396: real time   15.4820
    SETDIJ:  cpu time    0.2523: real time    0.2529
     EDDAV:  cpu time   21.2527: real time   21.3201
       DOS:  cpu time    0.0001: real time    0.0001
    CHARGE:  cpu time    2.7775: real time    2.7882
    MIXING:  cpu time    0.4680: real time    0.4692
    --------------------------------------------
      LOOP:  cpu time   40.1923: real time   40.3171

 eigenvalue-minimisations  :    96
 total energy-change (2. order) : 0.4009570E-01  (-0.6931943E-02)
 number of electron      42.0000000 magnetization 
 augmentation part        1.7882863 magnetization 

 Broyden mixing:
  rms(total) = 0.40822E-01    rms(broyden)= 0.40822E-01
  rms(prec ) = 0.45455E-01
  weight for this iteration     100.00

 eigenvalues of (default mixing * dielectric matrix)
  average eigenvalue GAMMA=   1.5023
  2.3550  1.0130  1.0130  1.6282

 Free energy of the ion-electron system (eV)
  ---------------------------------------------------
  alpha Z        PSCENC =         0.17739900
  Ewald energy   TEWEN  =      4015.67209291
  -Hartree energ DENC   =     -5671.12024190
  -exchange      EXHF   =         0.00000000
  -V(xc)+E(xc)   XCENC  =       167.13594664
  PAW double counting   =      2372.62462408    -2384.93422623
  entropy T*S    EENTRO =        -0.00000000
  eigenvalues    EBANDS =      -613.54064448
  atomic energy  EATOM  =      2032.42985693
  Solvation  Ediel_sol  =         0.00000000
  ---------------------------------------------------
  free energy    TOTEN  =       -81.55519306 eV

  energy without entropy =      -81.55519306  energy(sigma->0) =      -81.55519306


--------------------------------------------------------------------------------------------------------




----------------------------------------- Iteration    1(  10)  ---------------------------------------


    POTLOK:  cpu time   15.2662: real time   15.3045
    SETDIJ:  cpu time    0.2554: real time    0.2560
     EDDAV:  cpu time   19.8704: real time   19.9336
       DOS:  cpu time    0.0001: real time    0.0001
    CHARGE:  cpu time    2.7756: real time    2.7865
    MIXING:  cpu time    0.4773: real time    0.4785
    --------------------------------------------
      LOOP:  cpu time   38.6472: real time   38.7640

 eigenvalue-minimisations  :    88
 total energy-change (2. order) : 0.2598743E-02  (-0.1320265E-02)
 number of electron      42.0000000 magnetization 
 augmentation part        1.7950695 magnetization 

 Broyden mixing:
  rms(total) = 0.17201E-01    rms(broyden)= 0.17201E-01
  rms(prec ) = 0.22831E-01
  weight for this iteration     100.00

 eigenvalues of (default mixing * dielectric matrix)
  average eigenvalue GAMMA=   1.5150
  2.4055  2.0044  0.9651  0.9651  1.2350

 Free energy of the ion-electron system (eV)
  ---------------------------------------------------
  alpha Z        PSCENC =         0.17739900
  Ewald energy   TEWEN  =      4015.67209291
  -Hartree energ DENC   =     -5673.71426233
  -exchange      EXHF   =         0.00000000
  -V(xc)+E(xc)   XCENC  =       167.16567192
  PAW double counting   =      2372.62590618    -2384.90934897
  entropy T*S    EENTRO =        -0.00000000
  eigenvalues    EBANDS =      -610.99990997
  atomic energy  EATOM  =      2032.42985693
  Solvation  Ediel_sol  =         0.00000000
  ---------------------------------------------------
  free energy    TOTEN  =       -81.55259432 eV

  energy without entropy =      -81.55259432  energy(sigma->0) =      -81.55259432


--------------------------------------------------------------------------------------------------------




----------------------------------------- Iteration    1(  11)  ---------------------------------------


    POTLOK:  cpu time   15.2705: real time   15.3124
    SETDIJ:  cpu time    0.2506: real time    0.2512
     EDDAV:  cpu time   18.3923: real time   18.4510
       DOS:  cpu time    0.0001: real time    0.0001
    CHARGE:  cpu time    2.7743: real time    2.7852
    MIXING:  cpu time    0.4944: real time    0.4959
    --------------------------------------------
      LOOP:  cpu time   37.1843: real time   37.3003

 eigenvalue-minimisations  :    80
 total energy-change (2. order) :-0.2624254E-02  (-0.4602195E-03)
 number of electron      42.0000000 magnetization 
 augmentation part        1.7928239 magnetization 

 Broyden mixing:
  rms(total) = 0.10811E-01    rms(broyden)= 0.10811E-01
  rms(prec ) = 0.15380E-01
  weight for this iteration     100.00

 eigenvalues of (default mixing * dielectric matrix)
  average eigenvalue GAMMA=   1.5339
  2.4270  2.4270  1.2181  1.2181  0.9566  0.9566

 Free energy of the ion-electron system (eV)
  ---------------------------------------------------
  alpha Z        PSCENC =         0.17739900
  Ewald energy   TEWEN  =      4015.67209291
  -Hartree energ DENC   =     -5676.64938612
  -exchange      EXHF   =         0.00000000
  -V(xc)+E(xc)   XCENC  =       167.21456307
  PAW double counting   =      2370.97236562    -2383.24967579
  entropy T*S    EENTRO =        -0.00000000
  eigenvalues    EBANDS =      -608.12243419
  atomic energy  EATOM  =      2032.42985693
  Solvation  Ediel_sol  =         0.00000000
  ---------------------------------------------------
  free energy    TOTEN  =       -81.55521857 eV

  energy without entropy =      -81.55521857  energy(sigma->0) =      -81.55521857


--------------------------------------------------------------------------------------------------------




----------------------------------------- Iteration    1(  12)  ---------------------------------------


    POTLOK:  cpu time   15.2576: real time   15.2992
    SETDIJ:  cpu time    0.2506: real time    0.2512
     EDDAV:  cpu time   19.7687: real time   19.8339
       DOS:  cpu time    0.0001: real time    0.0001
    CHARGE:  cpu time    2.7733: real time    2.7842
    MIXING:  cpu time    0.5035: real time    0.5047
    --------------------------------------------
      LOOP:  cpu time   38.5560: real time   38.6785

 eigenvalue-minimisations  :    88
 total energy-change (2. order) :-0.6432922E-02  (-0.3255547E-03)
 number of electron      42.0000000 magnetization 
 augmentation part        1.7923639 magnetization 

 Broyden mixing:
  rms(total) = 0.69401E-02    rms(broyden)= 0.69401E-02
  rms(prec ) = 0.10136E-01
  weight for this iteration     100.00

 eigenvalues of (default mixing * dielectric matrix)
  average eigenvalue GAMMA=   1.6872
  3.6459  2.4349  1.6575  1.0853  1.0853  0.9509  0.9509

 Free energy of the ion-electron system (eV)
  ---------------------------------------------------
  alpha Z        PSCENC =         0.17739900
  Ewald energy   TEWEN  =      4015.67209291
  -Hartree energ DENC   =     -5679.16618217
  -exchange      EXHF   =         0.00000000
  -V(xc)+E(xc)   XCENC  =       167.23667134
  PAW double counting   =      2368.01852814    -2380.29072383
  entropy T*S    EENTRO =        -0.00000000
  eigenvalues    EBANDS =      -605.63929381
  atomic energy  EATOM  =      2032.42985693
  Solvation  Ediel_sol  =         0.00000000
  ---------------------------------------------------
  free energy    TOTEN  =       -81.56165150 eV

  energy without entropy =      -81.56165150  energy(sigma->0) =      -81.56165150


--------------------------------------------------------------------------------------------------------




----------------------------------------- Iteration    1(  13)  ---------------------------------------


    POTLOK:  cpu time   15.2685: real time   15.3104
    SETDIJ:  cpu time    0.2494: real time    0.2500
     EDDAV:  cpu time   16.3125: real time   16.3666
       DOS:  cpu time    0.0001: real time    0.0001
    CHARGE:  cpu time    2.7886: real time    2.7990
    MIXING:  cpu time    0.5205: real time    0.5218
    --------------------------------------------
      LOOP:  cpu time   35.1416: real time   35.2525

 eigenvalue-minimisations  :    68
 total energy-change (2. order) :-0.6886737E-02  (-0.2894354E-03)
 number of electron      42.0000000 magnetization 
 augmentation part        1.7922276 magnetization 

 Broyden mixing:
  rms(total) = 0.39311E-02    rms(broyden)= 0.39311E-02
  rms(prec ) = 0.57152E-02
  weight for this iteration     100.00

 eigenvalues of (default mixing * dielectric matrix)
  average eigenvalue GAMMA=   1.8279
  4.5804  2.4489  1.9749  1.3431  1.3431  1.0387  0.9470  0.9470

 Free energy of the ion-electron system (eV)
  ---------------------------------------------------
  alpha Z        PSCENC =         0.17739900
  Ewald energy   TEWEN  =      4015.67209291
  -Hartree energ DENC   =     -5681.89793486
  -exchange      EXHF   =         0.00000000
  -V(xc)+E(xc)   XCENC  =       167.26671199
  PAW double counting   =      2366.84598985    -2379.11370144
  entropy T*S    EENTRO =        -0.00000000
  eigenvalues    EBANDS =      -602.94895261
  atomic energy  EATOM  =      2032.42985693
  Solvation  Ediel_sol  =         0.00000000
  ---------------------------------------------------
  free energy    TOTEN  =       -81.56853823 eV

  energy without entropy =      -81.56853823  energy(sigma->0) =      -81.56853823


--------------------------------------------------------------------------------------------------------




----------------------------------------- Iteration    1(  14)  ---------------------------------------


    POTLOK:  cpu time   15.2571: real time   15.2990
    SETDIJ:  cpu time    0.2496: real time    0.2502
     EDDAV:  cpu time   17.0058: real time   17.0613
       DOS:  cpu time    0.0001: real time    0.0001
    CHARGE:  cpu time    2.7812: real time    2.7918
    MIXING:  cpu time    0.5324: real time    0.5337
    --------------------------------------------
      LOOP:  cpu time   35.8282: real time   35.9410

 eigenvalue-minimisations  :    72
 total energy-change (2. order) :-0.7395985E-02  (-0.1457215E-03)
 number of electron      42.0000000 magnetization 
 augmentation part        1.7914188 magnetization 

 Broyden mixing:
  rms(total) = 0.27352E-02    rms(broyden)= 0.27352E-02
  rms(prec ) = 0.35920E-02
  weight for this iteration     100.00

 eigenvalues of (default mixing * dielectric matrix)
  average eigenvalue GAMMA=   1.8499
  5.1495  2.6177  2.0931  1.7465  1.0796  1.0796  0.9802  0.9512  0.9512

 Free energy of the ion-electron system (eV)
  ---------------------------------------------------
  alpha Z        PSCENC =         0.17739900
  Ewald energy   TEWEN  =      4015.67209291
  -Hartree energ DENC   =     -5683.22687793
  -exchange      EXHF   =         0.00000000
  -V(xc)+E(xc)   XCENC  =       167.27346081
  PAW double counting   =      2366.77060477    -2379.03728910
  entropy T*S    EENTRO =        -0.00000000
  eigenvalues    EBANDS =      -601.63518161
  atomic energy  EATOM  =      2032.42985693
  Solvation  Ediel_sol  =         0.00000000
  ---------------------------------------------------
  free energy    TOTEN  =       -81.57593422 eV

  energy without entropy =      -81.57593422  energy(sigma->0) =      -81.57593422


--------------------------------------------------------------------------------------------------------




----------------------------------------- Iteration    1(  15)  ---------------------------------------


    POTLOK:  cpu time   15.2615: real time   15.3034
    SETDIJ:  cpu time    0.2489: real time    0.2495
     EDDAV:  cpu time   16.9749: real time   17.0296
       DOS:  cpu time    0.0001: real time    0.0001
    CHARGE:  cpu time    2.7762: real time    2.7872
    MIXING:  cpu time    0.5518: real time    0.5532
    --------------------------------------------
      LOOP:  cpu time   35.8154: real time   35.9277

 eigenvalue-minimisations  :    72
 total energy-change (2. order) :-0.3494174E-02  (-0.2645607E-04)
 number of electron      42.0000000 magnetization 
 augmentation part        1.7918685 magnetization 

 Broyden mixing:
  rms(total) = 0.14415E-02    rms(broyden)= 0.14415E-02
  rms(prec ) = 0.21175E-02
  weight for this iteration     100.00

 eigenvalues of (default mixing * dielectric matrix)
  average eigenvalue GAMMA=   1.9692
  5.9418  3.1752  2.4134  1.6173  1.4757  1.0946  1.0946  0.9840  0.9475  0.9475

 Free energy of the ion-electron system (eV)
  ---------------------------------------------------
  alpha Z        PSCENC =         0.17739900
  Ewald energy   TEWEN  =      4015.67209291
  -Hartree energ DENC   =     -5683.47534910
  -exchange      EXHF   =         0.00000000
  -V(xc)+E(xc)   XCENC  =       167.26384624
  PAW double counting   =      2366.31563161    -2378.58253188
  entropy T*S    EENTRO =        -0.00000000
  eigenvalues    EBANDS =      -601.38037410
  atomic energy  EATOM  =      2032.42985693
  Solvation  Ediel_sol  =         0.00000000
  ---------------------------------------------------
  free energy    TOTEN  =       -81.57942839 eV

  energy without entropy =      -81.57942839  energy(sigma->0) =      -81.57942839


--------------------------------------------------------------------------------------------------------




----------------------------------------- Iteration    1(  16)  ---------------------------------------


    POTLOK:  cpu time   15.2707: real time   15.3127
    SETDIJ:  cpu time    0.2510: real time    0.2516
     EDDAV:  cpu time   15.5923: real time   15.6422
       DOS:  cpu time    0.0001: real time    0.0001
    CHARGE:  cpu time    2.7803: real time    2.7910
    MIXING:  cpu time    0.5637: real time    0.5654
    --------------------------------------------
      LOOP:  cpu time   34.4602: real time   34.5672

 eigenvalue-minimisations  :    64
 total energy-change (2. order) :-0.3397824E-02  (-0.2809489E-04)
 number of electron      42.0000000 magnetization 
 augmentation part        1.7917683 magnetization 

 Broyden mixing:
  rms(total) = 0.98716E-03    rms(broyden)= 0.98716E-03
  rms(prec ) = 0.13037E-02
  weight for this iteration     100.00

 eigenvalues of (default mixing * dielectric matrix)
  average eigenvalue GAMMA=   1.9774
  6.4804  3.4125  2.3594  1.8772  1.1419  1.1419  1.2572  1.2572  0.9306  0.9306
  0.9622

 Free energy of the ion-electron system (eV)
  ---------------------------------------------------
  alpha Z        PSCENC =         0.17739900
  Ewald energy   TEWEN  =      4015.67209291
  -Hartree energ DENC   =     -5683.77166942
  -exchange      EXHF   =         0.00000000
  -V(xc)+E(xc)   XCENC  =       167.26031061
  PAW double counting   =      2366.61061891    -2378.87869852
  entropy T*S    EENTRO =        -0.00000000
  eigenvalues    EBANDS =      -601.08273664
  atomic energy  EATOM  =      2032.42985693
  Solvation  Ediel_sol  =         0.00000000
  ---------------------------------------------------
  free energy    TOTEN  =       -81.58282622 eV

  energy without entropy =      -81.58282622  energy(sigma->0) =      -81.58282622


--------------------------------------------------------------------------------------------------------




----------------------------------------- Iteration    1(  17)  ---------------------------------------


    POTLOK:  cpu time   15.2731: real time   15.3147
    SETDIJ:  cpu time    0.2507: real time    0.2516
     EDDAV:  cpu time   19.8044: real time   19.8685
       DOS:  cpu time    0.0001: real time    0.0001
    CHARGE:  cpu time    2.7819: real time    2.7928
    MIXING:  cpu time    0.5855: real time    0.5872
    --------------------------------------------
      LOOP:  cpu time   38.6978: real time   38.8200

 eigenvalue-minimisations  :    88
 total energy-change (2. order) :-0.1374529E-02  (-0.7583419E-05)
 number of electron      42.0000000 magnetization 
 augmentation part        1.7918530 magnetization 

 Broyden mixing:
  rms(total) = 0.63654E-03    rms(broyden)= 0.63654E-03
  rms(prec ) = 0.85015E-03
  weight for this iteration     100.00

 eigenvalues of (default mixing * dielectric matrix)
  average eigenvalue GAMMA=   2.0818
  7.4383  3.7624  2.3555  2.3555  1.7007  1.1941  1.1941  1.0812  1.0812  0.9422
  0.9384  0.9384

 Free energy of the ion-electron system (eV)
  ---------------------------------------------------
  alpha Z        PSCENC =         0.17739900
  Ewald energy   TEWEN  =      4015.67209291
  -Hartree energ DENC   =     -5683.85162462
  -exchange      EXHF   =         0.00000000
  -V(xc)+E(xc)   XCENC  =       167.25786300
  PAW double counting   =      2366.54756084    -2378.81494399
  entropy T*S    EENTRO =        -0.00000000
  eigenvalues    EBANDS =      -601.00240481
  atomic energy  EATOM  =      2032.42985693
  Solvation  Ediel_sol  =         0.00000000
  ---------------------------------------------------
  free energy    TOTEN  =       -81.58420075 eV

  energy without entropy =      -81.58420075  energy(sigma->0) =      -81.58420075


--------------------------------------------------------------------------------------------------------




----------------------------------------- Iteration    1(  18)  ---------------------------------------


    POTLOK:  cpu time   15.2833: real time   15.3250
    SETDIJ:  cpu time    0.2534: real time    0.2541
     EDDAV:  cpu time   15.6144: real time   15.6650
       DOS:  cpu time    0.0001: real time    0.0001
    CHARGE:  cpu time    2.7772: real time    2.7880
    MIXING:  cpu time    0.6038: real time    0.6052
    --------------------------------------------
      LOOP:  cpu time   34.5342: real time   34.6421

 eigenvalue-minimisations  :    64
 total energy-change (2. order) :-0.1108821E-02  (-0.4892629E-05)
 number of electron      42.0000000 magnetization 
 augmentation part        1.7917468 magnetization 

 Broyden mixing:
  rms(total) = 0.32688E-03    rms(broyden)= 0.32688E-03
  rms(prec ) = 0.44652E-03
  weight for this iteration     100.00

 eigenvalues of (default mixing * dielectric matrix)
  average eigenvalue GAMMA=   2.1231
  7.8810  4.3274  2.7099  2.3560  1.7041  1.2491  1.2491  1.0938  1.0938  1.1044
  0.9583  0.9364  0.9364

 Free energy of the ion-electron system (eV)
  ---------------------------------------------------
  alpha Z        PSCENC =         0.17739900
  Ewald energy   TEWEN  =      4015.67209291
  -Hartree energ DENC   =     -5683.91167473
  -exchange      EXHF   =         0.00000000
  -V(xc)+E(xc)   XCENC  =       167.25638790
  PAW double counting   =      2366.56381722    -2378.83150751
  entropy T*S    EENTRO =        -0.00000000
  eigenvalues    EBANDS =      -600.94168130
  atomic energy  EATOM  =      2032.42985693
  Solvation  Ediel_sol  =         0.00000000
  ---------------------------------------------------
  free energy    TOTEN  =       -81.58530957 eV

  energy without entropy =      -81.58530957  energy(sigma->0) =      -81.58530957


--------------------------------------------------------------------------------------------------------




----------------------------------------- Iteration    1(  19)  ---------------------------------------


    POTLOK:  cpu time   15.2603: real time   15.3023
    SETDIJ:  cpu time    0.2530: real time    0.2536
     EDDAV:  cpu time   18.3848: real time   18.4463
       DOS:  cpu time    0.0001: real time    0.0001
    CHARGE:  cpu time    2.7869: real time    2.7980
    MIXING:  cpu time    0.6188: real time    0.6207
    --------------------------------------------
      LOOP:  cpu time   37.3061: real time   37.4256

 eigenvalue-minimisations  :    80
 total energy-change (2. order) :-0.4760451E-03  (-0.1765712E-05)
 number of electron      42.0000000 magnetization 
 augmentation part        1.7917870 magnetization 

 Broyden mixing:
  rms(total) = 0.20879E-03    rms(broyden)= 0.20879E-03
  rms(prec ) = 0.28027E-03
  weight for this iteration     100.00

 eigenvalues of (default mixing * dielectric matrix)
  average eigenvalue GAMMA=   2.1615
  8.2485  4.8459  2.8455  2.3904  1.9561  1.6023  1.3321  1.1083  1.1083  0.9364
  0.9364  0.9740  0.9885  0.9885

 Free energy of the ion-electron system (eV)
  ---------------------------------------------------
  alpha Z        PSCENC =         0.17739900
  Ewald energy   TEWEN  =      4015.67209291
  -Hartree energ DENC   =     -5683.91206209
  -exchange      EXHF   =         0.00000000
  -V(xc)+E(xc)   XCENC  =       167.25524430
  PAW double counting   =      2366.56430738    -2378.83193312
  entropy T*S    EENTRO =        -0.00000000
  eigenvalues    EBANDS =      -600.94069092
  atomic energy  EATOM  =      2032.42985693
  Solvation  Ediel_sol  =         0.00000000
  ---------------------------------------------------
  free energy    TOTEN  =       -81.58578561 eV

  energy without entropy =      -81.58578561  energy(sigma->0) =      -81.58578561


--------------------------------------------------------------------------------------------------------




----------------------------------------- Iteration    1(  20)  ---------------------------------------


    POTLOK:  cpu time   15.2461: real time   15.2877
    SETDIJ:  cpu time    0.2533: real time    0.2540
     EDDAV:  cpu time   15.6201: real time   15.6723
       DOS:  cpu time    0.0001: real time    0.0001
    CHARGE:  cpu time    2.7741: real time    2.7849
    MIXING:  cpu time    0.6405: real time    0.6421
    --------------------------------------------
      LOOP:  cpu time   34.5363: real time   34.6459

 eigenvalue-minimisations  :    64
 total energy-change (2. order) :-0.2837173E-03  (-0.5825380E-06)
 number of electron      42.0000000 magnetization 
 augmentation part        1.7917518 magnetization 

 Broyden mixing:
  rms(total) = 0.12514E-03    rms(broyden)= 0.12514E-03
  rms(prec ) = 0.16546E-03
  weight for this iteration     100.00

 eigenvalues of (default mixing * dielectric matrix)
  average eigenvalue GAMMA=   2.1979
  8.4943  5.3241  3.2229  2.4745  2.2679  1.6539  1.1208  1.1208  1.2093  1.2093
  0.9389  0.9389  1.0874  0.9326  0.9725

 Free energy of the ion-electron system (eV)
  ---------------------------------------------------
  alpha Z        PSCENC =         0.17739900
  Ewald energy   TEWEN  =      4015.67209291
  -Hartree energ DENC   =     -5683.91318706
  -exchange      EXHF   =         0.00000000
  -V(xc)+E(xc)   XCENC  =       167.25480706
  PAW double counting   =      2366.54806605    -2378.81558923
  entropy T*S    EENTRO =        -0.00000000
  eigenvalues    EBANDS =      -600.93951498
  atomic energy  EATOM  =      2032.42985693
  Solvation  Ediel_sol  =         0.00000000
  ---------------------------------------------------
  free energy    TOTEN  =       -81.58606933 eV

  energy without entropy =      -81.58606933  energy(sigma->0) =      -81.58606933


--------------------------------------------------------------------------------------------------------




----------------------------------------- Iteration    1(  21)  ---------------------------------------


    POTLOK:  cpu time   15.2375: real time   15.2794
    SETDIJ:  cpu time    0.2571: real time    0.2577
     EDDAV:  cpu time   18.9563: real time   19.0172
       DOS:  cpu time    0.0001: real time    0.0001
    CHARGE:  cpu time    2.7937: real time    2.8044
    MIXING:  cpu time    0.6674: real time    0.6690
    --------------------------------------------
      LOOP:  cpu time   37.9141: real time   38.0328

 eigenvalue-minimisations  :    80
 total energy-change (2. order) :-0.1391537E-03  (-0.1997635E-06)
 number of electron      42.0000000 magnetization 
 augmentation part        1.7917676 magnetization 

 Broyden mixing:
  rms(total) = 0.68285E-04    rms(broyden)= 0.68285E-04
  rms(prec ) = 0.92876E-04
  weight for this iteration     100.00

 eigenvalues of (default mixing * dielectric matrix)
  average eigenvalue GAMMA=   2.2290
  8.7575  5.7697  3.6360  2.6581  2.2996  1.7050  1.5215  1.1138  1.1138  1.2481
  0.9372  0.9372  1.0514  1.0514  0.9709  0.8934

 Free energy of the ion-electron system (eV)
  ---------------------------------------------------
  alpha Z        PSCENC =         0.17739900
  Ewald energy   TEWEN  =      4015.67209291
  -Hartree energ DENC   =     -5683.91342693
  -exchange      EXHF   =         0.00000000
  -V(xc)+E(xc)   XCENC  =       167.25445507
  PAW double counting   =      2366.52948664    -2378.79695437
  entropy T*S    EENTRO =        -0.00000000
  eigenvalues    EBANDS =      -600.93911773
  atomic energy  EATOM  =      2032.42985693
  Solvation  Ediel_sol  =         0.00000000
  ---------------------------------------------------
  free energy    TOTEN  =       -81.58620848 eV

  energy without entropy =      -81.58620848  energy(sigma->0) =      -81.58620848


--------------------------------------------------------------------------------------------------------




----------------------------------------- Iteration    1(  22)  ---------------------------------------


    POTLOK:  cpu time   15.3278: real time   15.3696
    SETDIJ:  cpu time    0.2531: real time    0.2537
     EDDAV:  cpu time   12.8445: real time   12.8862
       DOS:  cpu time    0.0001: real time    0.0001
    CHARGE:  cpu time    2.7890: real time    2.8000
    MIXING:  cpu time    0.6878: real time    0.6894
    --------------------------------------------
      LOOP:  cpu time   31.9042: real time   32.0039

 eigenvalue-minimisations  :    48
 total energy-change (2. order) :-0.6993057E-04  (-0.4755038E-07)
 number of electron      42.0000000 magnetization 
 augmentation part        1.7917637 magnetization 

 Broyden mixing:
  rms(total) = 0.43617E-04    rms(broyden)= 0.43617E-04
  rms(prec ) = 0.56956E-04
  weight for this iteration     100.00

 eigenvalues of (default mixing * dielectric matrix)
  average eigenvalue GAMMA=   2.2576
  8.9277  6.0981  3.9570  2.7317  2.3721  2.2155  1.5674  1.1244  1.1244  1.1430
  1.1430  1.2085  0.9379  0.9379  0.9939  0.9939  0.9032

 Free energy of the ion-electron system (eV)
  ---------------------------------------------------
  alpha Z        PSCENC =         0.17739900
  Ewald energy   TEWEN  =      4015.67209291
  -Hartree energ DENC   =     -5683.91739734
  -exchange      EXHF   =         0.00000000
  -V(xc)+E(xc)   XCENC  =       167.25436697
  PAW double counting   =      2366.53137224    -2378.79881807
  entropy T*S    EENTRO =        -0.00000000
  eigenvalues    EBANDS =      -600.93515104
  atomic energy  EATOM  =      2032.42985693
  Solvation  Ediel_sol  =         0.00000000
  ---------------------------------------------------
  free energy    TOTEN  =       -81.58627841 eV

  energy without entropy =      -81.58627841  energy(sigma->0) =      -81.58627841


--------------------------------------------------------------------------------------------------------




----------------------------------------- Iteration    1(  23)  ---------------------------------------


    POTLOK:  cpu time   15.3359: real time   15.3778
    SETDIJ:  cpu time    0.2532: real time    0.2538
     EDDAV:  cpu time   14.2509: real time   14.2964
       DOS:  cpu time    0.0001: real time    0.0001
    CHARGE:  cpu time    2.7924: real time    2.8032
    MIXING:  cpu time    0.7085: real time    0.7106
    --------------------------------------------
      LOOP:  cpu time   33.3431: real time   33.4465

 eigenvalue-minimisations  :    56
 total energy-change (2. order) :-0.3592396E-04  (-0.1716395E-07)
 number of electron      42.0000000 magnetization 
 augmentation part        1.7917599 magnetization 

 Broyden mixing:
  rms(total) = 0.23020E-04    rms(broyden)= 0.23020E-04
  rms(prec ) = 0.30990E-04
  weight for this iteration     100.00

 eigenvalues of (default mixing * dielectric matrix)
  average eigenvalue GAMMA=   2.2704
  9.0327  6.3787  4.3440  3.0182  2.5026  2.1699  1.6810  1.4481  1.1404  1.1404
  1.0767  1.0767  0.9382  0.9382  1.0648  1.0648  0.9256  0.9256

 Free energy of the ion-electron system (eV)
  ---------------------------------------------------
  alpha Z        PSCENC =         0.17739900
  Ewald energy   TEWEN  =      4015.67209291
  -Hartree energ DENC   =     -5683.92164255
  -exchange      EXHF   =         0.00000000
  -V(xc)+E(xc)   XCENC  =       167.25439197
  PAW double counting   =      2366.54040727    -2378.80786169
  entropy T*S    EENTRO =        -0.00000000
  eigenvalues    EBANDS =      -600.93095817
  atomic energy  EATOM  =      2032.42985693
  Solvation  Ediel_sol  =         0.00000000
  ---------------------------------------------------
  free energy    TOTEN  =       -81.58631434 eV

  energy without entropy =      -81.58631434  energy(sigma->0) =      -81.58631434


--------------------------------------------------------------------------------------------------------




----------------------------------------- Iteration    1(  24)  ---------------------------------------


    POTLOK:  cpu time   15.3036: real time   15.3453
    SETDIJ:  cpu time    0.2537: real time    0.2547
     EDDAV:  cpu time   12.8282: real time   12.8688
       DOS:  cpu time    0.0001: real time    0.0001
    CHARGE:  cpu time    2.7871: real time    2.7980
    MIXING:  cpu time    0.7332: real time    0.7353
    --------------------------------------------
      LOOP:  cpu time   31.9080: real time   32.0070

 eigenvalue-minimisations  :    48
 total energy-change (2. order) :-0.1607866E-04  (-0.7435062E-08)
 number of electron      42.0000000 magnetization 
 augmentation part        1.7917622 magnetization 

 Broyden mixing:
  rms(total) = 0.17933E-04    rms(broyden)= 0.17933E-04
  rms(prec ) = 0.21977E-04
  weight for this iteration     100.00

 eigenvalues of (default mixing * dielectric matrix)
  average eigenvalue GAMMA=   2.2731
  9.1421  6.6503  4.6165  3.0914  2.5636  2.1496  2.1496  1.4924  1.2994  1.1330
  1.1330  1.1160  1.1160  0.9381  0.9381  0.9601  0.9601  0.8925  0.8467

 Free energy of the ion-electron system (eV)
  ---------------------------------------------------
  alpha Z        PSCENC =         0.17739900
  Ewald energy   TEWEN  =      4015.67209291
  -Hartree energ DENC   =     -5683.92381660
  -exchange      EXHF   =         0.00000000
  -V(xc)+E(xc)   XCENC  =       167.25441901
  PAW double counting   =      2366.54441280    -2378.81187713
  entropy T*S    EENTRO =        -0.00000000
  eigenvalues    EBANDS =      -600.92881733
  atomic energy  EATOM  =      2032.42985693
  Solvation  Ediel_sol  =         0.00000000
  ---------------------------------------------------
  free energy    TOTEN  =       -81.58633042 eV

  energy without entropy =      -81.58633042  energy(sigma->0) =      -81.58633042


--------------------------------------------------------------------------------------------------------




----------------------------------------- Iteration    1(  25)  ---------------------------------------


    POTLOK:  cpu time   15.2940: real time   15.3358
    SETDIJ:  cpu time    0.2522: real time    0.2531
     EDDAV:  cpu time   14.2333: real time   14.2788
       DOS:  cpu time    0.0001: real time    0.0001
    CHARGE:  cpu time    2.7899: real time    2.8011
    MIXING:  cpu time    0.7595: real time    0.7614
    --------------------------------------------
      LOOP:  cpu time   33.3311: real time   33.4348

 eigenvalue-minimisations  :    56
 total energy-change (2. order) :-0.7762868E-05  (-0.2862345E-08)
 number of electron      42.0000000 magnetization 
 augmentation part        1.7917587 magnetization 

 Broyden mixing:
  rms(total) = 0.10639E-04    rms(broyden)= 0.10639E-04
  rms(prec ) = 0.13396E-04
  weight for this iteration     100.00

 eigenvalues of (default mixing * dielectric matrix)
  average eigenvalue GAMMA=   2.2832
  9.2735  6.8864  4.8799  3.4325  2.4980  2.4980  2.1036  1.7198  1.1298  1.1298
  1.2620  1.1194  1.1194  0.9376  0.9376  1.1234  0.9890  0.9890  0.8689  0.7669

 Free energy of the ion-electron system (eV)
  ---------------------------------------------------
  alpha Z        PSCENC =         0.17739900
  Ewald energy   TEWEN  =      4015.67209291
  -Hartree energ DENC   =     -5683.92459005
  -exchange      EXHF   =         0.00000000
  -V(xc)+E(xc)   XCENC  =       167.25442649
  PAW double counting   =      2366.54245679    -2378.80993073
  entropy T*S    EENTRO =        -0.00000000
  eigenvalues    EBANDS =      -600.92804952
  atomic energy  EATOM  =      2032.42985693
  Solvation  Ediel_sol  =         0.00000000
  ---------------------------------------------------
  free energy    TOTEN  =       -81.58633818 eV

  energy without entropy =      -81.58633818  energy(sigma->0) =      -81.58633818


--------------------------------------------------------------------------------------------------------




----------------------------------------- Iteration    1(  26)  ---------------------------------------


    POTLOK:  cpu time   15.2976: real time   15.3397
    SETDIJ:  cpu time    0.2544: real time    0.2550
     EDDAV:  cpu time   11.3667: real time   11.4025
       DOS:  cpu time    0.0001: real time    0.0001
    CHARGE:  cpu time    2.7861: real time    2.7969
    MIXING:  cpu time    0.7848: real time    0.7870
    --------------------------------------------
      LOOP:  cpu time   30.4918: real time   30.5857

 eigenvalue-minimisations  :    40
 total energy-change (2. order) :-0.4729315E-05  (-0.2055375E-08)
 number of electron      42.0000000 magnetization 
 augmentation part        1.7917636 magnetization 

 Broyden mixing:
  rms(total) = 0.72499E-05    rms(broyden)= 0.72499E-05
  rms(prec ) = 0.87782E-05
  weight for this iteration     100.00

 eigenvalues of (default mixing * dielectric matrix)
  average eigenvalue GAMMA=   2.2816
  9.3727  7.0114  5.1252  3.5213  2.5894  2.5894  1.9956  1.9956  1.3849  1.3849
  1.1310  1.1310  1.1481  1.1481  0.9370  0.9370  0.9939  0.9939  0.9571  0.8890
  0.6766

 Free energy of the ion-electron system (eV)
  ---------------------------------------------------
  alpha Z        PSCENC =         0.17739900
  Ewald energy   TEWEN  =      4015.67209291
  -Hartree energ DENC   =     -5683.92412694
  -exchange      EXHF   =         0.00000000
  -V(xc)+E(xc)   XCENC  =       167.25439090
  PAW double counting   =      2366.53934418    -2378.80681307
  entropy T*S    EENTRO =        -0.00000000
  eigenvalues    EBANDS =      -600.92848682
  atomic energy  EATOM  =      2032.42985693
  Solvation  Ediel_sol  =         0.00000000
  ---------------------------------------------------
  free energy    TOTEN  =       -81.58634291 eV

  energy without entropy =      -81.58634291  energy(sigma->0) =      -81.58634291


--------------------------------------------------------------------------------------------------------




----------------------------------------- Iteration    1(  27)  ---------------------------------------


    POTLOK:  cpu time   15.2837: real time   15.3253
    SETDIJ:  cpu time    0.2526: real time    0.2535
     EDDAV:  cpu time   14.1799: real time   14.2271
       DOS:  cpu time    0.0001: real time    0.0001
    CHARGE:  cpu time    2.7848: real time    2.7957
    MIXING:  cpu time    0.8148: real time    0.8167
    --------------------------------------------
      LOOP:  cpu time   33.3179: real time   33.4232

 eigenvalue-minimisations  :    56
 total energy-change (2. order) :-0.2328858E-05  (-0.1158236E-08)
 number of electron      42.0000000 magnetization 
 augmentation part        1.7917604 magnetization 

 Broyden mixing:
  rms(total) = 0.49746E-05    rms(broyden)= 0.49746E-05
  rms(prec ) = 0.59047E-05
  weight for this iteration     100.00

 eigenvalues of (default mixing * dielectric matrix)
  average eigenvalue GAMMA=   2.3072
  9.4268  7.3957  5.4445  3.9465  2.9162  2.4334  2.1648  2.1648  1.6338  1.3105
  1.1321  1.1321  1.1388  1.1388  0.9381  0.9381  1.0282  1.0282  0.9924  0.9052
  0.9052  0.6439

 Free energy of the ion-electron system (eV)
  ---------------------------------------------------
  alpha Z        PSCENC =         0.17739900
  Ewald energy   TEWEN  =      4015.67209291
  -Hartree energ DENC   =     -5683.92435359
  -exchange      EXHF   =         0.00000000
  -V(xc)+E(xc)   XCENC  =       167.25439473
  PAW double counting   =      2366.53883321    -2378.80630114
  entropy T*S    EENTRO =        -0.00000000
  eigenvalues    EBANDS =      -600.92826728
  atomic energy  EATOM  =      2032.42985693
  Solvation  Ediel_sol  =         0.00000000
  ---------------------------------------------------
  free energy    TOTEN  =       -81.58634524 eV

  energy without entropy =      -81.58634524  energy(sigma->0) =      -81.58634524


--------------------------------------------------------------------------------------------------------




----------------------------------------- Iteration    1(  28)  ---------------------------------------


    POTLOK:  cpu time   15.2950: real time   15.3370
    SETDIJ:  cpu time    0.2536: real time    0.2542
     EDDAV:  cpu time   11.3775: real time   11.4139
       DOS:  cpu time    0.0001: real time    0.0001
    CHARGE:  cpu time    2.7903: real time    2.8012
    MIXING:  cpu time    0.8384: real time    0.8408
    --------------------------------------------
      LOOP:  cpu time   30.5571: real time   30.6521

[...]
  rms(prec ) = 0.13482E-05
  weight for this iteration     100.00

 eigenvalues of (default mixing * dielectric matrix)
  average eigenvalue GAMMA=   2.3183
  9.5294  8.0046  6.0454  4.7020  3.4348  2.7839  2.3346  2.1859  2.1859  1.7157
  1.1422  1.1422  1.1423  1.1423  1.1246  1.1246  1.1230  1.1230  0.9369  0.9369
  0.9625  0.9017  0.9017  0.7547  0.5768

 Free energy of the ion-electron system (eV)
  ---------------------------------------------------
  alpha Z        PSCENC =         0.17739900
  Ewald energy   TEWEN  =      4015.67209291
  -Hartree energ DENC   =     -5683.92452166
  -exchange      EXHF   =         0.00000000
  -V(xc)+E(xc)   XCENC  =       167.25439522
  PAW double counting   =      2366.53966403    -2378.80713230
  entropy T*S    EENTRO =        -0.00000000
  eigenvalues    EBANDS =      -600.92810159
  atomic energy  EATOM  =      2032.42985693
  Solvation  Ediel_sol  =         0.00000000
  ---------------------------------------------------
  free energy    TOTEN  =       -81.58634747 eV

  energy without entropy =      -81.58634747  energy(sigma->0) =      -81.58634747


--------------------------------------------------------------------------------------------------------




----------------------------------------- Iteration    1(  31)  ---------------------------------------


    POTLOK:  cpu time   15.3410: real time   15.3829
    SETDIJ:  cpu time    0.2547: real time    0.2553
     EDDAV:  cpu time   12.7866: real time   12.8290
       DOS:  cpu time    0.0001: real time    0.0001
    CHARGE:  cpu time    2.7859: real time    2.7968
    MIXING:  cpu time    0.9309: real time    0.9334
    --------------------------------------------
      LOOP:  cpu time   32.1013: real time   32.2026

 eigenvalue-minimisations  :    48
 total energy-change (2. order) :-0.1491862E-06  (-0.3787726E-10)
 number of electron      42.0000000 magnetization 
 augmentation part        1.7917610 magnetization 

 Broyden mixing:
  rms(total) = 0.14035E-05    rms(broyden)= 0.14035E-05
  rms(prec ) = 0.14866E-05
  weight for this iteration     100.00

 eigenvalues of (default mixing * dielectric matrix)
  average eigenvalue GAMMA=   2.3273
  9.5663  8.1420  6.2423  4.8834  3.6436  2.8953  2.4022  2.4022  1.9050  1.9050
  1.5139  1.1437  1.1437  1.3135  1.1350  1.1350  0.9373  0.9373  1.0794  1.0794
  1.0990  0.9169  0.9169  0.9099  0.7040  0.5579

 Free energy of the ion-electron system (eV)
  ---------------------------------------------------
  alpha Z        PSCENC =         0.17739900
  Ewald energy   TEWEN  =      4015.67209291
  -Hartree energ DENC   =     -5683.92450778
  -exchange      EXHF   =         0.00000000
  -V(xc)+E(xc)   XCENC  =       167.25439418
  PAW double counting   =      2366.53956729    -2378.80703588
  entropy T*S    EENTRO =        -0.00000000
  eigenvalues    EBANDS =      -600.92811426
  atomic energy  EATOM  =      2032.42985693
  Solvation  Ediel_sol  =         0.00000000
  ---------------------------------------------------
  free energy    TOTEN  =       -81.58634762 eV

  energy without entropy =      -81.58634762  energy(sigma->0) =      -81.58634762


--------------------------------------------------------------------------------------------------------




----------------------------------------- Iteration    1(  32)  ---------------------------------------


    POTLOK:  cpu time   15.3614: real time   15.4033
    SETDIJ:  cpu time    0.2537: real time    0.2543
     EDDAV:  cpu time   14.1585: real time   14.2055
       DOS:  cpu time    0.0001: real time    0.0001
    CHARGE:  cpu time    2.7892: real time    2.7998
    MIXING:  cpu time    0.9582: real time    0.9608
    --------------------------------------------
      LOOP:  cpu time   33.5232: real time   33.6279

 eigenvalue-minimisations  :    56
 total energy-change (2. order) :-0.1068179E-06  ( 0.5714185E-10)
 number of electron      42.0000000 magnetization 
 augmentation part        1.7917619 magnetization 

 Broyden mixing:
  rms(total) = 0.50715E-06    rms(broyden)= 0.50715E-06
  rms(prec ) = 0.57781E-06
  weight for this iteration     100.00

 eigenvalues of (default mixing * dielectric matrix)
  average eigenvalue GAMMA=   2.3487
  9.6172  8.3215  6.5218  5.1508  3.9959  3.0459  2.5870  2.4262  2.1251  2.1251
  1.7014  1.1431  1.1431  1.1299  1.1299  1.1564  1.1564  1.0742  1.0742  0.9372
  0.9372  0.9223  0.9223  0.9369  0.8995  0.6825  0.5524

 Free energy of the ion-electron system (eV)
  ---------------------------------------------------
  alpha Z        PSCENC =         0.17739900
  Ewald energy   TEWEN  =      4015.67209291
  -Hartree energ DENC   =     -5683.92448502
  -exchange      EXHF   =         0.00000000
  -V(xc)+E(xc)   XCENC  =       167.25439277
  PAW double counting   =      2366.53954019    -2378.80700758
  entropy T*S    EENTRO =        -0.00000000
  eigenvalues    EBANDS =      -600.92813693
  atomic energy  EATOM  =      2032.42985693
  Solvation  Ediel_sol  =         0.00000000
  ---------------------------------------------------
  free energy    TOTEN  =       -81.58634773 eV

  energy without entropy =      -81.58634773  energy(sigma->0) =      -81.58634773


--------------------------------------------------------------------------------------------------------




----------------------------------------- Iteration    1(  33)  ---------------------------------------


    POTLOK:  cpu time   15.3817: real time   15.4237
    SETDIJ:  cpu time    0.2581: real time    0.2587
     EDDAV:  cpu time   12.7644: real time   12.8064
       DOS:  cpu time    0.0001: real time    0.0001
    --------------------------------------------
      LOOP:  cpu time   28.4063: real time   28.4937

 eigenvalue-minimisations  :    48
 total energy-change (2. order) :-0.5050742E-07  ( 0.1276454E-09)
 number of electron      42.0000000 magnetization 
 augmentation part        1.7917619 magnetization 

 Free energy of the ion-electron system (eV)
  ---------------------------------------------------
  alpha Z        PSCENC =         0.17739900
  Ewald energy   TEWEN  =      4015.67209291
  -Hartree energ DENC   =     -5683.92448947
  -exchange      EXHF   =         0.00000000
  -V(xc)+E(xc)   XCENC  =       167.25439293
  PAW double counting   =      2366.53955953    -2378.80702673
  entropy T*S    EENTRO =        -0.00000000
  eigenvalues    EBANDS =      -600.92813288
  atomic energy  EATOM  =      2032.42985693
  Solvation  Ediel_sol  =         0.00000000
  ---------------------------------------------------
  free energy    TOTEN  =       -81.58634778 eV

  energy without entropy =      -81.58634778  energy(sigma->0) =      -81.58634778


--------------------------------------------------------------------------------------------------------




 average (electrostatic) potential at core
  the test charge radii are     0.7215  0.5902  0.6991  0.5883
  (the norm of the test charge is              1.0000)
       1 -79.9563       2 -80.2215       3 -74.7330       4 -74.2127       5 -60.9399
       6 -59.4441       7 -61.6393       8 -62.5449       9 -41.4457      10 -40.6028
      11 -42.6325      12 -43.2717
 
 
 
 E-fermi :  -6.1653     XC(G=0):  -0.0496     alpha+bet : -0.0195


 k-point     1 :       0.0000    0.0000    0.0000
  band No.  band energies     occupation 
      1     -27.3252      2.00000
      2     -26.3082      2.00000
      3     -24.8590      2.00000
      4     -23.4363      2.00000
      5     -20.0957      2.00000
      6     -17.4950      2.00000
      7     -16.7550      2.00000
      8     -15.1277      2.00000
      9     -14.0885      2.00000
     10     -13.0896      2.00000
     11     -12.1513      2.00000
     12     -11.6956      2.00000
     13     -11.1031      2.00000
     14     -10.4347      2.00000
     15     -10.1944      2.00000
     16     -10.1547      2.00000
     17      -9.3087      2.00000
     18      -7.1755      2.00000
     19      -7.0435      2.00000
     20      -6.3972      2.00000
     21      -6.2252      2.00000
     22      -2.4072      0.00000
     23      -1.1481      0.00000
     24      -1.0400      0.00000
     25      -0.2553      0.00000
     26      -0.1746      0.00000
     27       0.0121      0.00000
     28       0.0426      0.00000


--------------------------------------------------------------------------------------------------------


 soft charge-density along one line, spin component           1
         0         1         2         3         4         5         6         7         8         9
 total charge-density along one line
 
 pseudopotential strength for first ion, spin component:           1
 13.750 -10.543  -0.113  -0.013   0.038   0.507   0.060  -0.170
-10.543   8.176   0.109   0.013  -0.036  -0.458  -0.055   0.154
 -0.113   0.109 -10.425  -0.015   0.037   1.193   0.023  -0.063
 -0.013   0.013  -0.015 -10.247   0.013   0.023   0.918  -0.019
  0.038  -0.036   0.037   0.013 -10.327  -0.063  -0.019   1.027
  0.507  -0.458   1.193   0.023  -0.063  38.659  -0.014   0.034
  0.060  -0.055   0.023   0.918  -0.019  -0.014  38.837   0.014
 -0.170   0.154  -0.063  -0.019   1.027   0.034   0.014  38.749
 total augmentation occupancy for first ion, spin component:           1
  1.923   0.036  -0.095  -0.015   0.033   0.031   0.003  -0.010
  0.036   0.003   0.052   0.006  -0.018   0.005   0.000  -0.002
 -0.095   0.052   1.597  -0.006  -0.055   0.099   0.006  -0.018
 -0.015   0.006  -0.006   1.795   0.046   0.006   0.039  -0.003
  0.033  -0.018  -0.055   0.046   1.454  -0.018  -0.003   0.051
  0.031   0.005   0.099   0.006  -0.018   0.008   0.001  -0.002
  0.003   0.000   0.006   0.039  -0.003   0.001   0.002  -0.000
 -0.010  -0.002  -0.018  -0.003   0.051  -0.002  -0.000   0.002


------------------------ aborting loop because EDIFF is reached ----------------------------------------


    CHARGE:  cpu time    2.7880: real time    2.7993
    FORLOC:  cpu time    2.2202: real time    2.2262
    FORNL :  cpu time    2.0968: real time    2.1026
    STRESS:  cpu time   10.6184: real time   10.6476
    FORHAR:  cpu time    5.6687: real time    5.6844
    MIXING:  cpu time    0.9959: real time    0.9986
    OFIELD:  cpu time    0.0000: real time    0.0000

  FORCE on cell =-STRESS in cart. coord.  units (eV):
  Direction    XX          YY          ZZ          XY          YZ          ZX
  --------------------------------------------------------------------------------------
  Alpha Z     0.17740     0.17740     0.17740
  Ewald    -130.61371  2100.77475  2045.51038  -622.67960   417.38599   222.60431
  Hartree   947.92986  2390.11532  2345.87929  -400.30654   300.81469   130.95004
  E(xc)    -177.44331  -173.52886  -173.51670    -1.11286     0.52614     0.48470
  Local   -1360.28308 -4944.99824 -4851.34380   999.41575  -701.38806  -343.98829
  n-local  -118.42385  -123.31422  -122.63260     1.68469    -0.48972    -0.67024
  augment    10.71982    10.29961    10.89907     0.03393    -0.85239     0.18476
  Kinetic   828.15024   743.07121   747.95408    22.30029   -15.62179    -9.23482
  Fock        0.00000     0.00000     0.00000     0.00000     0.00000     0.00000
  -------------------------------------------------------------------------------------
  Total       0.21337     2.59697     2.92712    -0.66434     0.37485     0.33047
  in kB       0.00797     0.09704     0.10938    -0.02483     0.01401     0.01235
  external pressure =        0.07 kB  Pullay stress =        0.00 kB


 VOLUME and BASIS-vectors are now :
 -----------------------------------------------------------------------------
  energy-cutoff  :     1600.00
  volume of cell :    42875.00
      direct lattice vectors                 reciprocal lattice vectors
    35.000000000  0.000000000  0.000000000     0.028571429  0.000000000  0.000000000
     0.000000000 35.000000000  0.000000000     0.000000000  0.028571429  0.000000000
     0.000000000  0.000000000 35.000000000     0.000000000  0.000000000  0.028571429

  length of vectors
    35.000000000 35.000000000 35.000000000     0.028571429  0.028571429  0.028571429


 FORCES acting on ions
    electron-ion (+dipol)            ewald-force                    non-local-force                 convergence-correction
 -----------------------------------------------------------------------------------------------
   -.124E+03 0.397E+03 0.658E+02   0.141E+03 -.449E+03 -.719E+02   -.174E+02 0.515E+02 0.613E+01   0.146E-05 -.333E-05 0.144E-05
   -.223E+02 -.181E+03 -.395E+03   0.263E+02 0.204E+03 0.447E+03   -.406E+01 -.222E+02 -.515E+02   0.834E-06 0.150E-05 0.428E-05
   0.846E+02 -.244E+03 0.369E+02   -.880E+02 0.245E+03 -.357E+02   0.336E+01 -.729E+00 -.146E+01   -.428E-06 0.372E-05 0.731E-06
   -.312E+02 0.137E+03 -.163E+03   0.288E+02 -.140E+03 0.163E+03   0.248E+01 0.330E+01 0.604E+00   0.182E-05 -.393E-05 0.227E-05
   0.600E+02 -.121E+03 0.199E+03   -.600E+02 0.118E+03 -.205E+03   0.561E-01 0.233E+01 0.604E+01   -.338E-06 0.239E-05 0.875E-07
   0.204E+02 0.510E+02 0.215E+03   -.202E+02 -.531E+02 -.217E+03   -.166E+00 0.212E+01 0.223E+01   0.436E-06 -.146E-05 -.830E-06
   0.436E+01 0.403E+02 0.587E+02   -.534E+01 -.388E+02 -.634E+02   0.922E+00 -.135E+01 0.442E+01   0.154E-05 -.407E-05 0.235E-07
   0.957E+01 -.319E+02 -.490E+02   -.912E+01 0.320E+02 0.505E+02   -.333E+00 -.335E+00 -.155E+01   0.104E-06 0.312E-05 0.322E-05
   0.232E+02 -.552E+02 0.700E+02   -.248E+02 0.593E+02 -.747E+02   0.152E+01 -.381E+01 0.450E+01   -.399E-07 0.315E-06 -.127E-06
   0.446E+01 0.263E+02 0.875E+02   -.451E+01 -.287E+02 -.933E+02   0.556E-01 0.229E+01 0.559E+01   0.421E-07 -.232E-06 -.339E-06
   -.327E+02 0.627E+02 -.876E+02   0.352E+02 -.671E+02 0.937E+02   -.245E+01 0.416E+01 -.595E+01   0.411E-06 -.746E-06 0.792E-06
   0.187E+02 -.111E+03 -.522E+01   -.197E+02 0.119E+03 0.661E+01   0.903E+00 -.764E+01 -.130E+01   0.867E-07 -.171E-06 0.216E-07
 -----------------------------------------------------------------------------------------------
   0.151E+02 -.297E+02 0.322E+02   -.711E-13 0.284E-13 0.115E-12   -.151E+02 0.297E+02 -.322E+02   0.593E-05 -.288E-05 0.116E-04
 
 
 POSITION                                       TOTAL-FORCE (eV/Angst)
 -----------------------------------------------------------------------------------
     34.07941     32.38891     34.37395         0.114693     -0.528787     -0.003368
     33.43889      0.97181      2.12981        -0.003103      0.314300      0.638459
     32.98864      1.21321     34.90193        -0.015040      0.146145     -0.247546
     33.62311     34.16026      0.73464         0.046956      0.081795      0.190369
     32.97429      0.69718     33.63560         0.015935     -0.109139     -0.029498
     33.28548     34.40803     33.38751        -0.026554      0.070834      0.095402
     33.69104     33.54247     34.47941        -0.057871      0.142820     -0.284455
     33.35401      0.48521      1.01873         0.112991     -0.305400     -0.097375
     32.70248      1.39106     32.85435        -0.094519      0.216483     -0.231414
     33.27271     34.00915     32.38799         0.011328     -0.144172     -0.277046
     33.94820     33.61378      1.52337         0.026762     -0.162973      0.161405
     32.87054      2.20151      0.05681        -0.131578      0.278094      0.085065
 -----------------------------------------------------------------------------------
    total drift:                                0.000050     -0.000054     -0.000091


--------------------------------------------------------------------------------------------------------



  FREE ENERGIE OF THE ION-ELECTRON SYSTEM (eV)
  ---------------------------------------------------
  free  energy   TOTEN  =       -81.58634778 eV

  energy  without entropy=      -81.58634778  energy(sigma->0) =      -81.58634778
 


--------------------------------------------------------------------------------------------------------


    POTLOK:  cpu time   15.6324: real time   15.6749


--------------------------------------------------------------------------------------------------------


 writing wavefunctions
     LOOP+:  cpu time 1687.8330: real time 1693.1560
    4ORBIT:  cpu time    0.0000: real time    0.0000

 total amount of memory used by VASP on root node  4072922. kBytes
========================================================================

   base      :      30000. kBytes
   nonl-proj :     236769. kBytes
   fftplans  :    1215227. kBytes
   grid      :    2547302. kBytes
   one-center:          8. kBytes
   wavefun   :      43616. kBytes
 
  
  
 General timing and accounting informations for this job:
 ========================================================
  
                  Total CPU time used (sec):     2442.990
                            User time (sec):     2214.097
                          System time (sec):      228.892
                         Elapsed time (sec):     2450.844
  
                   Maximum memory used (kb):     5305256.
                   Average memory used (kb):           0.
  
                          Minor page faults:       233061
                          Major page faults:            6
                 Voluntary context switches:        36566
 
 PROFILE, used timers:      14
 =============================
 
 index                 routine                    time                            calls level
----------------------------------------------------------------------------------------------
    1    total_time                         2450.844489                                1   1
    2      w1_copy                               3.386051                           2410   2
    3      fftwav_mpi                          192.282688                            982   2
    4      fftext_mpi                            0.931224                              7   2
    5      overl                                 0.001431                           1372   2
    6      orth1                                 5.198921                           1408   2
    7      lincom                                0.355503                             34   2
    8      eccp                                  8.287666                            231   2
    9      hamiltmu                            263.075890                            469   2
   10        vhamil                               39.609050                          801   3
   11        overl1                                0.001063                          801   3
   12        kinhamil                            139.115030                          801   3
   13          fftext_mpi                          138.034571                        801   4
   14      pdssyex_zheevx                        0.075651                             33   2
 
 Flat profile
 ============
 
             routine name                   CPU           calls
 ---------------------------------------------------------------
 total_time                           1977.249464           1
 fftwav_mpi                            192.282688         982
 fftext_mpi                            138.965795         808
 hamiltmu                               84.350747         469
 vhamil                                 39.609050         801
 eccp                                    8.287666         231
 orth1                                   5.198921        1408
 w1_copy                                 3.386051        2410
 kinhamil                                1.080458         801
 lincom                                  0.355503          34
 pdssyex_zheevx                          0.075651          33
 overl                                   0.001431        1372
 overl1                                  0.001063         801
 ---------------------------------------------------------------
  summed up times    2450.84448885918     
 
Profiling took   0.008700  0.004815  0.003221  0.003214 seconds
Profiling took   0.004935 seconds
