
 Primary working directories    : /scratch/sirous/43232/molpro.GnqhGfnJUO
 Secondary working directories  : /scratch/sirous/43232/molpro.GnqhGfnJUO
 Wavefunction directory         : /scratch/sirous/43232/
 Main file repository           : /scratch/sirous/43232/molpro.GnqhGfnJUO/

 id        : karlovklimes

 Nodes                      nprocs
 nc-19.cc.karlov.mff.cuni.cz    4

 Using customized tuning parameters: mindgm=1; mindgv=20; mindgc=4; mindgr=1; noblas=0; minvec=7
 default implementation of scratch files=sf  


 Variables initialized (934), CPU time= 0.01 sec
 ***,CH3C6H4CN+CF3CN+BF3
 memory,500,m
 gdirect
 gthresh,energy=1.d-8,twoint=1.d-19,oneint=1.d-19,zero=1.d-15,orbital=1.d-8,grid=1.d-8
 symmetry,nosym
 geomtyp=xyz
                                                                                 ! Geometry
 geometry={
 O1        -0.525329794    -0.050971084     -0.314516861
 H1        -0.942006633    0.747901631     0.011252816
 H2        0.403696525    0.059785981     -0.073568368
 O2        2.0668459386481373    0.047366171396874414     0.052868861665258074
 H3        2.434828762648137    -0.5247112316031256     0.7303971886652582
 C1        2.5318510096481375    -0.42426374460312555     -1.209290248334742
 H4        2.1010339146481374    0.2268299463968744     -1.962404280334742
 H5        3.6178146966481375    -0.3734708836031256     -1.283602176334742
 H6        2.2035083916481373    -1.4441332416031256     -1.408370882334742
 }
 
 
 
 basis=avqz
 
 
 
                                                                                 ! Dimer Calculation
 {rks,pbe,accu=1.d-8;orbital,2101.2}
 eab_PBE=energy
 
 
                                                                                 !monomer A
 dummy,4,5,6,7,8,9;                                                              ! NOW MONOMER B IS DUMMY
 {rks,pbe,accu=1.d-8;orbital,2201.2}
 ea_PBE=energy
                                                                                 !monomer B
 dummy,1,2,3;                                                                    !NOW MONOMER A IS DUMMY
 {rks,pbe,accu=1.d-8;orbital,2301.2}
 eb_PBE=energy
 
 E_AB_int=eab_PBE-ea_PBE-eb_PBE
 
 
 text,results in hartree
 show,E_AB_int
 
 Commands  initialized (763), CPU time= 0.02 sec, 617 directives.
 Default parameters read. Elapsed time= 0.21 sec

 Checking input...
 Passed
1


                                         ***  PROGRAM SYSTEM MOLPRO  ***
                                       Copyright, TTI GmbH Stuttgart, 2015
                                    Version 2019.2 linked Jun  8 2019 11:26:33


 **********************************************************************************************************************************
 LABEL *   CH3C6H4CN+CF3CN+BF3                                                           
  64 bit mpp version                                                                     DATE: 06-Oct-19          TIME: 18:44:31  
 **********************************************************************************************************************************

 SHA1:             8135a10abc80eafa5b3ae28ffc55be4890dc4c84
 **********************************************************************************************************************************

 THRESHOLDS:

 ZERO    =  1.00D-15  ONEINT  =  1.00D-19  TWOINT  =  1.00D-19  PREFAC  =  1.00D-14  XXXXXX  =  1.00D-09  EORDER  =  1.00D-04
 ENERGY  =  1.00D-08  ETEST   =  0.00D+00  EDENS   =  0.00D+00  THRDEDEF=  1.00D-06  GRADIENT=  1.00D-02  STEP    =  1.00D-03
 ORBITAL =  1.00D-08  CIVEC   =  1.00D-05  COEFF   =  1.00D-04  PRINTCI =  5.00D-02  PUNCHCI =  9.90D+01  OPTGRAD =  3.00D-04
 OPTENERG=  1.00D-06  OPTSTEP =  3.00D-04  THRGRAD =  1.00D-10  COMPRESS=  1.00D-11  VARMIN  =  1.00D-07  VARMAX  =  1.00D-03
 THRDOUB =  0.00D+00  THRDIV  =  1.00D-05  THRRED  =  1.00D-07  THRPSP  =  1.00D+00  THRDC   =  1.00D-10  THRCS   =  1.00D-10
 THRNRM  =  1.00D-08  THREQ   =  0.00D+00  THRDE   =  1.00D+00  THRREF  =  1.00D-05  SPARFAC =  1.00D+00  THRDLP  =  1.00D-07
 THRDIA  =  1.00D-10  THRDLS  =  1.00D-07  THRGPS  =  0.00D+00  THRKEX  =  0.00D+00  THRDIS  =  2.00D-01  THRVAR  =  1.00D-10
 THRLOC  =  1.00D-06  THRGAP  =  1.00D-06  THRLOCT = -1.00D+00  THRGAPT = -1.00D+00  THRORB  =  1.00D-06  THRMLTP =  0.00D+00
 THRCPQCI=  1.00D-10  KEXTA   =  0.00D+00  THRCOARS=  0.00D+00  SYMTOL  =  1.00D-06  GRADTOL =  1.00D-06  THROVL  =  1.00D-08
 THRORTH =  1.00D-08  GRID    =  1.00D-08  GRIDMAX =  1.00D-03  DTMAX   =  0.00D+00  THROCCDE=  1.00D-01  THROCCDE=  1.00D-01
 THRPRINT=  2.50D-01


 Variable memory set to  500000000 words,  buffer space 

 SETTING GEOMTYP        =    XYZ
 ZSYMEL=NOSYM

 SETTING BASIS          =    AVQZ


 Recomputing integrals since basis changed


 Using spherical harmonics

 Library entry O      S aug-cc-pVQZ          selected for orbital group  1
 Library entry O      P aug-cc-pVQZ          selected for orbital group  1
 Library entry O      D aug-cc-pVQZ          selected for orbital group  1
 Library entry O      F aug-cc-pVQZ          selected for orbital group  1
 Library entry O      G aug-cc-pVQZ          selected for orbital group  1
 Library entry H      S aug-cc-pVQZ          selected for orbital group  2
 Library entry H      P aug-cc-pVQZ          selected for orbital group  2
 Library entry H      D aug-cc-pVQZ          selected for orbital group  2
 Library entry H      F aug-cc-pVQZ          selected for orbital group  2
 Library entry C      S aug-cc-pVQZ          selected for orbital group  5
 Library entry C      P aug-cc-pVQZ          selected for orbital group  5
 Library entry C      D aug-cc-pVQZ          selected for orbital group  5
 Library entry C      F aug-cc-pVQZ          selected for orbital group  5
 Library entry C      G aug-cc-pVQZ          selected for orbital group  5


 PROGRAM * SEWARD (Integral evaluation for generally contracted gaussian basis sets)     Author: Roland Lindh, 1990

 Geometry written to block  1 of record 700


 Point group  C1  



 ATOMIC COORDINATES

 NR  ATOM    CHARGE       X              Y              Z

   1  O1      8.00   -0.992729436   -0.096321389   -0.594350729
   2  H1      1.00   -1.780134544    1.413329251    0.021264740
   3  H2      1.00    0.762875870    0.112979130   -0.139024067
   4  O2      8.00    3.905772766    0.089509092    0.099907669
   5  H3      1.00    4.601159522   -0.991560522    1.380250649
   6  C1      6.00    4.784504996   -0.801742282   -2.285227374
   7  H4      1.00    3.970378677    0.428646476   -3.708406636
   8  H5      1.00    6.836678946   -0.705757686   -2.425656566
   9  H6      1.00    4.164027373   -2.729016314   -2.661435249

 Bond lengths in Bohr (Angstrom)

 1-2  1.810534248  1-3  1.825726996  4-5  1.814263596  4-6  2.693579128  6-7  2.049901795
     ( 0.958093464)     ( 0.966133120)     ( 0.960066950)     ( 1.425380690)     ( 1.084761314)

 6-8  2.059211335  6-9  2.059346994
     ( 1.089687711)     ( 1.089759498)

 Bond angles

  2-1-3  103.75741034   4-6-7  106.65459099   4-6-8  111.72059382   4-6-9  111.90879545

  5-4-6  107.61952492   7-6-8  108.69153234   7-6-9  108.37480423   8-6-9  109.35579191

 NUCLEAR CHARGE:                   28
 NUMBER OF PRIMITIVE AOS:         696
 NUMBER OF SYMMETRY AOS:          567
 NUMBER OF CONTRACTIONS:          516   (  516A   )
 NUMBER OF CORE ORBITALS:           3   (    3A   )
 NUMBER OF VALENCE ORBITALS:       18   (   18A   )


 NUCLEAR REPULSION ENERGY   82.61560115


 Eigenvalues of metric

         1 0.120E-04 0.153E-04 0.202E-04 0.254E-04 0.364E-04 0.440E-04 0.461E-04 0.562E-04


 OPERATOR DM      FOR CENTER  0  COORDINATES:    0.000000    0.000000    0.000000


 **********************************************************************************************************************************
 DATASETS  * FILE   NREC   LENGTH (MB)   RECORD NAMES
              1      18       39.85       500      610      700      900      950      970     1000      129      960     1100   
                                          VAR    BASINP    GEOM    SYMINP    ZMAT    AOBASIS   BASIS     P2S    ABASIS      S 
                                         1400     1410     1200     1210     1080     1600     1650     1700   
                                           T        V       H0       H01     AOSYM     SMH    MOLCAS    OPER   

 PROGRAMS   *        TOTAL       INT
 CPU TIMES  *         0.82      0.64
 REAL TIME  *         2.07 SEC
 DISK USED  *        40.42 MB (local),      161.67 MB (total)
 GA USED    *         0.00 MB       (max)       0.00 MB       (current)
 **********************************************************************************************************************************

 Density functional group PBE=PBEX+PBEC
 Functional: PBEX(Automatically generated (new) PBEX)                          Gradient terms: 1
 Functional: PBEC(Automatically generated (new) PBEC)                          Gradient terms: 1
 Use libxcgrid:  F
 Use grid at  1800.2

 Functional: PBEX                      Factor:  1.0000
 Functional: PBEC                      Factor:  1.0000

 Generated new metagrid on record  1800.2 with target accuracy 1.0D-08 and 82896 points in CPU time    0.3
 Computed new grid on record 1800.1 in CPU time    0.3
  416226 words reserved for DFT integration

 PROGRAM * RKS-SCF (Restricted closed shell Kohn-Sham)     Authors: W. Meyer, H.-J. Werner, P.J. Knowles, 1993

 NUMBER OF ELECTRONS:      14+   14-    SPACE SYMMETRY=1    SPIN SYMMETRY: Singlet 
 CONVERGENCE THRESHOLDS:    1.00E-04 (Density)    1.00E-08 (Energy)
 INTEGRAL THRESHOLDS:       1.00E-11 (Initial)    1.00E-11 (Final)
 MAX. NUMBER OF ITERATIONS:       60
 INTERPOLATION TYPE:            DIIS
 INTERPOLATION STEPS:              2 (START)      1 (STEP)
 LEVEL SHIFTS:                  0.00 (CLOSED)  0.00 (OPEN) 



 Use fine grid record 1800.2 for energy threshold  1.0D-08
 Orbital guess generated from atomic densities. Full valence occupancy:   21

 Molecular orbital dump at record        2101.2

 Initial occupancy:  14

 Direct Fock-matrix evaluation.        Authors: Roland Lindh & Martin Schuetz (1993/96)

 Integral Threshold:                  0.1D-10
 Threshold for writing integrals:     0.1D-06
 Prescreening on density matrix:        ON 
 Calculation will be performed fully direct        

 ITERATION   DDIFF            GRAD            ENERGY        2-EL.EN.            DIPOLE MOMENTS         DIIS   CPU(IT)  CPU(TOT)
    1      0.000D+00      0.000D+00      -191.85608435    363.769573    1.33736    0.04639    0.45758    0    119.4    127.4     start
    2      0.000D+00      0.563D-02      -191.27326874    328.566168    0.35471   -0.34000   -0.43227    1    116.9    244.4     diag
    3      0.856D-02      0.116D-01      -192.02172996    352.550408    1.13031    0.07732    0.21349    2    118.5    362.9     diag
    4      0.617D-02      0.130D-02      -192.03012443    352.763233    1.05958   -0.04169    0.21548    3    112.0    474.9     diag
    5      0.101D-02      0.556D-03      -192.03179996    352.063812    1.05014    0.00805    0.23218    4    110.5    585.4     diag
    6      0.365D-03      0.160D-03      -192.03190115    352.199010    1.05677   -0.01026    0.21377    5    106.4    691.9     diag
    7      0.949D-04      0.835D-04      -192.03193426    352.201864    1.05625   -0.00405    0.21831    6    103.5    795.3     diag
    8      0.390D-04      0.113D-04      -192.03193493    352.214558    1.05693   -0.00427    0.21844    7     97.7    893.0     diag
    9      0.516D-05      0.138D-05      -192.03193494    352.215469    1.05700   -0.00397    0.21866    8     87.0    980.0     diag
   10      0.832D-06      0.346D-06      -192.03193494    352.215245    1.05693   -0.00410    0.21856    0     79.3   1059.4     orth

 Final occupancy:  14

 !RKS STATE  1.1 Energy              -192.031934937366
 Nuclear energy                        82.61560115
 One-electron energy                 -426.12246451
 Two-electron energy                  176.10762250
 Density functional                   -24.63269408     PBEX=-23.72105396 PBEC= -0.91164013
 Virial quotient                       -1.00328151
 !RKS STATE  1.1 Dipole moment          1.05693404    -0.00409975     0.21856091
 Dipole moment /Debye                   2.68628242    -0.01041984     0.55549004

 Orbital energies:

         1.1          2.1          3.1          4.1          5.1          6.1          7.1          8.1          9.1         10.1
    -18.780208   -18.710822    -9.934648    -0.967258    -0.891736    -0.638835    -0.489437    -0.454432    -0.406444    -0.398143

        11.1         12.1         13.1         14.1         15.1         16.1
     -0.330737    -0.300603    -0.257709    -0.232354    -0.035203    -0.006762


 HOMO     14.1    -0.232354 =      -6.3227eV
 LUMO     15.1    -0.035203 =      -0.9579eV
 LUMO-HOMO         0.197150 =       5.3647eV


 **********************************************************************************************************************************
 DATASETS  * FILE   NREC   LENGTH (MB)   RECORD NAMES
              1      19       39.85       500      610      700      900      950      970     1000      129      960     1100   
                                          VAR    BASINP    GEOM    SYMINP    ZMAT    AOBASIS   BASIS     P2S    ABASIS      S 
                                         1400     1410     1200     1210     1080     1600     1650     1700     1800   
                                           T        V       H0       H01     AOSYM     SMH    MOLCAS    OPER     GRID   

              2       5        8.32       700     1000      520     1800     2101   
                                         GEOM     BASIS   MCVARS    GRID      RKS  

 PROGRAMS   *        TOTAL   RKS-SCF       INT
 CPU TIMES  *      1060.85   1060.03      0.64
 REAL TIME  *      1065.62 SEC
 DISK USED  *        66.43 MB (local),      265.72 MB (total)
 SF USED    *         3.20 MB
 GA USED    *         2.72 MB       (max)       2.72 MB       (current)
 **********************************************************************************************************************************
 SETTING EAB_PBE        =      -192.03193494  AU                              

 Dummy atoms: O2  H3  C1  H4  H5  H6


 Recomputing one-electron integrals since nuclear charges changed


 PROGRAM * SEWARD (Integral evaluation for generally contracted gaussian basis sets)     Author: Roland Lindh, 1990

 Geometry written to block  1 of record 700


 Point group  C1  



 ATOMIC COORDINATES

 NR  ATOM    CHARGE       X              Y              Z

   1  O1      8.00   -0.992729436   -0.096321389   -0.594350729
   2  H1      1.00   -1.780134544    1.413329251    0.021264740
   3  H2      1.00    0.762875870    0.112979130   -0.139024067
   4  O2      0.00    3.905772766    0.089509092    0.099907669
   5  H3      0.00    4.601159522   -0.991560522    1.380250649
   6  C1      0.00    4.784504996   -0.801742282   -2.285227374
   7  H4      0.00    3.970378677    0.428646476   -3.708406636
   8  H5      0.00    6.836678946   -0.705757686   -2.425656566
   9  H6      0.00    4.164027373   -2.729016314   -2.661435249

 Bond lengths in Bohr (Angstrom)

 1-2  1.810534248  1-3  1.825726996  4-5  1.814263596  4-6  2.693579128  6-7  2.049901795
     ( 0.958093464)     ( 0.966133120)     ( 0.960066950)     ( 1.425380690)     ( 1.084761314)

 6-8  2.059211335  6-9  2.059346994
     ( 1.089687711)     ( 1.089759498)

 Bond angles

  2-1-3  103.75741034   4-6-7  106.65459099   4-6-8  111.72059382   4-6-9  111.90879545

  5-4-6  107.61952492   7-6-8  108.69153234   7-6-9  108.37480423   8-6-9  109.35579191

 NUCLEAR CHARGE:                   10
 NUMBER OF PRIMITIVE AOS:         696
 NUMBER OF SYMMETRY AOS:          567
 NUMBER OF CONTRACTIONS:          516   (  516A   )
 NUMBER OF CORE ORBITALS:           1   (    1A   )
 NUMBER OF VALENCE ORBITALS:        6   (    6A   )

 MOLECULE CHANGED: INITIALIZING OCCUPATION AND DUMP RECORDS


 NUCLEAR REPULSION ENERGY    9.14996834


 Eigenvalues of metric

         1 0.120E-04 0.153E-04 0.202E-04 0.254E-04 0.364E-04 0.440E-04 0.461E-04 0.562E-04


 OPERATOR DM      FOR CENTER  0  COORDINATES:    0.000000    0.000000    0.000000


 **********************************************************************************************************************************
 DATASETS  * FILE   NREC   LENGTH (MB)   RECORD NAMES
              1      19       39.85       500      610      700      900      950      970     1000      129      960     1100   
                                          VAR    BASINP    GEOM    SYMINP    ZMAT    AOBASIS   BASIS     P2S    ABASIS      S 
                                         1400     1410     1200     1210     1080     1600     1650     1700     1800   
                                           T        V       H0       H01     AOSYM     SMH    MOLCAS    OPER     GRID   

              2       5        8.32       700     1000      520     1800     2101   
                                         GEOM     BASIS   MCVARS    GRID      RKS  

 PROGRAMS   *        TOTAL       INT   RKS-SCF       INT
 CPU TIMES  *      1061.19      0.32   1060.03      0.64
 REAL TIME  *      1066.06 SEC
 DISK USED  *        66.43 MB (local),      265.72 MB (total)
 SF USED    *         3.20 MB
 GA USED    *         2.72 MB       (max)       2.72 MB       (current)
 **********************************************************************************************************************************

 Density functional group PBE=PBEX+PBEC
 Functional: PBEX(Automatically generated (new) PBEX)                          Gradient terms: 1
 Functional: PBEC(Automatically generated (new) PBEC)                          Gradient terms: 1
 Use libxcgrid:  F
 Use grid at  1800.2

 Functional: PBEX                      Factor:  1.0000
 Functional: PBEC                      Factor:  1.0000

 Generated new metagrid on record  1800.2 with target accuracy 1.0D-08 and 82896 points in CPU time    0.3
 Computed new grid on record 1800.1 in CPU time    0.3
  416226 words reserved for DFT integration

 PROGRAM * RKS-SCF (Restricted closed shell Kohn-Sham)     Authors: W. Meyer, H.-J. Werner, P.J. Knowles, 1993

 NUMBER OF ELECTRONS:       5+    5-    SPACE SYMMETRY=1    SPIN SYMMETRY: Singlet 
 CONVERGENCE THRESHOLDS:    1.00E-04 (Density)    1.00E-08 (Energy)
 INTEGRAL THRESHOLDS:       1.00E-11 (Initial)    1.00E-11 (Final)
 MAX. NUMBER OF ITERATIONS:       60
 INTERPOLATION TYPE:            DIIS
 INTERPOLATION STEPS:              2 (START)      1 (STEP)
 LEVEL SHIFTS:                  0.00 (CLOSED)  0.00 (OPEN) 



 Use fine grid record 1800.2 for energy threshold  1.0D-08
 Orbital guess generated from atomic densities. Full valence occupancy:    7

 Molecular orbital dump at record        2201.2

 Initial occupancy:   5

 Direct Fock-matrix evaluation.        Authors: Roland Lindh & Martin Schuetz (1993/96)

 Integral Threshold:                  0.1D-10
 Threshold for writing integrals:     0.1D-06
 Prescreening on density matrix:        ON 
 Calculation will be performed fully direct        

 ITERATION   DDIFF            GRAD            ENERGY        2-EL.EN.            DIPOLE MOMENTS         DIIS   CPU(IT)  CPU(TOT)
    1      0.000D+00      0.000D+00       -76.30046339     98.194198    0.47893    0.84406    0.52659    0    115.6    123.3     start
    2      0.000D+00      0.684D-02       -75.91148397     81.773486   -0.21866   -0.34537   -0.21781    1    114.1    237.4     diag
    3      0.550D-02      0.155D-01       -76.38594516     93.592454    0.31865    0.56744    0.35334    2    113.8    351.2     diag
    4      0.393D-02      0.409D-03       -76.38636678     93.188405    0.30488    0.54462    0.33894    3    108.1    459.3     diag
    5      0.169D-03      0.898D-04       -76.38638031     93.238686    0.30436    0.54342    0.33823    4    100.2    559.5     diag
    6      0.208D-04      0.203D-04       -76.38638111     93.249585    0.30537    0.54520    0.33934    5     91.2    650.7     diag
    7      0.496D-05      0.820D-06       -76.38638111     93.249573    0.30532    0.54512    0.33928    6     71.0    721.7     diag
    8      0.199D-06      0.665D-07       -76.38638111     93.249679    0.30533    0.54513    0.33929    0     46.8    768.5     orth

 Final occupancy:   5

 !RKS STATE  1.1 Energy               -76.386381112255
 Nuclear energy                         9.14996834
 One-electron energy                 -122.92292795
 Two-electron energy                   46.62483948
 Density functional                    -9.23826098     PBEX=-8.91387093 PBEC=-0.32439005
 Virial quotient                       -1.00347761
 !RKS STATE  1.1 Dipole moment          0.30532501     0.54512856     0.33929033
 Dipole moment /Debye                   0.77600794     1.38548785     0.86233351

 Orbital energies:

         1.1          2.1          3.1          4.1          5.1          6.1          7.1
    -18.754188    -0.930985    -0.482512    -0.344336    -0.266312    -0.034838     0.013785


 HOMO      5.1    -0.266312 =      -7.2467eV
 LUMO      6.1    -0.034838 =      -0.9480eV
 LUMO-HOMO         0.231474 =       6.2987eV


 **********************************************************************************************************************************
 DATASETS  * FILE   NREC   LENGTH (MB)   RECORD NAMES
              1      19       39.85       500      610      700      900      950      970     1000      129      960     1100   
                                          VAR    BASINP    GEOM    SYMINP    ZMAT    AOBASIS   BASIS     P2S    ABASIS      S 
                                         1400     1410     1200     1210     1080     1600     1650     1700     1800   
                                           T        V       H0       H01     AOSYM     SMH    MOLCAS    OPER     GRID   

              2       6       21.49       700     1000      520     1800     2101     2201   
                                         GEOM     BASIS   MCVARS    GRID      RKS      RKS  

 PROGRAMS   *        TOTAL   RKS-SCF       INT   RKS-SCF       INT
 CPU TIMES  *      1830.36    769.16      0.32   1060.03      0.64
 REAL TIME  *      1836.96 SEC
 DISK USED  *        77.47 MB (local),      309.88 MB (total)
 SF USED    *         3.20 MB
 GA USED    *         2.72 MB       (max)       2.72 MB       (current)
 **********************************************************************************************************************************
 SETTING EA_PBE         =       -76.38638111  AU                              

 Dummy atoms: O1  H1  H2


 Recomputing one-electron integrals since nuclear charges changed


 PROGRAM * SEWARD (Integral evaluation for generally contracted gaussian basis sets)     Author: Roland Lindh, 1990

 Geometry written to block  1 of record 700


 Point group  C1  



 ATOMIC COORDINATES

 NR  ATOM    CHARGE       X              Y              Z

   1  O1      0.00   -0.992729436   -0.096321389   -0.594350729
   2  H1      0.00   -1.780134544    1.413329251    0.021264740
   3  H2      0.00    0.762875870    0.112979130   -0.139024067
   4  O2      8.00    3.905772766    0.089509092    0.099907669
   5  H3      1.00    4.601159522   -0.991560522    1.380250649
   6  C1      6.00    4.784504996   -0.801742282   -2.285227374
   7  H4      1.00    3.970378677    0.428646476   -3.708406636
   8  H5      1.00    6.836678946   -0.705757686   -2.425656566
   9  H6      1.00    4.164027373   -2.729016314   -2.661435249

 Bond lengths in Bohr (Angstrom)

 1-2  1.810534248  1-3  1.825726996  4-5  1.814263596  4-6  2.693579128  6-7  2.049901795
     ( 0.958093464)     ( 0.966133120)     ( 0.960066950)     ( 1.425380690)     ( 1.084761314)

 6-8  2.059211335  6-9  2.059346994
     ( 1.089687711)     ( 1.089759498)

 Bond angles

  2-1-3  103.75741034   4-6-7  106.65459099   4-6-8  111.72059382   4-6-9  111.90879545

  5-4-6  107.61952492   7-6-8  108.69153234   7-6-9  108.37480423   8-6-9  109.35579191

 NUCLEAR CHARGE:                   18
 NUMBER OF PRIMITIVE AOS:         696
 NUMBER OF SYMMETRY AOS:          567
 NUMBER OF CONTRACTIONS:          516   (  516A   )
 NUMBER OF CORE ORBITALS:           2   (    2A   )
 NUMBER OF VALENCE ORBITALS:       12   (   12A   )

 MOLECULE CHANGED: INITIALIZING OCCUPATION AND DUMP RECORDS


 NUCLEAR REPULSION ENERGY   40.29463209


 Eigenvalues of metric

         1 0.120E-04 0.153E-04 0.202E-04 0.254E-04 0.364E-04 0.440E-04 0.461E-04 0.562E-04


 OPERATOR DM      FOR CENTER  0  COORDINATES:    0.000000    0.000000    0.000000


 **********************************************************************************************************************************
 DATASETS  * FILE   NREC   LENGTH (MB)   RECORD NAMES
              1      19       39.85       500      610      700      900      950      970     1000      129      960     1100   
                                          VAR    BASINP    GEOM    SYMINP    ZMAT    AOBASIS   BASIS     P2S    ABASIS      S 
                                         1400     1410     1200     1210     1080     1600     1650     1700     1800   
                                           T        V       H0       H01     AOSYM     SMH    MOLCAS    OPER     GRID   

              2       6       21.49       700     1000      520     1800     2101     2201   
                                         GEOM     BASIS   MCVARS    GRID      RKS      RKS  

 PROGRAMS   *        TOTAL       INT   RKS-SCF       INT   RKS-SCF       INT
 CPU TIMES  *      1830.72      0.35    769.16      0.32   1060.03      0.64
 REAL TIME  *      1837.41 SEC
 DISK USED  *        77.47 MB (local),      309.88 MB (total)
 SF USED    *         3.20 MB
 GA USED    *         2.72 MB       (max)       2.72 MB       (current)
 **********************************************************************************************************************************

 Density functional group PBE=PBEX+PBEC
 Functional: PBEX(Automatically generated (new) PBEX)                          Gradient terms: 1
 Functional: PBEC(Automatically generated (new) PBEC)                          Gradient terms: 1
 Use libxcgrid:  F
 Use grid at  1800.2

 Functional: PBEX                      Factor:  1.0000
 Functional: PBEC                      Factor:  1.0000

 Generated new metagrid on record  1800.2 with target accuracy 1.0D-08 and 82896 points in CPU time    0.3
 Computed new grid on record 1800.1 in CPU time    0.3
  416226 words reserved for DFT integration

 PROGRAM * RKS-SCF (Restricted closed shell Kohn-Sham)     Authors: W. Meyer, H.-J. Werner, P.J. Knowles, 1993

 NUMBER OF ELECTRONS:       9+    9-    SPACE SYMMETRY=1    SPIN SYMMETRY: Singlet 
 CONVERGENCE THRESHOLDS:    1.00E-04 (Density)    1.00E-08 (Energy)
 INTEGRAL THRESHOLDS:       1.00E-11 (Initial)    1.00E-11 (Final)
 MAX. NUMBER OF ITERATIONS:       60
 INTERPOLATION TYPE:            DIIS
 INTERPOLATION STEPS:              2 (START)      1 (STEP)
 LEVEL SHIFTS:                  0.00 (CLOSED)  0.00 (OPEN) 



 Use fine grid record 1800.2 for energy threshold  1.0D-08
 Orbital guess generated from atomic densities. Full valence occupancy:   14

 Molecular orbital dump at record        2301.2

 Initial occupancy:   9

 Direct Fock-matrix evaluation.        Authors: Roland Lindh & Martin Schuetz (1993/96)

 Integral Threshold:                  0.1D-10
 Threshold for writing integrals:     0.1D-06
 Prescreening on density matrix:        ON 
 Calculation will be performed fully direct        

 ITERATION   DDIFF            GRAD            ENERGY        2-EL.EN.            DIPOLE MOMENTS         DIIS   CPU(IT)  CPU(TOT)
    1      0.000D+00      0.000D+00      -115.53752373    199.679680    0.59785   -0.79044   -0.08576    0    118.4    126.7     start
    2      0.000D+00      0.499D-02      -115.29095698    179.613886   -0.14905    0.20800   -0.03742    1    115.9    242.6     diag
    3      0.657D-02      0.956D-02      -115.63241673    193.052337    0.44002   -0.56949   -0.16479    2    114.6    357.2     diag
    4      0.459D-02      0.138D-02      -115.63863857    192.830012    0.37333   -0.49177   -0.06789    3    110.6    467.8     diag
    5      0.736D-03      0.423D-03      -115.63926884    192.655928    0.37684   -0.49480   -0.08034    4    108.1    575.9     diag
    6      0.209D-03      0.709D-04      -115.63928578    192.686779    0.37768   -0.49566   -0.08308    5    103.1    678.9     diag
    7      0.288D-04      0.999D-05      -115.63928615    192.698329    0.37856   -0.49680   -0.08327    6     94.1    773.1     diag
    8      0.472D-05      0.806D-06      -115.63928615    192.698196    0.37839   -0.49658   -0.08325    7     79.4    852.4     diag
    9      0.591D-06      0.210D-06      -115.63928615    192.698082    0.37845   -0.49667   -0.08323    0     72.0    924.5     orth

 Final occupancy:   9

 !RKS STATE  1.1 Energy              -115.639286148746
 Nuclear energy                        40.29463209
 One-electron energy                 -236.91947183
 Two-electron energy                   96.34904081
 Density functional                   -15.36348722     PBEX=-14.78276975 PBEC= -0.58071747
 Virial quotient                       -1.00379163
 !RKS STATE  1.1 Dipole moment          0.37845401    -0.49666585    -0.08323390
 Dipole moment /Debye                   0.96187115    -1.26231598    -0.21154561

 Orbital energies:

         1.1          2.1          3.1          4.1          5.1          6.1          7.1          8.1          9.1         10.1
    -18.750173    -9.920290    -0.935054    -0.620801    -0.459771    -0.392835    -0.381085    -0.295636    -0.231742    -0.024473

        11.1
     -0.001930


 HOMO      9.1    -0.231742 =      -6.3060eV
 LUMO     10.1    -0.024473 =      -0.6659eV
 LUMO-HOMO         0.207269 =       5.6401eV


 **********************************************************************************************************************************
 DATASETS  * FILE   NREC   LENGTH (MB)   RECORD NAMES
              1      19       39.85       500      610      700      900      950      970     1000      129      960     1100   
                                          VAR    BASINP    GEOM    SYMINP    ZMAT    AOBASIS   BASIS     P2S    ABASIS      S 
                                         1400     1410     1200     1210     1080     1600     1650     1700     1800   
                                           T        V       H0       H01     AOSYM     SMH    MOLCAS    OPER     GRID   

              2       7       34.66       700     1000      520     1800     2101     2201     2301   
                                         GEOM     BASIS   MCVARS    GRID      RKS      RKS      RKS  

 PROGRAMS   *        TOTAL   RKS-SCF       INT   RKS-SCF       INT   RKS-SCF       INT
 CPU TIMES  *      2755.80    925.08      0.35    769.16      0.32   1060.03      0.64
 REAL TIME  *      2764.85 SEC
 DISK USED  *        91.71 MB (local),      366.84 MB (total)
 SF USED    *         3.20 MB
 GA USED    *         2.72 MB       (max)       2.72 MB       (current)
 **********************************************************************************************************************************
 SETTING EB_PBE         =      -115.63928615  AU                              
 SETTING E_AB_INT       =        -0.00626768  AU                              

 *** results in hartree
 E_AB_INT         =        -0.00626768 AU
 Molecular orbitals read from record     2301.2  Type=RKS/CANONICAL (state 1.1)
 Occupation numbers read from record     2301.2  Type=RKS/RHF (state 1.1)
 Orbital energies read from record       2301.2  Type=RKS/CANONICAL (state 1.1)
 Redundancy group numbers read from rec  2301.2  Type=RKS/RHF (state 1.1)

 RPBE/aug-cc-pVQZ energy=   -115.639286148746

         RKS-SCF         RKS-SCF         RKS-SCF
   -115.63928615    -76.38638111   -192.03193494
 **********************************************************************************************************************************
 Molpro calculation terminated
