
 Primary working directories    : /scratch/sirous/753820/molpro.h8bUKgfa33
 Secondary working directories  : /scratch/sirous/753820/molpro.h8bUKgfa33
 Wavefunction directory         : /scratch/sirous/753820/
 Main file repository           : /scratch/sirous/753820/molpro.h8bUKgfa33/

 id        : karlovklimes

 Nodes                      nprocs
 nc-16.cc.karlov.mff.cuni.cz    4

 Using customized tuning parameters: mindgm=1; mindgv=20; mindgc=4; mindgr=1; noblas=0; minvec=7
 default implementation of scratch files=sf  


 Variables initialized (934), CPU time= 0.00 sec
 ***,CH3C6H4CN+CF3CN+BF3
 memory,1000,m
 gdirect
 gthresh,energy=1.d-8,twoint=1.d-19,oneint=1.d-19,zero=1.d-15,orbital=1.d-8,grid=1.d-8,THROVL=1.d-8
 symmetry,nosym
 geomtyp=xyz
                                                                                 ! Geometry
 geometry={
 H1        0.02970387    3.98137746     -0.78501207
 H2        0.01365177    4.05327352     0.72944182
 C1        0.00000000    0.08825600     0.00000000
 O1        0.00000000    1.22720600     0.00000000
 O2        0.00000000    3.42720600     0.00000000
 }
 
 
 
 basis=avtz
 
 
 
                                                                                 ! Dimer Calculation
 {rks,pbe,accu=1.d-8;orbital,2101.2}
 eab_PBE=energy
 
 
                                                                                 !monomer A
 dummy,3,4;                                                                      ! NOW MONOMER B IS DUMMY
 {rks,pbe,accu=1.d-8;orbital,2201.2}
 ea_PBE=energy
                                                                                 !monomer B
 dummy,1,2,5;                                                                    !NOW MONOMER A IS DUMMY
 {rks,pbe,accu=1.d-8;orbital,2301.2}
 eb_PBE=energy
 
 E_AB_int=eab_PBE-ea_PBE-eb_PBE
 
 
 text,results in hartree
 show,E_AB_int
 
 Commands  initialized (763), CPU time= 0.00 sec, 617 directives.
 Default parameters read. Elapsed time= 0.47 sec

 Checking input...
 Passed
1


                                         ***  PROGRAM SYSTEM MOLPRO  ***
                                       Copyright, TTI GmbH Stuttgart, 2015
                                    Version 2019.2 linked Jun  8 2019 11:26:33


 **********************************************************************************************************************************
 LABEL *   CH3C6H4CN+CF3CN+BF3                                                           
  64 bit mpp version                                                                     DATE: 23-Jul-20          TIME: 10:08:40  
 **********************************************************************************************************************************

 SHA1:             8135a10abc80eafa5b3ae28ffc55be4890dc4c84
 **********************************************************************************************************************************

 THRESHOLDS:

 ZERO    =  1.00D-15  ONEINT  =  1.00D-19  TWOINT  =  1.00D-19  PREFAC  =  1.00D-14  XXXXXX  =  1.00D-09  EORDER  =  1.00D-04
 ENERGY  =  1.00D-08  ETEST   =  0.00D+00  EDENS   =  0.00D+00  THRDEDEF=  1.00D-06  GRADIENT=  1.00D-02  STEP    =  1.00D-03
 ORBITAL =  1.00D-08  CIVEC   =  1.00D-05  COEFF   =  1.00D-04  PRINTCI =  5.00D-02  PUNCHCI =  9.90D+01  OPTGRAD =  3.00D-04
 OPTENERG=  1.00D-06  OPTSTEP =  3.00D-04  THRGRAD =  1.00D-10  COMPRESS=  1.00D-11  VARMIN  =  1.00D-07  VARMAX  =  1.00D-03
 THRDOUB =  0.00D+00  THRDIV  =  1.00D-05  THRRED  =  1.00D-07  THRPSP  =  1.00D+00  THRDC   =  1.00D-10  THRCS   =  1.00D-10
 THRNRM  =  1.00D-08  THREQ   =  0.00D+00  THRDE   =  1.00D+00  THRREF  =  1.00D-05  SPARFAC =  1.00D+00  THRDLP  =  1.00D-07
 THRDIA  =  1.00D-10  THRDLS  =  1.00D-07  THRGPS  =  0.00D+00  THRKEX  =  0.00D+00  THRDIS  =  2.00D-01  THRVAR  =  1.00D-10
 THRLOC  =  1.00D-06  THRGAP  =  1.00D-06  THRLOCT = -1.00D+00  THRGAPT = -1.00D+00  THRORB  =  1.00D-06  THRMLTP =  0.00D+00
 THRCPQCI=  1.00D-10  KEXTA   =  0.00D+00  THRCOARS=  0.00D+00  SYMTOL  =  1.00D-06  GRADTOL =  1.00D-06  THROVL  =  1.00D-08
 THRORTH =  1.00D-08  GRID    =  1.00D-08  GRIDMAX =  1.00D-03  DTMAX   =  0.00D+00  THROCCDE=  1.00D-01  THROCCDE=  1.00D-01
 THRPRINT=  2.50D-01


 Variable memory set to 1000000000 words,  buffer space 

 SETTING GEOMTYP        =    XYZ
 ZSYMEL=NOSYM

 SETTING BASIS          =    AVTZ


 Recomputing integrals since basis changed


 Using spherical harmonics

 Library entry H      S aug-cc-pVTZ          selected for orbital group  1
 Library entry H      P aug-cc-pVTZ          selected for orbital group  1
 Library entry H      D aug-cc-pVTZ          selected for orbital group  1
 Library entry C      S aug-cc-pVTZ          selected for orbital group  2
 Library entry C      P aug-cc-pVTZ          selected for orbital group  2
 Library entry C      D aug-cc-pVTZ          selected for orbital group  2
 Library entry C      F aug-cc-pVTZ          selected for orbital group  2
 Library entry O      S aug-cc-pVTZ          selected for orbital group  3
 Library entry O      P aug-cc-pVTZ          selected for orbital group  3
 Library entry O      D aug-cc-pVTZ          selected for orbital group  3
 Library entry O      F aug-cc-pVTZ          selected for orbital group  3


 PROGRAM * SEWARD (Integral evaluation for generally contracted gaussian basis sets)     Author: Roland Lindh, 1990

 Geometry written to block  1 of record 700


 Point group  C1  



 ATOMIC COORDINATES

 NR  ATOM    CHARGE       X              Y              Z

   1  H1      1.00    0.056132179    7.523712998   -1.483457817
   2  H2      1.00    0.025798106    7.659576861    1.378445264
   3  C1      6.00    0.000000000    0.166779669    0.000000000
   4  O1      8.00    0.000000000    2.319083238    0.000000000
   5  O2      8.00    0.000000000    6.476480712    0.000000000

 Bond lengths in Bohr (Angstrom)

 1-5  1.816726004  2-5  1.816726007  3-4  2.152303570
     ( 0.961370000)     ( 0.961370001)     ( 1.138950000)

 Bond angles

  1-5-2  104.10700007

 NUCLEAR CHARGE:                   24
 NUMBER OF PRIMITIVE AOS:         255
 NUMBER OF SYMMETRY AOS:          224
 NUMBER OF CONTRACTIONS:          184   (  184A   )
 NUMBER OF CORE ORBITALS:           3   (    3A   )
 NUMBER OF VALENCE ORBITALS:       14   (   14A   )


 NUCLEAR REPULSION ENERGY   58.97489213


 Eigenvalues of metric

         1 0.158E-03 0.260E-03 0.362E-03 0.496E-03 0.143E-02 0.149E-02 0.195E-02 0.196E-02


 OPERATOR DM      FOR CENTER  0  COORDINATES:    0.000000    0.000000    0.000000


 **********************************************************************************************************************************
 DATASETS  * FILE   NREC   LENGTH (MB)   RECORD NAMES
              1      18       31.29       500      610      700      900      950      970     1000      129      960     1100   
                                          VAR    BASINP    GEOM    SYMINP    ZMAT    AOBASIS   BASIS     P2S    ABASIS      S 
                                         1400     1410     1200     1210     1080     1600     1650     1700   
                                           T        V       H0       H01     AOSYM     SMH    MOLCAS    OPER   

 PROGRAMS   *        TOTAL       INT
 CPU TIMES  *         0.46      0.31
 REAL TIME  *         2.25 SEC
 DISK USED  *        31.68 MB (local),      126.70 MB (total)
 GA USED    *         0.00 MB       (max)       0.00 MB       (current)
 **********************************************************************************************************************************

 Density functional group PBE=PBEX+PBEC
 Functional: PBEX(Automatically generated (new) PBEX)                          Gradient terms: 1
 Functional: PBEC(Automatically generated (new) PBEC)                          Gradient terms: 1
 Use libxcgrid:  F
 Use grid at  1800.2

 Functional: PBEX                      Factor:  1.0000
 Functional: PBEC                      Factor:  1.0000

 Generated new metagrid on record  1800.2 with target accuracy 1.0D-08 and 52708 points in CPU time    0.2
 Computed new grid on record 1800.1 in CPU time    0.2
  150556 words reserved for DFT integration

 PROGRAM * RKS-SCF (Restricted closed shell Kohn-Sham)     Authors: W. Meyer, H.-J. Werner, P.J. Knowles, 1993

 NUMBER OF ELECTRONS:      12+   12-    SPACE SYMMETRY=1    SPIN SYMMETRY: Singlet 
 CONVERGENCE THRESHOLDS:    1.00E-04 (Density)    1.00E-08 (Energy)
 INTEGRAL THRESHOLDS:       1.00E-11 (Initial)    1.00E-11 (Final)
 MAX. NUMBER OF ITERATIONS:       60
 INTERPOLATION TYPE:            DIIS
 INTERPOLATION STEPS:              2 (START)      1 (STEP)
 LEVEL SHIFTS:                  0.00 (CLOSED)  0.00 (OPEN) 



 Use fine grid record 1800.2 for energy threshold  1.0D-08
 Orbital guess generated from atomic densities. Full valence occupancy:   17

 Molecular orbital dump at record        2101.2

 Initial occupancy:  12

 Direct Fock-matrix evaluation.        Authors: Roland Lindh & Martin Schuetz (1993/96)

 Integral Threshold:                  0.1D-10
 Threshold for writing integrals:     0.1D-06
 Prescreening on density matrix:        ON 
 Calculation will be performed fully direct        

 ITERATION   DDIFF            GRAD            ENERGY        2-EL.EN.            DIPOLE MOMENTS         DIIS   CPU(IT)  CPU(TOT)
    1      0.000D+00      0.000D+00      -189.48187729    309.556655    0.04022    1.02344   -0.05155    0      7.6     13.0     start
    2      0.000D+00      0.868D-02      -188.85705807    281.891149   -0.01429    0.76719    0.03780    1      4.4     17.4     diag
    3      0.195D-01      0.216D-01      -189.57222664    302.077247    0.02565    0.43790   -0.02939    2      4.2     21.7     diag
    4      0.148D-01      0.341D-02      -189.58555600    301.077847    0.02759    1.10392   -0.03261    3      4.9     26.6     diag
    5      0.343D-02      0.221D-02      -189.59233435    301.301927    0.02550    0.87964   -0.02990    4      5.4     31.9     diag
    6      0.134D-02      0.351D-03      -189.59255416    301.189329    0.02552    0.85807   -0.02965    5      6.0     37.9     diag
    7      0.321D-03      0.661D-04      -189.59256140    301.248445    0.02562    0.85385   -0.02982    6      6.0     43.9     diag
    8      0.417D-04      0.484D-05      -189.59256143    301.248490    0.02562    0.85454   -0.02980    7      6.0     49.9     diag
    9      0.307D-05      0.106D-05      -189.59256142    301.250197    0.02562    0.85406   -0.02983    0      6.4     56.2     orth

 Final occupancy:  12

 !RKS STATE  1.1 Energy              -189.592561419549
 Nuclear energy                        58.97489213
 One-electron energy                 -376.19288202
 Two-electron energy                  150.62509866
 Density functional                   -22.99967019     PBEX=-22.22204356 PBEC= -0.77762663
 Virial quotient                       -1.00480480
 !RKS STATE  1.1 Dipole moment          0.02562358     0.85405667    -0.02982559
 Dipole moment /Debye                   0.06512437     2.17065335    -0.07580412

 Orbital energies:

         1.1          2.1          3.1          4.1          5.1          6.1          7.1          8.1          9.1         10.1
    -18.834868   -18.754179    -9.979401    -1.048394    -0.930823    -0.502084    -0.482602    -0.408871    -0.408729    -0.339422

        11.1         12.1         13.1         14.1
     -0.298632    -0.265426    -0.057534    -0.056462


 HOMO     12.1    -0.265426 =      -7.2226eV
 LUMO     13.1    -0.057534 =      -1.5656eV
 LUMO-HOMO         0.207892 =       5.6570eV


 **********************************************************************************************************************************
 DATASETS  * FILE   NREC   LENGTH (MB)   RECORD NAMES
              1      19       31.29       500      610      700      900      950      970     1000      129      960     1100   
                                          VAR    BASINP    GEOM    SYMINP    ZMAT    AOBASIS   BASIS     P2S    ABASIS      S 
                                         1400     1410     1200     1210     1080     1600     1650     1700     1800   
                                           T        V       H0       H01     AOSYM     SMH    MOLCAS    OPER     GRID   

              2       5        3.52       700     1000      520     1800     2101   
                                         GEOM     BASIS   MCVARS    GRID      RKS  

 PROGRAMS   *        TOTAL   RKS-SCF       INT
 CPU TIMES  *        56.94     56.47      0.31
 REAL TIME  *        67.87 SEC
 DISK USED  *        37.06 MB (local),      148.24 MB (total)
 SF USED    *         0.41 MB
 GA USED    *         1.75 MB       (max)       1.75 MB       (current)
 **********************************************************************************************************************************
 SETTING EAB_PBE        =      -189.59256142  AU                              

 Dummy atoms: C1  O1


 Recomputing one-electron integrals since nuclear charges changed


 PROGRAM * SEWARD (Integral evaluation for generally contracted gaussian basis sets)     Author: Roland Lindh, 1990

 Geometry written to block  1 of record 700


 Point group  C1  



 ATOMIC COORDINATES

 NR  ATOM    CHARGE       X              Y              Z

   1  H1      1.00    0.056132179    7.523712998   -1.483457817
   2  H2      1.00    0.025798106    7.659576861    1.378445264
   3  C1      0.00    0.000000000    0.166779669    0.000000000
   4  O1      0.00    0.000000000    2.319083238    0.000000000
   5  O2      8.00    0.000000000    6.476480712    0.000000000

 Bond lengths in Bohr (Angstrom)

 1-5  1.816726004  2-5  1.816726007  3-4  2.152303570
     ( 0.961370000)     ( 0.961370001)     ( 1.138950000)

 Bond angles

  1-5-2  104.10700007

 NUCLEAR CHARGE:                   10
 NUMBER OF PRIMITIVE AOS:         255
 NUMBER OF SYMMETRY AOS:          224
 NUMBER OF CONTRACTIONS:          184   (  184A   )
 NUMBER OF CORE ORBITALS:           1   (    1A   )
 NUMBER OF VALENCE ORBITALS:        6   (    6A   )

 MOLECULE CHANGED: INITIALIZING OCCUPATION AND DUMP RECORDS


 NUCLEAR REPULSION ENERGY    9.15605698


 Eigenvalues of metric

         1 0.158E-03 0.260E-03 0.362E-03 0.496E-03 0.143E-02 0.149E-02 0.195E-02 0.196E-02


 OPERATOR DM      FOR CENTER  0  COORDINATES:    0.000000    0.000000    0.000000


 **********************************************************************************************************************************
 DATASETS  * FILE   NREC   LENGTH (MB)   RECORD NAMES
              1      19       31.29       500      610      700      900      950      970     1000      129      960     1100   
                                          VAR    BASINP    GEOM    SYMINP    ZMAT    AOBASIS   BASIS     P2S    ABASIS      S 
                                         1400     1410     1200     1210     1080     1600     1650     1700     1800   
                                           T        V       H0       H01     AOSYM     SMH    MOLCAS    OPER     GRID   

              2       5        3.52       700     1000      520     1800     2101   
                                         GEOM     BASIS   MCVARS    GRID      RKS  

 PROGRAMS   *        TOTAL       INT   RKS-SCF       INT
 CPU TIMES  *        56.99      0.04     56.47      0.31
 REAL TIME  *        67.94 SEC
 DISK USED  *        37.06 MB (local),      148.24 MB (total)
 SF USED    *         0.41 MB
 GA USED    *         1.75 MB       (max)       1.75 MB       (current)
 **********************************************************************************************************************************

 Density functional group PBE=PBEX+PBEC
 Functional: PBEX(Automatically generated (new) PBEX)                          Gradient terms: 1
 Functional: PBEC(Automatically generated (new) PBEC)                          Gradient terms: 1
 Use libxcgrid:  F
 Use grid at  1800.2

 Functional: PBEX                      Factor:  1.0000
 Functional: PBEC                      Factor:  1.0000

 Generated new metagrid on record  1800.2 with target accuracy 1.0D-08 and 52708 points in CPU time    0.2
 Computed new grid on record 1800.1 in CPU time    0.2
  150556 words reserved for DFT integration

 PROGRAM * RKS-SCF (Restricted closed shell Kohn-Sham)     Authors: W. Meyer, H.-J. Werner, P.J. Knowles, 1993

 NUMBER OF ELECTRONS:       5+    5-    SPACE SYMMETRY=1    SPIN SYMMETRY: Singlet 
 CONVERGENCE THRESHOLDS:    1.00E-04 (Density)    1.00E-08 (Energy)
 INTEGRAL THRESHOLDS:       1.00E-11 (Initial)    1.00E-11 (Final)
 MAX. NUMBER OF ITERATIONS:       60
 INTERPOLATION TYPE:            DIIS
 INTERPOLATION STEPS:              2 (START)      1 (STEP)
 LEVEL SHIFTS:                  0.00 (CLOSED)  0.00 (OPEN) 



 Use fine grid record 1800.2 for energy threshold  1.0D-08
 Orbital guess generated from atomic densities. Full valence occupancy:    7

 Molecular orbital dump at record        2201.2

 Initial occupancy:   5

 Direct Fock-matrix evaluation.        Authors: Roland Lindh & Martin Schuetz (1993/96)

 Integral Threshold:                  0.1D-10
 Threshold for writing integrals:     0.1D-06
 Prescreening on density matrix:        ON 
 Calculation will be performed fully direct        

 ITERATION   DDIFF            GRAD            ENERGY        2-EL.EN.            DIPOLE MOMENTS         DIIS   CPU(IT)  CPU(TOT)
    1      0.000D+00      0.000D+00       -76.29637811     98.100770    0.04020    1.09559   -0.05159    0      9.9     18.4     start
    2      0.000D+00      0.114D-01       -75.92445674     81.991411   -0.01572   -0.41186    0.01908    1      4.9     23.3     diag
    3      0.158D-01      0.257D-01       -76.37985804     93.542362    0.02698    0.73499   -0.03461    2      4.4     27.8     diag
    4      0.110D-01      0.649D-03       -76.38023338     93.158792    0.02596    0.70740   -0.03334    3      4.8     32.6     diag
    5      0.373D-03      0.148D-03       -76.38024640     93.207202    0.02589    0.70568   -0.03325    4      5.2     37.8     diag
    6      0.570D-04      0.346D-04       -76.38024723     93.218573    0.02598    0.70796   -0.03336    5      6.1     43.9     diag
    7      0.151D-04      0.115D-05       -76.38024723     93.218832    0.02598    0.70789   -0.03335    6      6.0     49.9     diag
    8      0.520D-06      0.964D-07       -76.38024723     93.218933    0.02598    0.70791   -0.03335    0      5.9     55.8     orth

 Final occupancy:   5

 !RKS STATE  1.1 Energy               -76.380247232830
 Nuclear energy                         9.15605698
 One-electron energy                 -122.91331932
 Two-electron energy                   46.60946650
 Density functional                    -9.23245139     PBEX=-8.90788610 PBEC=-0.32456529
 Virial quotient                       -1.00551923
 !RKS STATE  1.1 Dipole moment          0.02597655     0.70790972    -0.03335367
 Dipole moment /Debye                   0.06602148     1.79920919    -0.08477101

 Orbital energies:

         1.1          2.1          3.1          4.1          5.1          6.1          7.1
    -18.760306    -0.931711    -0.483387    -0.343691    -0.266183    -0.034624     0.016965


 HOMO      5.1    -0.266183 =      -7.2432eV
 LUMO      6.1    -0.034624 =      -0.9422eV
 LUMO-HOMO         0.231559 =       6.3010eV


 **********************************************************************************************************************************
 DATASETS  * FILE   NREC   LENGTH (MB)   RECORD NAMES
              1      19       31.29       500      610      700      900      950      970     1000      129      960     1100   
                                          VAR    BASINP    GEOM    SYMINP    ZMAT    AOBASIS   BASIS     P2S    ABASIS      S 
                                         1400     1410     1200     1210     1080     1600     1650     1700     1800   
                                           T        V       H0       H01     AOSYM     SMH    MOLCAS    OPER     GRID   

              2       6        7.38       700     1000      520     1800     2101     2201   
                                         GEOM     BASIS   MCVARS    GRID      RKS      RKS  

 PROGRAMS   *        TOTAL   RKS-SCF       INT   RKS-SCF       INT
 CPU TIMES  *       113.02     56.03      0.04     56.47      0.31
 REAL TIME  *       126.00 SEC
 DISK USED  *        40.78 MB (local),      163.10 MB (total)
 SF USED    *         0.41 MB
 GA USED    *         1.75 MB       (max)       1.75 MB       (current)
 **********************************************************************************************************************************
 SETTING EA_PBE         =       -76.38024723  AU                              

 Dummy atoms: H1  H2  O2


 Recomputing one-electron integrals since nuclear charges changed


 PROGRAM * SEWARD (Integral evaluation for generally contracted gaussian basis sets)     Author: Roland Lindh, 1990

 Geometry written to block  1 of record 700


 Point group  C1  



 ATOMIC COORDINATES

 NR  ATOM    CHARGE       X              Y              Z

   1  H1      0.00    0.056132179    7.523712998   -1.483457817
   2  H2      0.00    0.025798106    7.659576861    1.378445264
   3  C1      6.00    0.000000000    0.166779669    0.000000000
   4  O1      8.00    0.000000000    2.319083238    0.000000000
   5  O2      0.00    0.000000000    6.476480712    0.000000000

 Bond lengths in Bohr (Angstrom)

 1-5  1.816726004  2-5  1.816726007  3-4  2.152303570
     ( 0.961370000)     ( 0.961370001)     ( 1.138950000)

 Bond angles

  1-5-2  104.10700007

 NUCLEAR CHARGE:                   14
 NUMBER OF PRIMITIVE AOS:         255
 NUMBER OF SYMMETRY AOS:          224
 NUMBER OF CONTRACTIONS:          184   (  184A   )
 NUMBER OF CORE ORBITALS:           2   (    2A   )
 NUMBER OF VALENCE ORBITALS:        8   (    8A   )

 MOLECULE CHANGED: INITIALIZING OCCUPATION AND DUMP RECORDS


 NUCLEAR REPULSION ENERGY   22.30168675


 Eigenvalues of metric

         1 0.158E-03 0.260E-03 0.362E-03 0.496E-03 0.143E-02 0.149E-02 0.195E-02 0.196E-02


 OPERATOR DM      FOR CENTER  0  COORDINATES:    0.000000    0.000000    0.000000


 **********************************************************************************************************************************
 DATASETS  * FILE   NREC   LENGTH (MB)   RECORD NAMES
              1      19       31.29       500      610      700      900      950      970     1000      129      960     1100   
                                          VAR    BASINP    GEOM    SYMINP    ZMAT    AOBASIS   BASIS     P2S    ABASIS      S 
                                         1400     1410     1200     1210     1080     1600     1650     1700     1800   
                                           T        V       H0       H01     AOSYM     SMH    MOLCAS    OPER     GRID   

              2       6        7.38       700     1000      520     1800     2101     2201   
                                         GEOM     BASIS   MCVARS    GRID      RKS      RKS  

 PROGRAMS   *        TOTAL       INT   RKS-SCF       INT   RKS-SCF       INT
 CPU TIMES  *       113.07      0.05     56.03      0.04     56.47      0.31
 REAL TIME  *       126.07 SEC
 DISK USED  *        40.78 MB (local),      163.10 MB (total)
 SF USED    *         0.41 MB
 GA USED    *         1.75 MB       (max)       1.75 MB       (current)
 **********************************************************************************************************************************

 Density functional group PBE=PBEX+PBEC
 Functional: PBEX(Automatically generated (new) PBEX)                          Gradient terms: 1
 Functional: PBEC(Automatically generated (new) PBEC)                          Gradient terms: 1
 Use libxcgrid:  F
 Use grid at  1800.2

 Functional: PBEX                      Factor:  1.0000
 Functional: PBEC                      Factor:  1.0000

 Generated new metagrid on record  1800.2 with target accuracy 1.0D-08 and 52708 points in CPU time    0.1
 Computed new grid on record 1800.1 in CPU time    0.2
  150556 words reserved for DFT integration

 PROGRAM * RKS-SCF (Restricted closed shell Kohn-Sham)     Authors: W. Meyer, H.-J. Werner, P.J. Knowles, 1993

 NUMBER OF ELECTRONS:       7+    7-    SPACE SYMMETRY=1    SPIN SYMMETRY: Singlet 
 CONVERGENCE THRESHOLDS:    1.00E-04 (Density)    1.00E-08 (Energy)
 INTEGRAL THRESHOLDS:       1.00E-11 (Initial)    1.00E-11 (Final)
 MAX. NUMBER OF ITERATIONS:       60
 INTERPOLATION TYPE:            DIIS
 INTERPOLATION STEPS:              2 (START)      1 (STEP)
 LEVEL SHIFTS:                  0.00 (CLOSED)  0.00 (OPEN) 



 Use fine grid record 1800.2 for energy threshold  1.0D-08
 Orbital guess generated from atomic densities. Full valence occupancy:   10

 Molecular orbital dump at record        2301.2

 Initial occupancy:   7

 Direct Fock-matrix evaluation.        Authors: Roland Lindh & Martin Schuetz (1993/96)

 Integral Threshold:                  0.1D-10
 Threshold for writing integrals:     0.1D-06
 Prescreening on density matrix:        ON 
 Calculation will be performed fully direct        

 ITERATION   DDIFF            GRAD            ENERGY        2-EL.EN.            DIPOLE MOMENTS         DIIS   CPU(IT)  CPU(TOT)
    1      0.000D+00      0.000D+00      -113.21197877    154.729537   -0.00000   -0.06564   -0.00001    0      8.8     15.6     start
    2      0.000D+00      0.475D-02      -113.12877891    148.151553   -0.00000    0.91596   -0.00001    1      5.9     21.5     diag
    3      0.700D-02      0.109D-01      -113.22273563    152.337282   -0.00000   -0.20020   -0.00001    2      6.3     27.8     diag
    4      0.573D-02      0.272D-02      -113.23079825    152.310603   -0.00000    0.08396   -0.00001    3      4.7     32.5     diag
    5      0.166D-02      0.170D-03      -113.23082855    152.241952   -0.00000    0.07971   -0.00001    4      5.4     37.9     diag
    6      0.110D-03      0.466D-04      -113.23083078    152.250938   -0.00000    0.07541   -0.00001    5      6.0     43.9     diag
    7      0.208D-04      0.542D-05      -113.23083081    152.252700   -0.00000    0.07499   -0.00001    6      6.1     50.0     diag
    8      0.229D-05      0.374D-06      -113.23083081    152.253027   -0.00000    0.07486   -0.00001    0      4.4     54.5     orth

 Final occupancy:   7

 !RKS STATE  1.1 Energy              -113.230830808423
 Nuclear energy                        22.30168675
 One-electron energy                 -197.91680764
 Two-electron energy                   76.12651354
 Density functional                   -13.74222345     PBEX=-13.29424184 PBEC= -0.44798161
 Virial quotient                       -1.00574734
 !RKS STATE  1.1 Dipole moment         -0.00000303     0.07485596    -0.00000835
 Dipole moment /Debye                  -0.00000771     0.19025241    -0.00002123

 Orbital energies:

         1.1          2.1          3.1          4.1          5.1          6.1          7.1          8.1          9.1
    -18.863127   -10.004821    -1.072822    -0.519814    -0.432567    -0.432564    -0.333181    -0.077528    -0.077518


 HOMO      7.1    -0.333181 =      -9.0663eV
 LUMO      8.1    -0.077528 =      -2.1096eV
 LUMO-HOMO         0.255653 =       6.9567eV


 **********************************************************************************************************************************
 DATASETS  * FILE   NREC   LENGTH (MB)   RECORD NAMES
              1      19       31.29       500      610      700      900      950      970     1000      129      960     1100   
                                          VAR    BASINP    GEOM    SYMINP    ZMAT    AOBASIS   BASIS     P2S    ABASIS      S 
                                         1400     1410     1200     1210     1080     1600     1650     1700     1800   
                                           T        V       H0       H01     AOSYM     SMH    MOLCAS    OPER     GRID   

              2       7       11.23       700     1000      520     1800     2101     2201     2301   
                                         GEOM     BASIS   MCVARS    GRID      RKS      RKS      RKS  

 PROGRAMS   *        TOTAL   RKS-SCF       INT   RKS-SCF       INT   RKS-SCF       INT
 CPU TIMES  *       167.72     54.64      0.05     56.03      0.04     56.47      0.31
 REAL TIME  *       183.19 SEC
 DISK USED  *        44.63 MB (local),      178.51 MB (total)
 SF USED    *         0.41 MB
 GA USED    *         1.75 MB       (max)       1.75 MB       (current)
 **********************************************************************************************************************************
 SETTING EB_PBE         =      -113.23083081  AU                              
 SETTING E_AB_INT       =         0.01851662  AU                              

 *** results in hartree
 E_AB_INT         =         0.01851662 AU
 Molecular orbitals read from record     2301.2  Type=RKS/CANONICAL (state 1.1)
 Occupation numbers read from record     2301.2  Type=RKS/RHF (state 1.1)
 Orbital energies read from record       2301.2  Type=RKS/CANONICAL (state 1.1)
 Redundancy group numbers read from rec  2301.2  Type=RKS/RHF (state 1.1)

 RPBE/aug-cc-pVTZ energy=   -113.230830808423

         RKS-SCF         RKS-SCF         RKS-SCF
   -113.23083081    -76.38024723   -189.59256142
 **********************************************************************************************************************************
 Molpro calculation terminated
