
 Primary working directories    : /scratch/sirous/125670/molpro.MftnGvfvD5
 Secondary working directories  : /scratch/sirous/125670/molpro.MftnGvfvD5
 Wavefunction directory         : /scratch/sirous/125670/
 Main file repository           : /scratch/sirous/125670/molpro.MftnGvfvD5/

 id        : karlovklimes

 Nodes                      nprocs
 nc-07.cc.karlov.mff.cuni.cz    4

 Using customized tuning parameters: mindgm=1; mindgv=20; mindgc=4; mindgr=1; noblas=0; minvec=7
 default implementation of scratch files=sf  


 Variables initialized (934), CPU time= 0.01 sec
 ***,CH3C6H4CN+CF3CN+BF3
 memory,500,m
 gdirect
 gthresh,energy=1.d-8,twoint=1.d-19,oneint=1.d-19,zero=1.d-15,orbital=1.d-8,grid=1.d-8
 symmetry,nosym
 geomtyp=xyz
                                                                                 ! Geometry
 geometry={
 C1        -0.610562566    0.227503096     -0.170602070
 H1        0.107385058    0.861436027     -0.634209239
 C2        -1.386275728    -0.525325504     0.379973527
 H2        -2.080703238    -1.174067393     0.854379369
 C3        2.861524045    -0.653464749     0.474780402
 O1        2.607344987    0.302637498     -0.224057346
 O2        1.913619426    -1.427804976     1.042467007
 H3        1.052620038    -1.060505989     0.774695865
 C4        4.237159198    -1.134914579     0.824931310
 H4        4.975545011    -0.497364491     0.354080986
 H5        4.363369714    -1.123059853     1.904966634
 H6        4.359436341    -2.162759125     0.491696980
 }
 
 
 
 basis=avdz
 
 
 
                                                                                 ! Dimer Calculation
 {rks,pbe,accu=1.d-8;orbital,2101.2}
 eab_PBE=energy
 
 
                                                                                 !monomer A
 dummy,5,6,7,8,9,10,11,12;                                                       ! NOW MONOMER B IS DUMMY
 {rks,pbe,accu=1.d-8;orbital,2201.2}
 ea_PBE=energy
                                                                                 !monomer B
 dummy,1,2,3,4;                                                                  !NOW MONOMER A IS DUMMY
 {rks,pbe,accu=1.d-8;orbital,2301.2}
 eb_PBE=energy
 
 E_AB_int=eab_PBE-ea_PBE-eb_PBE
 
 
 text,results in hartree
 show,E_AB_int
 
 Commands  initialized (763), CPU time= 0.02 sec, 617 directives.
 Default parameters read. Elapsed time= 0.19 sec

 Checking input...
 Passed
1


                                         ***  PROGRAM SYSTEM MOLPRO  ***
                                       Copyright, TTI GmbH Stuttgart, 2015
                                    Version 2019.2 linked Jun  8 2019 11:26:33


 **********************************************************************************************************************************
 LABEL *   CH3C6H4CN+CF3CN+BF3                                                           
  64 bit mpp version                                                                     DATE: 22-Nov-19          TIME: 09:37:44  
 **********************************************************************************************************************************

 SHA1:             8135a10abc80eafa5b3ae28ffc55be4890dc4c84
 **********************************************************************************************************************************

 THRESHOLDS:

 ZERO    =  1.00D-15  ONEINT  =  1.00D-19  TWOINT  =  1.00D-19  PREFAC  =  1.00D-14  XXXXXX  =  1.00D-09  EORDER  =  1.00D-04
 ENERGY  =  1.00D-08  ETEST   =  0.00D+00  EDENS   =  0.00D+00  THRDEDEF=  1.00D-06  GRADIENT=  1.00D-02  STEP    =  1.00D-03
 ORBITAL =  1.00D-08  CIVEC   =  1.00D-05  COEFF   =  1.00D-04  PRINTCI =  5.00D-02  PUNCHCI =  9.90D+01  OPTGRAD =  3.00D-04
 OPTENERG=  1.00D-06  OPTSTEP =  3.00D-04  THRGRAD =  1.00D-10  COMPRESS=  1.00D-11  VARMIN  =  1.00D-07  VARMAX  =  1.00D-03
 THRDOUB =  0.00D+00  THRDIV  =  1.00D-05  THRRED  =  1.00D-07  THRPSP  =  1.00D+00  THRDC   =  1.00D-10  THRCS   =  1.00D-10
 THRNRM  =  1.00D-08  THREQ   =  0.00D+00  THRDE   =  1.00D+00  THRREF  =  1.00D-05  SPARFAC =  1.00D+00  THRDLP  =  1.00D-07
 THRDIA  =  1.00D-10  THRDLS  =  1.00D-07  THRGPS  =  0.00D+00  THRKEX  =  0.00D+00  THRDIS  =  2.00D-01  THRVAR  =  1.00D-10
 THRLOC  =  1.00D-06  THRGAP  =  1.00D-06  THRLOCT = -1.00D+00  THRGAPT = -1.00D+00  THRORB  =  1.00D-06  THRMLTP =  0.00D+00
 THRCPQCI=  1.00D-10  KEXTA   =  0.00D+00  THRCOARS=  0.00D+00  SYMTOL  =  1.00D-06  GRADTOL =  1.00D-06  THROVL  =  1.00D-08
 THRORTH =  1.00D-08  GRID    =  1.00D-08  GRIDMAX =  1.00D-03  DTMAX   =  0.00D+00  THROCCDE=  1.00D-01  THROCCDE=  1.00D-01
 THRPRINT=  2.50D-01


 Variable memory set to  500000000 words,  buffer space 

 SETTING GEOMTYP        =    XYZ
 ZSYMEL=NOSYM

 SETTING BASIS          =    AVDZ


 Recomputing integrals since basis changed


 Using spherical harmonics

 Library entry C      S aug-cc-pVDZ          selected for orbital group  1
 Library entry C      P aug-cc-pVDZ          selected for orbital group  1
 Library entry C      D aug-cc-pVDZ          selected for orbital group  1
 Library entry H      S aug-cc-pVDZ          selected for orbital group  2
 Library entry H      P aug-cc-pVDZ          selected for orbital group  2
 Library entry O      S aug-cc-pVDZ          selected for orbital group  6
 Library entry O      P aug-cc-pVDZ          selected for orbital group  6
 Library entry O      D aug-cc-pVDZ          selected for orbital group  6


 PROGRAM * SEWARD (Integral evaluation for generally contracted gaussian basis sets)     Author: Roland Lindh, 1990

 Geometry written to block  1 of record 700


 Point group  C1  



 ATOMIC COORDINATES

 NR  ATOM    CHARGE       X              Y              Z

   1  C1      6.00   -1.153796032    0.429918544   -0.322391189
   2  H1      1.00    0.202928349    1.627878165   -1.198481767
   3  C2      6.00   -2.619681459   -0.992721329    0.718045901
   4  H2      1.00   -3.931959266   -2.218665825    1.614543014
   5  C3      6.00    5.407496744   -1.234869408    0.897204929
   6  O1      8.00    4.927167938    0.571901986   -0.423407020
   7  O2      8.00    3.616216622   -2.698160364    1.969977137
   8  H3      1.00    1.989163585   -2.004065873    1.463963015
   9  C4      6.00    8.007070430   -2.144677729    1.558894247
  10  H4      1.00    9.402417391   -0.939882672    0.669116089
  11  H5      1.00    8.245573740   -2.122275544    3.599865215
  12  H6      1.00    8.238140742   -4.087022420    0.929172628

 Bond lengths in Bohr (Angstrom)

 1-2  2.010806555  1-3  2.292429635  3-4  2.007167164  5-6  2.288919953  5-7  2.549655880
     ( 1.064073005)     ( 1.213101520)     ( 1.062147122)     ( 1.211244277)     ( 1.349219788)

  5- 9  2.832554905   7- 8  1.839869300   9-10  2.047004993   9-11  2.054981308   9-12  2.054907712
       ( 1.498923504)       ( 0.973616904)       ( 1.083228393)       ( 1.087449277)       ( 1.087410332)

 Bond angles

  1- 3- 4  178.92211763   2- 1- 3  177.31839717   5- 7- 8  106.80191146   5- 9-10  109.57256805

  5- 9-11  109.57389653   5- 9-12  109.58561377   6- 5- 7  123.25385323   6- 5- 9  125.51430758

  7- 5- 9  111.23183912  10- 9-11  110.25385237  10- 9-12  110.27152505  11- 9-12  107.55443573

 NUCLEAR CHARGE:                   46
 NUMBER OF PRIMITIVE AOS:         288
 NUMBER OF SYMMETRY AOS:          276
 NUMBER OF CONTRACTIONS:          192   (  192A   )
 NUMBER OF CORE ORBITALS:           6   (    6A   )
 NUMBER OF VALENCE ORBITALS:       30   (   30A   )


 NUCLEAR REPULSION ENERGY  206.13757122


 Eigenvalues of metric

         1 0.277E-04 0.413E-04 0.538E-04 0.137E-03 0.286E-03 0.502E-03 0.512E-03 0.595E-03


 OPERATOR DM      FOR CENTER  0  COORDINATES:    0.000000    0.000000    0.000000


 **********************************************************************************************************************************
 DATASETS  * FILE   NREC   LENGTH (MB)   RECORD NAMES
              1      18       31.53       500      610      700      900      950      970     1000      129      960     1100   
                                          VAR    BASINP    GEOM    SYMINP    ZMAT    AOBASIS   BASIS     P2S    ABASIS      S 
                                         1400     1410     1200     1210     1080     1600     1650     1700   
                                           T        V       H0       H01     AOSYM     SMH    MOLCAS    OPER   

 PROGRAMS   *        TOTAL       INT
 CPU TIMES  *         0.59      0.38
 REAL TIME  *         1.86 SEC
 DISK USED  *        32.04 MB (local),      128.17 MB (total)
 GA USED    *         0.00 MB       (max)       0.00 MB       (current)
 **********************************************************************************************************************************

 Density functional group PBE=PBEX+PBEC
 Functional: PBEX(Automatically generated (new) PBEX)                          Gradient terms: 1
 Functional: PBEC(Automatically generated (new) PBEC)                          Gradient terms: 1
 Use libxcgrid:  F
 Use grid at  1800.2

 Functional: PBEX                      Factor:  1.0000
 Functional: PBEC                      Factor:  1.0000

 Generated new metagrid on record  1800.2 with target accuracy 1.0D-08 and 122276 points in CPU time    0.3
 Computed new grid on record 1800.1 in CPU time    0.4
  157056 words reserved for DFT integration

 PROGRAM * RKS-SCF (Restricted closed shell Kohn-Sham)     Authors: W. Meyer, H.-J. Werner, P.J. Knowles, 1993

 NUMBER OF ELECTRONS:      23+   23-    SPACE SYMMETRY=1    SPIN SYMMETRY: Singlet 
 CONVERGENCE THRESHOLDS:    1.00E-04 (Density)    1.00E-08 (Energy)
 INTEGRAL THRESHOLDS:       1.00E-11 (Initial)    1.00E-11 (Final)
 MAX. NUMBER OF ITERATIONS:       60
 INTERPOLATION TYPE:            DIIS
 INTERPOLATION STEPS:              2 (START)      1 (STEP)
 LEVEL SHIFTS:                  0.00 (CLOSED)  0.00 (OPEN) 



 Use fine grid record 1800.2 for energy threshold  1.0D-08
 Orbital guess generated from atomic densities. Full valence occupancy:   36

 Molecular orbital dump at record        2101.2

 Initial occupancy:  23

 Direct Fock-matrix evaluation.        Authors: Roland Lindh & Martin Schuetz (1993/96)

 Integral Threshold:                  0.1D-10
 Threshold for writing integrals:     0.1D-06
 Prescreening on density matrix:        ON 
 Calculation will be performed fully direct        

 ITERATION   DDIFF            GRAD            ENERGY        2-EL.EN.            DIPOLE MOMENTS         DIIS   CPU(IT)  CPU(TOT)
    1      0.000D+00      0.000D+00      -305.86575621    719.155112   -0.10587   -0.89869    0.65733    0      5.4      8.5     start
    2      0.000D+00      0.781D-02      -305.47030434    684.720651   -0.00868    1.08398   -0.79423    1      4.3     12.8     diag
    3      0.306D-01      0.132D-01      -306.04089232    704.031985   -0.14939   -1.23542    0.90302    2      4.3     17.1     diag
    4      0.170D-01      0.428D-02      -306.09892779    705.332993    0.02738   -0.39478    0.28824    3      4.2     21.3     diag
    5      0.461D-02      0.683D-03      -306.09900419    705.151348   -0.14468   -0.57967    0.42354    4      4.1     25.5     diag
    6      0.131D-02      0.621D-03      -306.10022740    704.964175   -0.02570   -0.44694    0.32640    5      4.1     29.6     diag
    7      0.785D-03      0.187D-03      -306.10036023    704.999131   -0.05928   -0.48011    0.35065    6      4.1     33.7     diag
    8      0.253D-03      0.554D-04      -306.10037108    704.992289   -0.05370   -0.48205    0.35208    7      4.1     37.8     diag
    9      0.681D-04      0.988D-05      -306.10037146    705.000000   -0.05324   -0.48286    0.35268    8      4.0     41.8     diag
   10      0.215D-04      0.249D-05      -306.10037149    705.000263   -0.05350   -0.48270    0.35255    9      3.9     45.7     orth
   11      0.394D-05      0.282D-06      -306.10037149    705.000948   -0.05349   -0.48289    0.35269    0      3.8     49.5     orth

 Final occupancy:  23

 !RKS STATE  1.1 Energy              -306.100371488341
 Nuclear energy                       206.13757122
 One-electron energy                 -824.10967087
 Two-electron energy                  352.50047406
 Density functional                   -40.62874590     PBEX=-39.12477210 PBEC= -1.50397380
 Virial quotient                       -1.00544313
 !RKS STATE  1.1 Dipole moment         -0.05348802    -0.48288723     0.35269374
 Dipole moment /Debye                  -0.13594409    -1.22729654     0.89639935

 Orbital energies:

         1.1          2.1          3.1          4.1          5.1          6.1          7.1          8.1          9.1         10.1
    -18.814602   -18.763016   -10.023406    -9.923065    -9.920899    -9.905697    -1.021184    -0.935165    -0.699482    -0.692397

        11.1         12.1         13.1         14.1         15.1         16.1         17.1         18.1         19.1         20.1
     -0.556380    -0.525891    -0.456193    -0.440221    -0.426041    -0.424324    -0.367701    -0.349018    -0.348001    -0.282942

        21.1         22.1         23.1         24.1         25.1
     -0.277799    -0.273432    -0.233964    -0.037935    -0.027815


 HOMO     23.1    -0.233964 =      -6.3665eV
 LUMO     24.1    -0.037935 =      -1.0323eV
 LUMO-HOMO         0.196029 =       5.3342eV


 **********************************************************************************************************************************
 DATASETS  * FILE   NREC   LENGTH (MB)   RECORD NAMES
              1      19       31.53       500      610      700      900      950      970     1000      129      960     1100   
                                          VAR    BASINP    GEOM    SYMINP    ZMAT    AOBASIS   BASIS     P2S    ABASIS      S 
                                         1400     1410     1200     1210     1080     1600     1650     1700     1800   
                                           T        V       H0       H01     AOSYM     SMH    MOLCAS    OPER     GRID   

              2       5        3.71       700     1000      520     1800     2101   
                                         GEOM     BASIS   MCVARS    GRID      RKS  

 PROGRAMS   *        TOTAL   RKS-SCF       INT
 CPU TIMES  *        50.54     49.95      0.38
 REAL TIME  *        53.13 SEC
 DISK USED  *        37.98 MB (local),      151.93 MB (total)
 SF USED    *         0.44 MB
 GA USED    *         3.98 MB       (max)       3.98 MB       (current)
 **********************************************************************************************************************************
 SETTING EAB_PBE        =      -306.10037149  AU                              

 Dummy atoms: C3  O1  O2  H3  C4  H4  H5  H6


 Recomputing one-electron integrals since nuclear charges changed


 PROGRAM * SEWARD (Integral evaluation for generally contracted gaussian basis sets)     Author: Roland Lindh, 1990

 Geometry written to block  1 of record 700


 Point group  C1  



 ATOMIC COORDINATES

 NR  ATOM    CHARGE       X              Y              Z

   1  C1      6.00   -1.153796032    0.429918544   -0.322391189
   2  H1      1.00    0.202928349    1.627878165   -1.198481767
   3  C2      6.00   -2.619681459   -0.992721329    0.718045901
   4  H2      1.00   -3.931959266   -2.218665825    1.614543014
   5  C3      0.00    5.407496744   -1.234869408    0.897204929
   6  O1      0.00    4.927167938    0.571901986   -0.423407020
   7  O2      0.00    3.616216622   -2.698160364    1.969977137
   8  H3      0.00    1.989163585   -2.004065873    1.463963015
   9  C4      0.00    8.007070430   -2.144677729    1.558894247
  10  H4      0.00    9.402417391   -0.939882672    0.669116089
  11  H5      0.00    8.245573740   -2.122275544    3.599865215
  12  H6      0.00    8.238140742   -4.087022420    0.929172628

 Bond lengths in Bohr (Angstrom)

 1-2  2.010806555  1-3  2.292429635  3-4  2.007167164  5-6  2.288919953  5-7  2.549655880
     ( 1.064073005)     ( 1.213101520)     ( 1.062147122)     ( 1.211244277)     ( 1.349219788)

  5- 9  2.832554905   7- 8  1.839869300   9-10  2.047004993   9-11  2.054981308   9-12  2.054907712
       ( 1.498923504)       ( 0.973616904)       ( 1.083228393)       ( 1.087449277)       ( 1.087410332)

 Bond angles

  1- 3- 4  178.92211763   2- 1- 3  177.31839717   5- 7- 8  106.80191146   5- 9-10  109.57256805

  5- 9-11  109.57389653   5- 9-12  109.58561377   6- 5- 7  123.25385323   6- 5- 9  125.51430758

  7- 5- 9  111.23183912  10- 9-11  110.25385237  10- 9-12  110.27152505  11- 9-12  107.55443573

 NUCLEAR CHARGE:                   14
 NUMBER OF PRIMITIVE AOS:         288
 NUMBER OF SYMMETRY AOS:          276
 NUMBER OF CONTRACTIONS:          192   (  192A   )
 NUMBER OF CORE ORBITALS:           2   (    2A   )
 NUMBER OF VALENCE ORBITALS:       10   (   10A   )

 MOLECULE CHANGED: INITIALIZING OCCUPATION AND DUMP RECORDS


 NUCLEAR REPULSION ENERGY   24.62574649


 Eigenvalues of metric

         1 0.277E-04 0.413E-04 0.538E-04 0.137E-03 0.286E-03 0.502E-03 0.512E-03 0.595E-03


 OPERATOR DM      FOR CENTER  0  COORDINATES:    0.000000    0.000000    0.000000


 **********************************************************************************************************************************
 DATASETS  * FILE   NREC   LENGTH (MB)   RECORD NAMES
              1      19       31.53       500      610      700      900      950      970     1000      129      960     1100   
                                          VAR    BASINP    GEOM    SYMINP    ZMAT    AOBASIS   BASIS     P2S    ABASIS      S 
                                         1400     1410     1200     1210     1080     1600     1650     1700     1800   
                                           T        V       H0       H01     AOSYM     SMH    MOLCAS    OPER     GRID   

              2       5        3.71       700     1000      520     1800     2101   
                                         GEOM     BASIS   MCVARS    GRID      RKS  

 PROGRAMS   *        TOTAL       INT   RKS-SCF       INT
 CPU TIMES  *        50.64      0.09     49.95      0.38
 REAL TIME  *        53.36 SEC
 DISK USED  *        37.98 MB (local),      151.93 MB (total)
 SF USED    *         0.44 MB
 GA USED    *         3.98 MB       (max)       3.98 MB       (current)
 **********************************************************************************************************************************

 Density functional group PBE=PBEX+PBEC
 Functional: PBEX(Automatically generated (new) PBEX)                          Gradient terms: 1
 Functional: PBEC(Automatically generated (new) PBEC)                          Gradient terms: 1
 Use libxcgrid:  F
 Use grid at  1800.2

 Functional: PBEX                      Factor:  1.0000
 Functional: PBEC                      Factor:  1.0000

 Generated new metagrid on record  1800.2 with target accuracy 1.0D-08 and 122276 points in CPU time    0.3
 Computed new grid on record 1800.1 in CPU time    0.4
  157056 words reserved for DFT integration

 PROGRAM * RKS-SCF (Restricted closed shell Kohn-Sham)     Authors: W. Meyer, H.-J. Werner, P.J. Knowles, 1993

 NUMBER OF ELECTRONS:       7+    7-    SPACE SYMMETRY=1    SPIN SYMMETRY: Singlet 
 CONVERGENCE THRESHOLDS:    1.00E-04 (Density)    1.00E-08 (Energy)
 INTEGRAL THRESHOLDS:       1.00E-11 (Initial)    1.00E-11 (Final)
 MAX. NUMBER OF ITERATIONS:       60
 INTERPOLATION TYPE:            DIIS
 INTERPOLATION STEPS:              2 (START)      1 (STEP)
 LEVEL SHIFTS:                  0.00 (CLOSED)  0.00 (OPEN) 



 Use fine grid record 1800.2 for energy threshold  1.0D-08
 Orbital guess generated from atomic densities. Full valence occupancy:   12

 Molecular orbital dump at record        2201.2

 Initial occupancy:   7

 Direct Fock-matrix evaluation.        Authors: Roland Lindh & Martin Schuetz (1993/96)

 Integral Threshold:                  0.1D-10
 Threshold for writing integrals:     0.1D-06
 Prescreening on density matrix:        ON 
 Calculation will be performed fully direct        

 ITERATION   DDIFF            GRAD            ENERGY        2-EL.EN.            DIPOLE MOMENTS         DIIS   CPU(IT)  CPU(TOT)
    1      0.000D+00      0.000D+00       -77.13279201    127.256824    0.01164   -0.00454    0.00330    0      5.3      8.7     start
    2      0.000D+00      0.765D-02       -77.05015399    115.098847    0.00207   -0.01465    0.01064    1      4.2     12.9     diag
    3      0.223D-01      0.105D-01       -77.22780725    122.330316    0.01487   -0.00352    0.00254    2      4.1     17.0     diag
    4      0.113D-01      0.265D-03       -77.22792469    122.152066   -0.00359   -0.01813    0.01323    3      4.0     21.0     diag
    5      0.432D-03      0.121D-03       -77.22791634    122.157641    0.02414    0.00816   -0.00600    4      3.9     24.9     diag
    6      0.171D-03      0.144D-03       -77.22794529    122.162267    0.00951   -0.00699    0.00508    5      3.9     28.8     diag
    7      0.102D-03      0.314D-05       -77.22794531    122.164001    0.00926   -0.00666    0.00484    6      3.7     32.5     diag
    8      0.599D-05      0.917D-06       -77.22794531    122.164021    0.00950   -0.00677    0.00492    0      3.6     36.1     orth

 Final occupancy:   7

 !RKS STATE  1.1 Energy               -77.227945311236
 Nuclear energy                        24.62574649
 One-electron energy                 -151.56211302
 Two-electron energy                   61.08201039
 Density functional                   -11.37358917     PBEX=-10.94160166 PBEC= -0.43198751
 Virial quotient                       -1.00617176
 !RKS STATE  1.1 Dipole moment          0.00949805    -0.00677459     0.00492066
 Dipole moment /Debye                   0.02414006    -0.01721817     0.01250626

 Orbital energies:

         1.1          2.1          3.1          4.1          5.1          6.1          7.1          8.1          9.1
     -9.912324    -9.910429    -0.685132    -0.518317    -0.447625    -0.262485    -0.262458    -0.017118    -0.016740


 HOMO      7.1    -0.262458 =      -7.1418eV
 LUMO      8.1    -0.017118 =      -0.4658eV
 LUMO-HOMO         0.245340 =       6.6760eV


 **********************************************************************************************************************************
 DATASETS  * FILE   NREC   LENGTH (MB)   RECORD NAMES
              1      19       31.53       500      610      700      900      950      970     1000      129      960     1100   
                                          VAR    BASINP    GEOM    SYMINP    ZMAT    AOBASIS   BASIS     P2S    ABASIS      S 
                                         1400     1410     1200     1210     1080     1600     1650     1700     1800   
                                           T        V       H0       H01     AOSYM     SMH    MOLCAS    OPER     GRID   

              2       6        7.68       700     1000      520     1800     2101     2201   
                                         GEOM     BASIS   MCVARS    GRID      RKS      RKS  

 PROGRAMS   *        TOTAL   RKS-SCF       INT   RKS-SCF       INT
 CPU TIMES  *        87.18     36.54      0.09     49.95      0.38
 REAL TIME  *        90.12 SEC
 DISK USED  *        41.51 MB (local),      166.04 MB (total)
 SF USED    *         0.44 MB
 GA USED    *         3.98 MB       (max)       3.98 MB       (current)
 **********************************************************************************************************************************
 SETTING EA_PBE         =       -77.22794531  AU                              

 Dummy atoms: C1  H1  C2  H2


 Recomputing one-electron integrals since nuclear charges changed


 PROGRAM * SEWARD (Integral evaluation for generally contracted gaussian basis sets)     Author: Roland Lindh, 1990

 Geometry written to block  1 of record 700


 Point group  C1  



 ATOMIC COORDINATES

 NR  ATOM    CHARGE       X              Y              Z

   1  C1      0.00   -1.153796032    0.429918544   -0.322391189
   2  H1      0.00    0.202928349    1.627878165   -1.198481767
   3  C2      0.00   -2.619681459   -0.992721329    0.718045901
   4  H2      0.00   -3.931959266   -2.218665825    1.614543014
   5  C3      6.00    5.407496744   -1.234869408    0.897204929
   6  O1      8.00    4.927167938    0.571901986   -0.423407020
   7  O2      8.00    3.616216622   -2.698160364    1.969977137
   8  H3      1.00    1.989163585   -2.004065873    1.463963015
   9  C4      6.00    8.007070430   -2.144677729    1.558894247
  10  H4      1.00    9.402417391   -0.939882672    0.669116089
  11  H5      1.00    8.245573740   -2.122275544    3.599865215
  12  H6      1.00    8.238140742   -4.087022420    0.929172628

 Bond lengths in Bohr (Angstrom)

 1-2  2.010806555  1-3  2.292429635  3-4  2.007167164  5-6  2.288919953  5-7  2.549655880
     ( 1.064073005)     ( 1.213101520)     ( 1.062147122)     ( 1.211244277)     ( 1.349219788)

  5- 9  2.832554905   7- 8  1.839869300   9-10  2.047004993   9-11  2.054981308   9-12  2.054907712
       ( 1.498923504)       ( 0.973616904)       ( 1.083228393)       ( 1.087449277)       ( 1.087410332)

 Bond angles

  1- 3- 4  178.92211763   2- 1- 3  177.31839717   5- 7- 8  106.80191146   5- 9-10  109.57256805

  5- 9-11  109.57389653   5- 9-12  109.58561377   6- 5- 7  123.25385323   6- 5- 9  125.51430758

  7- 5- 9  111.23183912  10- 9-11  110.25385237  10- 9-12  110.27152505  11- 9-12  107.55443573

 NUCLEAR CHARGE:                   32
 NUMBER OF PRIMITIVE AOS:         288
 NUMBER OF SYMMETRY AOS:          276
 NUMBER OF CONTRACTIONS:          192   (  192A   )
 NUMBER OF CORE ORBITALS:           4   (    4A   )
 NUMBER OF VALENCE ORBITALS:       20   (   20A   )

 MOLECULE CHANGED: INITIALIZING OCCUPATION AND DUMP RECORDS


 NUCLEAR REPULSION ENERGY  121.22795390


 Eigenvalues of metric

         1 0.277E-04 0.413E-04 0.538E-04 0.137E-03 0.286E-03 0.502E-03 0.512E-03 0.595E-03


 OPERATOR DM      FOR CENTER  0  COORDINATES:    0.000000    0.000000    0.000000


 **********************************************************************************************************************************
 DATASETS  * FILE   NREC   LENGTH (MB)   RECORD NAMES
              1      19       31.53       500      610      700      900      950      970     1000      129      960     1100   
                                          VAR    BASINP    GEOM    SYMINP    ZMAT    AOBASIS   BASIS     P2S    ABASIS      S 
                                         1400     1410     1200     1210     1080     1600     1650     1700     1800   
                                           T        V       H0       H01     AOSYM     SMH    MOLCAS    OPER     GRID   

              2       6        7.68       700     1000      520     1800     2101     2201   
                                         GEOM     BASIS   MCVARS    GRID      RKS      RKS  

 PROGRAMS   *        TOTAL       INT   RKS-SCF       INT   RKS-SCF       INT
 CPU TIMES  *        87.27      0.09     36.54      0.09     49.95      0.38
 REAL TIME  *        90.35 SEC
 DISK USED  *        41.51 MB (local),      166.04 MB (total)
 SF USED    *         0.44 MB
 GA USED    *         3.98 MB       (max)       3.98 MB       (current)
 **********************************************************************************************************************************

 Density functional group PBE=PBEX+PBEC
 Functional: PBEX(Automatically generated (new) PBEX)                          Gradient terms: 1
 Functional: PBEC(Automatically generated (new) PBEC)                          Gradient terms: 1
 Use libxcgrid:  F
 Use grid at  1800.2

 Functional: PBEX                      Factor:  1.0000
 Functional: PBEC                      Factor:  1.0000

 Generated new metagrid on record  1800.2 with target accuracy 1.0D-08 and 122276 points in CPU time    0.4
 Computed new grid on record 1800.1 in CPU time    0.5
  157056 words reserved for DFT integration

 PROGRAM * RKS-SCF (Restricted closed shell Kohn-Sham)     Authors: W. Meyer, H.-J. Werner, P.J. Knowles, 1993

 NUMBER OF ELECTRONS:      16+   16-    SPACE SYMMETRY=1    SPIN SYMMETRY: Singlet 
 CONVERGENCE THRESHOLDS:    1.00E-04 (Density)    1.00E-08 (Energy)
 INTEGRAL THRESHOLDS:       1.00E-11 (Initial)    1.00E-11 (Final)
 MAX. NUMBER OF ITERATIONS:       60
 INTERPOLATION TYPE:            DIIS
 INTERPOLATION STEPS:              2 (START)      1 (STEP)
 LEVEL SHIFTS:                  0.00 (CLOSED)  0.00 (OPEN) 



 Use fine grid record 1800.2 for energy threshold  1.0D-08
 Orbital guess generated from atomic densities. Full valence occupancy:   24

 Molecular orbital dump at record        2301.2

 Initial occupancy:  16

 Direct Fock-matrix evaluation.        Authors: Roland Lindh & Martin Schuetz (1993/96)

 Integral Threshold:                  0.1D-10
 Threshold for writing integrals:     0.1D-06
 Prescreening on density matrix:        ON 
 Calculation will be performed fully direct        

 ITERATION   DDIFF            GRAD            ENERGY        2-EL.EN.            DIPOLE MOMENTS         DIIS   CPU(IT)  CPU(TOT)
    1      0.000D+00      0.000D+00      -228.71436300    471.711745   -0.06605   -0.91801    0.67159    0      5.3      8.8     start
    2      0.000D+00      0.777D-02      -228.27956522    446.683113    0.72226    1.01537   -0.74384    1      4.2     13.0     diag
    3      0.215D-01      0.154D-01      -228.81060650    461.087627    0.12982   -1.19865    0.87644    2      4.2     17.2     diag
    4      0.141D-01      0.485D-02      -228.86491021    462.589749    0.12502   -0.52598    0.38445    3      4.1     21.3     diag
    5      0.425D-02      0.722D-03      -228.86513392    462.203192    0.06960   -0.58167    0.42528    4      4.1     25.4     diag
    6      0.110D-02      0.607D-03      -228.86598530    462.180847    0.11263   -0.54805    0.40063    5      4.1     29.5     diag
    7      0.594D-03      0.616D-04      -228.86599562    462.205952    0.10885   -0.55946    0.40897    6      4.0     33.4     diag
    8      0.590D-04      0.140D-04      -228.86599604    462.196359    0.10900   -0.55967    0.40913    7      3.9     37.3     diag
    9      0.187D-04      0.489D-05      -228.86599611    462.203202    0.10908   -0.55983    0.40924    8      3.8     41.1     diag
   10      0.638D-05      0.633D-06      -228.86599611    462.203096    0.10899   -0.55983    0.40925    0      3.7     44.9     orth

 Final occupancy:  16

 !RKS STATE  1.1 Energy              -228.865996109654
 Nuclear energy                       121.22795390
 One-electron energy                 -551.95560216
 Two-electron energy                  231.10154805
 Density functional                   -29.23989591     PBEX=-28.17239806 PBEC= -1.06749784
 Virial quotient                       -1.00532748
 !RKS STATE  1.1 Dipole moment          0.10898578    -0.55983354     0.40924612
 Dipole moment /Debye                   0.27699609    -1.42286172     1.04013176

 Orbital energies:

         1.1          2.1          3.1          4.1          5.1          6.1          7.1          8.1          9.1         10.1
    -18.826462   -18.766561   -10.027622    -9.909837    -1.028958    -0.940372    -0.698166    -0.565248    -0.443882    -0.431944

        11.1         12.1         13.1         14.1         15.1         16.1         17.1         18.1
     -0.429151    -0.371434    -0.353798    -0.352480    -0.288763    -0.237795    -0.041205    -0.027260


 HOMO     16.1    -0.237795 =      -6.4707eV
 LUMO     17.1    -0.041205 =      -1.1213eV
 LUMO-HOMO         0.196590 =       5.3495eV


 **********************************************************************************************************************************
 DATASETS  * FILE   NREC   LENGTH (MB)   RECORD NAMES
              1      19       31.53       500      610      700      900      950      970     1000      129      960     1100   
                                          VAR    BASINP    GEOM    SYMINP    ZMAT    AOBASIS   BASIS     P2S    ABASIS      S 
                                         1400     1410     1200     1210     1080     1600     1650     1700     1800   
                                           T        V       H0       H01     AOSYM     SMH    MOLCAS    OPER     GRID   

              2       7       11.66       700     1000      520     1800     2101     2201     2301   
                                         GEOM     BASIS   MCVARS    GRID      RKS      RKS      RKS  

 PROGRAMS   *        TOTAL   RKS-SCF       INT   RKS-SCF       INT   RKS-SCF       INT
 CPU TIMES  *       132.73     45.46      0.09     36.54      0.09     49.95      0.38
 REAL TIME  *       136.08 SEC
 DISK USED  *        45.78 MB (local),      183.11 MB (total)
 SF USED    *         0.44 MB
 GA USED    *         3.98 MB       (max)       3.98 MB       (current)
 **********************************************************************************************************************************
 SETTING EB_PBE         =      -228.86599611  AU                              
 SETTING E_AB_INT       =        -0.00643007  AU                              

 *** results in hartree
 E_AB_INT         =        -0.00643007 AU
 Molecular orbitals read from record     2301.2  Type=RKS/CANONICAL (state 1.1)
 Occupation numbers read from record     2301.2  Type=RKS/RHF (state 1.1)
 Orbital energies read from record       2301.2  Type=RKS/CANONICAL (state 1.1)
 Redundancy group numbers read from rec  2301.2  Type=RKS/RHF (state 1.1)

 RPBE/aug-cc-pVDZ energy=   -228.865996109654

         RKS-SCF         RKS-SCF         RKS-SCF
   -228.86599611    -77.22794531   -306.10037149
 **********************************************************************************************************************************
 Molpro calculation terminated
Fri 22 Nov 2019 09:40:01 AM CET
