
     Program PWSCF v.7.2 starts on 12Oct2023 at 14:21:53 

     This program is part of the open-source Quantum ESPRESSO suite
     for quantum simulation of materials; please cite
         "P. Giannozzi et al., J. Phys.:Condens. Matter 21 395502 (2009);
         "P. Giannozzi et al., J. Phys.:Condens. Matter 29 465901 (2017);
         "P. Giannozzi et al., J. Chem. Phys. 152 154105 (2020);
          URL http://www.quantum-espresso.org", 
     in publications or presentations arising from this work. More details at
     http://www.quantum-espresso.org/quote

     Parallel version (MPI), running on    32 processors

     MPI processes distributed on     1 nodes
     503650 MiB available memory on the printing compute node when the environment starts

     Reading input from H2O_CO2_dimer_O_H_contact_28_efficiency_monomer_1.in
Warning: card &CELL ignored
Warning: card / ignored

     Current dimensions of program PWSCF are:
     Max number of different atomic species (ntypx) = 10
     Max number of k-points (npk) =  40000
     Max angular momentum in pseudopotentials (lmaxx) =  4
     file H.pbe-kjpaw_psl.1.0.0.UPF: wavefunction(s)  1S renormalized
     file O.pbe-nl-kjpaw_psl.1.0.0.UPF: wavefunction(s)  2S 2P renormalized

     IMPORTANT: XC functional enforced from input :
     Exchange-correlation= PBE
                           (   1   4   3   4   0   0   0)
     Any further DFT definition will be discarded
     Please, verify this is what you really want


     gamma-point specific algorithms are used

     R & G space division:  proc/nbgrp/npool/nimage =      32
     Subspace diagonalization in iterative solution of the eigenvalue problem:
     a serial algorithm will be used


     Parallelization info
     --------------------
     sticks:   dense  smooth     PW     G-vecs:    dense   smooth      PW
     Min        6395    6395   1598              2177048  2177048  272114
     Max        6398    6398   1600              2177062  2177062  272124
     Sum      204693  204693  51189             69665707 69665707 8707803

     Using Slab Decomposition



     bravais-lattice index     =            0
     lattice parameter (alat)  =      66.1404  a.u.
     unit-cell volume          =  289334.8415 (a.u.)^3
     number of atoms/cell      =            3
     number of atomic types    =            2
     number of electrons       =         8.00
     number of Kohn-Sham states=            4
     kinetic-energy cutoff     =     147.0000  Ry
     charge density cutoff     =     588.0000  Ry
     scf convergence threshold =      1.0E-08
     mixing beta               =       0.7000
     number of iterations used =            8  plain     mixing
     Exchange-correlation= PBE
                           (   1   4   3   4   0   0   0)

     celldm(1)=  66.140414  celldm(2)=   0.000000  celldm(3)=   0.000000
     celldm(4)=   0.000000  celldm(5)=   0.000000  celldm(6)=   0.000000

     crystal axes: (cart. coord. in units of alat)
               a(1) = (   1.000000   0.000000   0.000000 )  
               a(2) = (   0.000000   1.000000   0.000000 )  
               a(3) = (   0.000000   0.000000   1.000000 )  

     reciprocal axes: (cart. coord. in units 2 pi/alat)
               b(1) = (  1.000000  0.000000  0.000000 )  
               b(2) = (  0.000000  1.000000  0.000000 )  
               b(3) = (  0.000000  0.000000  1.000000 )  


     PseudoPot. # 1 for H  read from file:
     /home/users/klimj2am/src/pslibrary.1.0.0/pbe/PSEUDOPOTENTIALS/H.pbe-kjpaw_psl.1.0.0.UPF
     MD5 check sum: 220281c0717fd894cece6904c624ceaa
     Pseudo is Projector augmented-wave, Zval =  1.0
     Generated using 'atomic' code by A. Dal Corso  v.7.2
     Shape of augmentation charge: PSQ
     Using radial grid of  929 points,  2 beta functions with: 
                l(1) =   0
                l(2) =   0
     Q(r) pseudized with 0 coefficients 


     PseudoPot. # 2 for O  read from file:
     /home/users/klimj2am/src/pslibrary.1.0.0/pbe/PSEUDOPOTENTIALS/O.pbe-nl-kjpaw_psl.1.0.0.UPF
     MD5 check sum: 3be12c084656f77eefcab7bec6207024
     Pseudo is Projector augmented-wave + core cor, Zval =  6.0
     Generated using 'atomic' code by A. Dal Corso  v.7.2
     Shape of augmentation charge: PSQ
     Using radial grid of 1095 points,  4 beta functions with: 
                l(1) =   0
                l(2) =   0
                l(3) =   1
                l(4) =   1
     Q(r) pseudized with 0 coefficients 


     atomic species   valence    mass     pseudopotential
        H              1.00     1.00800     H ( 1.00)
        O              6.00    15.99900     O ( 1.00)

     No symmetry found



   Cartesian axes

     site n.     atom                  positions (alat units)
         1           H   tau(   1) = (   0.0010117   0.1501190  -0.0266201  )
         2           H   tau(   2) = (   0.0000000   0.1159565   0.0000000  )
         3           O   tau(   3) = (   0.0000000   0.1434242   0.0000000  )

     number of k points=     1
                       cart. coord. in units 2pi/alat
        k(    1) = (   0.0000000   0.0000000   0.0000000), wk =   2.0000000

     Dense  grid: 34832854 G-vectors     FFT dimensions: ( 512, 512, 512)

     Estimated max dynamical RAM per process >       1.52 GB

     Estimated total dynamical RAM >      48.61 GB

     Initial potential from superposition of free atoms

     starting charge       8.0000, renormalised to       8.0000

     negative rho (up, down):  7.013E-04 0.000E+00
     Starting wfcs are    6 randomized atomic wfcs
     Checking if some PAW data can be deallocated... 

     total cpu time spent up to now is       36.1 secs

     Self-consistent Calculation

     iteration #  1     ecut=   147.00 Ry     beta= 0.70
     Davidson diagonalization with overlap
     ethr =  1.00E-02,  avg # of iterations =  2.0

     negative rho (up, down):  7.897E-04 0.000E+00

     total cpu time spent up to now is       44.3 secs

     total energy              =     -43.82155181 Ry
     estimated scf accuracy    <       0.49508112 Ry

     iteration #  2     ecut=   147.00 Ry     beta= 0.70
     Davidson diagonalization with overlap
     ethr =  6.19E-03,  avg # of iterations =  3.0

     negative rho (up, down):  6.614E-04 0.000E+00

     total cpu time spent up to now is       52.6 secs

     total energy              =     -43.94947876 Ry
     estimated scf accuracy    <       0.47830753 Ry

     iteration #  3     ecut=   147.00 Ry     beta= 0.70
     Davidson diagonalization with overlap
     ethr =  5.98E-03,  avg # of iterations =  2.0

     negative rho (up, down):  6.301E-04 0.000E+00

     total cpu time spent up to now is       60.5 secs

     total energy              =     -44.01826603 Ry
     estimated scf accuracy    <       0.02030587 Ry

     iteration #  4     ecut=   147.00 Ry     beta= 0.70
     Davidson diagonalization with overlap
     ethr =  2.54E-04,  avg # of iterations =  4.0

     negative rho (up, down):  6.546E-04 0.000E+00

     total cpu time spent up to now is       69.4 secs

     total energy              =     -44.03771349 Ry
     estimated scf accuracy    <       0.03377043 Ry

     iteration #  5     ecut=   147.00 Ry     beta= 0.70
     Davidson diagonalization with overlap
     ethr =  2.54E-04,  avg # of iterations =  2.0

     negative rho (up, down):  6.680E-04 0.000E+00

     total cpu time spent up to now is       77.0 secs

     total energy              =     -44.03715882 Ry
     estimated scf accuracy    <       0.00690634 Ry

     iteration #  6     ecut=   147.00 Ry     beta= 0.70
     Davidson diagonalization with overlap
     ethr =  8.63E-05,  avg # of iterations =  2.0

     negative rho (up, down):  6.847E-04 0.000E+00

     total cpu time spent up to now is       85.0 secs

     total energy              =     -44.03797243 Ry
     estimated scf accuracy    <       0.00042933 Ry

     iteration #  7     ecut=   147.00 Ry     beta= 0.70
     Davidson diagonalization with overlap
     ethr =  5.37E-06,  avg # of iterations =  4.0

     negative rho (up, down):  6.822E-04 0.000E+00

     total cpu time spent up to now is       93.9 secs

     total energy              =     -44.03838970 Ry
     estimated scf accuracy    <       0.00083962 Ry

     iteration #  8     ecut=   147.00 Ry     beta= 0.70
     Davidson diagonalization with overlap
     ethr =  5.37E-06,  avg # of iterations =  1.0

     negative rho (up, down):  6.804E-04 0.000E+00

     total cpu time spent up to now is      101.5 secs

     total energy              =     -44.03827589 Ry
     estimated scf accuracy    <       0.00040168 Ry

     iteration #  9     ecut=   147.00 Ry     beta= 0.70
     Davidson diagonalization with overlap
     ethr =  5.02E-06,  avg # of iterations =  2.0

     negative rho (up, down):  6.788E-04 0.000E+00

     total cpu time spent up to now is      109.4 secs

     total energy              =     -44.03830508 Ry
     estimated scf accuracy    <       0.00003763 Ry

     iteration # 10     ecut=   147.00 Ry     beta= 0.70
     Davidson diagonalization with overlap
     ethr =  4.70E-07,  avg # of iterations =  2.0

     negative rho (up, down):  6.783E-04 0.000E+00

     total cpu time spent up to now is      117.6 secs

     total energy              =     -44.03831083 Ry
     estimated scf accuracy    <       0.00000257 Ry

     iteration # 11     ecut=   147.00 Ry     beta= 0.70
     Davidson diagonalization with overlap
     ethr =  3.21E-08,  avg # of iterations =  4.0

     negative rho (up, down):  6.785E-04 0.000E+00

     total cpu time spent up to now is      126.3 secs

     total energy              =     -44.03831252 Ry
     estimated scf accuracy    <       0.00000130 Ry

     iteration # 12     ecut=   147.00 Ry     beta= 0.70
     Davidson diagonalization with overlap
     ethr =  1.63E-08,  avg # of iterations =  1.0

     negative rho (up, down):  6.784E-04 0.000E+00

     total cpu time spent up to now is      133.9 secs

     total energy              =     -44.03831235 Ry
     estimated scf accuracy    <       0.00000039 Ry

     iteration # 13     ecut=   147.00 Ry     beta= 0.70
     Davidson diagonalization with overlap
     ethr =  4.88E-09,  avg # of iterations =  2.0

     negative rho (up, down):  6.784E-04 0.000E+00

     total cpu time spent up to now is      142.1 secs

     total energy              =     -44.03831248 Ry
     estimated scf accuracy    <       0.00000009 Ry

     iteration # 14     ecut=   147.00 Ry     beta= 0.70
     Davidson diagonalization with overlap
     ethr =  1.13E-09,  avg # of iterations =  4.0

     negative rho (up, down):  6.785E-04 0.000E+00

     total cpu time spent up to now is      151.1 secs

     total energy              =     -44.03831243 Ry
     estimated scf accuracy    <       0.00000029 Ry

     iteration # 15     ecut=   147.00 Ry     beta= 0.70
     Davidson diagonalization with overlap
     ethr =  1.13E-09,  avg # of iterations =  3.0

     negative rho (up, down):  6.784E-04 0.000E+00

     total cpu time spent up to now is      159.0 secs

     End of self-consistent calculation

          k = 0.0000 0.0000 0.0000 (****** PWs)   bands (ev):

   -25.4152 -13.1588  -9.3136  -7.2460

     highest occupied level (ev):    -7.2460

!    total energy              =     -44.03831250 Ry
     total all-electron energy =      -152.885199 Ry
     estimated scf accuracy    <          4.5E-09 Ry

     The total energy is the sum of the following terms:
     one-electron contribution =     -76.77396600 Ry
     hartree contribution      =      40.03276963 Ry
     xc contribution           =      -8.87130103 Ry
     ewald contribution        =      11.16380323 Ry
     one-center paw contrib.   =      -9.58961832 Ry

     charge density inside the Wigner-Seitz cell:    8.00000000

     reference position (x0):         0.00836432    9.31439298   -0.22008332 bohr

     Dipole moments (with respect to x0):
     Elect   0.0215  -0.4407  -0.5648 au (Ha),   0.0546  -1.1202  -1.4355 Debye
     Ionic  -0.0000  -0.0000   0.0000 au (Ha),  -0.0000  -0.0000   0.0000 Debye
     Total   0.0215  -0.4407  -0.5648 au (Ha),   0.0546  -1.1202  -1.4355 Debye

     Electrons quadrupole moment        -20.06724457 a.u. (Ha)
          Ions quadrupole moment          5.97697340 a.u. (Ha)
         Total quadrupole moment        -14.09027118 a.u. (Ha)

     *********    MAKOV-PAYNE CORRECTION    *********

     Makov-Payne correction with Madelung constant =   2.8373

     Makov-Payne correction     0.00000000 Ry =  0.000 eV (1st order, 1/a0)
                                0.00000744 Ry =  0.000 eV (2nd order, 1/a0^3)
                                0.00000744 Ry =  0.000 eV (total)

!    Total+Makov-Payne energy  =     -44.03830506 Ry
     Corrected vacuum level    =       0.00277513 eV

     convergence has been achieved in  15 iterations

     Writing all to output data dir ./pwscf.save/

     init_run     :     33.63s CPU     35.73s WALL (       1 calls)
     electrons    :    105.79s CPU    125.59s WALL (       1 calls)

     Called by init_run:
     wfcinit      :      0.82s CPU      0.94s WALL (       1 calls)
     potinit      :      3.74s CPU      4.48s WALL (       1 calls)
     hinit0       :      1.95s CPU      2.28s WALL (       1 calls)

     Called by electrons:
     c_bands      :     25.78s CPU     27.46s WALL (      15 calls)
     sum_band     :     26.40s CPU     31.32s WALL (      15 calls)
     v_of_rho     :     31.40s CPU     38.92s WALL (      16 calls)
     newd         :     12.28s CPU     16.91s WALL (      16 calls)
     PAW_pot      :      0.18s CPU      0.19s WALL (      16 calls)
     mix_rho      :      9.91s CPU     10.65s WALL (      15 calls)

     Called by c_bands:
     init_us_2    :      0.58s CPU      0.61s WALL (      31 calls)
     init_us_2:cp :      0.58s CPU      0.61s WALL (      31 calls)
     regterg      :     25.15s CPU     26.81s WALL (      15 calls)

     Called by *egterg:
     rdiaghg      :      0.01s CPU      0.02s WALL (      53 calls)
     h_psi        :     22.97s CPU     24.63s WALL (      54 calls)
     s_psi        :      0.33s CPU      0.35s WALL (      54 calls)
     g_psi        :      0.09s CPU      0.09s WALL (      38 calls)

     Called by h_psi:
     h_psi:calbec :      0.42s CPU      0.44s WALL (      54 calls)
     vloc_psi     :     22.02s CPU     23.64s WALL (      54 calls)
     add_vuspsi   :      0.36s CPU      0.36s WALL (      54 calls)

     General routines
     calbec       :      0.54s CPU      0.57s WALL (      69 calls)
     fft          :     25.82s CPU     31.43s WALL (     144 calls)
     ffts         :      2.44s CPU      2.84s WALL (      15 calls)
     fftw         :     20.16s CPU     21.95s WALL (     234 calls)

     Parallel routines

     PWSCF        :   2m21.22s CPU   2m45.12s WALL


   This run was terminated on:  14:24:38  12Oct2023            

=------------------------------------------------------------------------------=
   JOB DONE.
=------------------------------------------------------------------------------=
