
 Primary working directories    : /scratch/sirous/43132/molpro.tbvoASSYBx
 Secondary working directories  : /scratch/sirous/43132/molpro.tbvoASSYBx
 Wavefunction directory         : /scratch/sirous/43132/
 Main file repository           : /scratch/sirous/43132/molpro.tbvoASSYBx/

 id        : karlovklimes

 Nodes                      nprocs
 nc-01.cc.karlov.mff.cuni.cz    4

 Using customized tuning parameters: mindgm=1; mindgv=20; mindgc=4; mindgr=1; noblas=0; minvec=7
 default implementation of scratch files=sf  


 Variables initialized (934), CPU time= 0.01 sec
 ***,CH3C6H4CN+CF3CN+BF3
 memory,500,m
 gdirect
 gthresh,energy=1.d-8,twoint=1.d-15,oneint=1.d-15,zero=1.d-15,orbital=1.d-8,grid=1.d-8
 symmetry,nosym
 geomtyp=xyz
                                                                                 ! Geometry
 geometry={
 O1        -0.525329794    -0.050971084     -0.314516861
 H1        -0.942006633    0.747901631     0.011252816
 H2        0.403696525    0.059785981     -0.073568368
 O2        2.0668459386481373    0.047366171396874414     0.052868861665258074
 H3        2.434828762648137    -0.5247112316031256     0.7303971886652582
 C1        2.5318510096481375    -0.42426374460312555     -1.209290248334742
 H4        2.1010339146481374    0.2268299463968744     -1.962404280334742
 H5        3.6178146966481375    -0.3734708836031256     -1.283602176334742
 H6        2.2035083916481373    -1.4441332416031256     -1.408370882334742
 }
 
 
 
 basis=aug-cc-pv5z
 
 
 
                                                                                 ! Dimer Calculation
 {rhf,accu=1.d-8;orbital,2101.2}
 eab_HF=energy
 
 
                                                                                 !monomer A
 dummy,4,5,6,7,8,9;                                                              ! NOW MONOMER B IS DUMMY
 {rhf,accu=1.d-8;orbital,2201.2}
 ea_HF=energy
                                                                                 !monomer B
 dummy,1,2,3;                                                                    !NOW MONOMER A IS DUMMY
 {rhf,accu=1.d-8;orbital,2301.2}
 eb_HF=energy
 
 E_AB_int=eab_HF-ea_HF-eb_HF
 
 
 text,results in hartree
 show,E_AB_int
 
 Commands  initialized (763), CPU time= 0.01 sec, 617 directives.
 Default parameters read. Elapsed time= 0.22 sec

 Checking input...
 Passed
1


                                         ***  PROGRAM SYSTEM MOLPRO  ***
                                       Copyright, TTI GmbH Stuttgart, 2015
                                    Version 2019.2 linked Jun  8 2019 11:26:33


 **********************************************************************************************************************************
 LABEL *   CH3C6H4CN+CF3CN+BF3                                                           
  64 bit mpp version                                                                     DATE: 06-Oct-19          TIME: 17:54:14  
 **********************************************************************************************************************************

 SHA1:             8135a10abc80eafa5b3ae28ffc55be4890dc4c84
 **********************************************************************************************************************************

 THRESHOLDS:

 ZERO    =  1.00D-15  ONEINT  =  1.00D-15  TWOINT  =  1.00D-15  PREFAC  =  1.00D-14  XXXXXX  =  1.00D-09  EORDER  =  1.00D-04
 ENERGY  =  1.00D-08  ETEST   =  0.00D+00  EDENS   =  0.00D+00  THRDEDEF=  1.00D-06  GRADIENT=  1.00D-02  STEP    =  1.00D-03
 ORBITAL =  1.00D-08  CIVEC   =  1.00D-05  COEFF   =  1.00D-04  PRINTCI =  5.00D-02  PUNCHCI =  9.90D+01  OPTGRAD =  3.00D-04
 OPTENERG=  1.00D-06  OPTSTEP =  3.00D-04  THRGRAD =  1.00D-10  COMPRESS=  1.00D-11  VARMIN  =  1.00D-07  VARMAX  =  1.00D-03
 THRDOUB =  0.00D+00  THRDIV  =  1.00D-05  THRRED  =  1.00D-07  THRPSP  =  1.00D+00  THRDC   =  1.00D-10  THRCS   =  1.00D-10
 THRNRM  =  1.00D-08  THREQ   =  0.00D+00  THRDE   =  1.00D+00  THRREF  =  1.00D-05  SPARFAC =  1.00D+00  THRDLP  =  1.00D-07
 THRDIA  =  1.00D-10  THRDLS  =  1.00D-07  THRGPS  =  0.00D+00  THRKEX  =  0.00D+00  THRDIS  =  2.00D-01  THRVAR  =  1.00D-10
 THRLOC  =  1.00D-06  THRGAP  =  1.00D-06  THRLOCT = -1.00D+00  THRGAPT = -1.00D+00  THRORB  =  1.00D-06  THRMLTP =  0.00D+00
 THRCPQCI=  1.00D-10  KEXTA   =  0.00D+00  THRCOARS=  0.00D+00  SYMTOL  =  1.00D-06  GRADTOL =  1.00D-06  THROVL  =  1.00D-08
 THRORTH =  1.00D-08  GRID    =  1.00D-08  GRIDMAX =  1.00D-03  DTMAX   =  0.00D+00  THROCCDE=  1.00D-01  THROCCDE=  1.00D-01
 THRPRINT=  2.50D-01


 Variable memory set to  500000000 words,  buffer space 

 SETTING GEOMTYP        =    XYZ
 ZSYMEL=NOSYM

 SETTING BASIS          =    AUG-CC-PV5Z


 Recomputing integrals since basis changed


 Using spherical harmonics

 Library entry O      S aug-cc-pV5Z          selected for orbital group  1
 Library entry O      P aug-cc-pV5Z          selected for orbital group  1
 Library entry O      D aug-cc-pV5Z          selected for orbital group  1
 Library entry O      F aug-cc-pV5Z          selected for orbital group  1
 Library entry O      G aug-cc-pV5Z          selected for orbital group  1
 Library entry O      H aug-cc-pV5Z          selected for orbital group  1
 Library entry H      S aug-cc-pV5Z          selected for orbital group  2
 Library entry H      P aug-cc-pV5Z          selected for orbital group  2
 Library entry H      D aug-cc-pV5Z          selected for orbital group  2
 Library entry H      F aug-cc-pV5Z          selected for orbital group  2
 Library entry H      G aug-cc-pV5Z          selected for orbital group  2
 Library entry C      S aug-cc-pV5Z          selected for orbital group  5
 Library entry C      P aug-cc-pV5Z          selected for orbital group  5
 Library entry C      D aug-cc-pV5Z          selected for orbital group  5
 Library entry C      F aug-cc-pV5Z          selected for orbital group  5
 Library entry C      G aug-cc-pV5Z          selected for orbital group  5
 Library entry C      H aug-cc-pV5Z          selected for orbital group  5


 PROGRAM * SEWARD (Integral evaluation for generally contracted gaussian basis sets)     Author: Roland Lindh, 1990

 Geometry written to block  1 of record 700


 Point group  C1  



 ATOMIC COORDINATES

 NR  ATOM    CHARGE       X              Y              Z

   1  O1      8.00   -0.992729436   -0.096321389   -0.594350729
   2  H1      1.00   -1.780134544    1.413329251    0.021264740
   3  H2      1.00    0.762875870    0.112979130   -0.139024067
   4  O2      8.00    3.905772766    0.089509092    0.099907669
   5  H3      1.00    4.601159522   -0.991560522    1.380250649
   6  C1      6.00    4.784504996   -0.801742282   -2.285227374
   7  H4      1.00    3.970378677    0.428646476   -3.708406636
   8  H5      1.00    6.836678946   -0.705757686   -2.425656566
   9  H6      1.00    4.164027373   -2.729016314   -2.661435249

 Bond lengths in Bohr (Angstrom)

 1-2  1.810534248  1-3  1.825726996  4-5  1.814263596  4-6  2.693579128  6-7  2.049901795
     ( 0.958093464)     ( 0.966133120)     ( 0.960066950)     ( 1.425380690)     ( 1.084761314)

 6-8  2.059211335  6-9  2.059346994
     ( 1.089687711)     ( 1.089759498)

 Bond angles

  2-1-3  103.75741034   4-6-7  106.65459099   4-6-8  111.72059382   4-6-9  111.90879545

  5-4-6  107.61952492   7-6-8  108.69153234   7-6-9  108.37480423   8-6-9  109.35579191

 NUCLEAR CHARGE:                   28
 NUMBER OF PRIMITIVE AOS:        1245
 NUMBER OF SYMMETRY AOS:          930
 NUMBER OF CONTRACTIONS:          861   (  861A   )
 NUMBER OF CORE ORBITALS:           3   (    3A   )
 NUMBER OF VALENCE ORBITALS:       18   (   18A   )


 NUCLEAR REPULSION ENERGY   82.61560115


 Eigenvalues of metric

         1 0.104E-05 0.125E-05 0.166E-05 0.287E-05 0.341E-05 0.583E-05 0.700E-05 0.737E-05


 OPERATOR DM      FOR CENTER  0  COORDINATES:    0.000000    0.000000    0.000000


 **********************************************************************************************************************************
 DATASETS  * FILE   NREC   LENGTH (MB)   RECORD NAMES
              1      18       57.10       500      610      700      900      950      970     1000      129      960     1100   
                                          VAR    BASINP    GEOM    SYMINP    ZMAT    AOBASIS   BASIS     P2S    ABASIS      S 
                                         1400     1410     1200     1210     1080     1600     1650     1700   
                                           T        V       H0       H01     AOSYM     SMH    MOLCAS    OPER   

 PROGRAMS   *        TOTAL       INT
 CPU TIMES  *         1.76      1.56
 REAL TIME  *         3.05 SEC
 DISK USED  *        57.81 MB (local),      231.24 MB (total)
 GA USED    *         0.00 MB       (max)       0.00 MB       (current)
 **********************************************************************************************************************************


 PROGRAM * RHF-SCF (CLOSED SHELL)       Authors: W. Meyer, H.-J. Werner


 NUMBER OF ELECTRONS:      14+   14-    SPACE SYMMETRY=1    SPIN SYMMETRY: Singlet 
 CONVERGENCE THRESHOLDS:    1.00E-04 (Density)    1.00E-09 (Energy)
 INTEGRAL THRESHOLDS:       1.00E-12 (Initial)    1.00E-12 (Final)
 MAX. NUMBER OF ITERATIONS:       60
 INTERPOLATION TYPE:            DIIS
 INTERPOLATION STEPS:              2 (START)      1 (STEP)
 LEVEL SHIFTS:                  0.00 (CLOSED)  0.00 (OPEN) 



 Orbital guess generated from atomic densities. Full valence occupancy:   21

 Molecular orbital dump at record        2101.2

 Initial occupancy:  14

 Direct Fock-matrix evaluation.        Authors: Roland Lindh & Martin Schuetz (1993/96)

 Integral Threshold:                  0.1D-11
 Threshold for writing integrals:     0.1D-06
 Prescreening on density matrix:        ON 
 Calculation will be performed fully direct        

 ITERATION   DDIFF            GRAD            ENERGY        2-EL.EN.            DIPOLE MOMENTS         DIIS   CPU(IT)  CPU(TOT)
    1      0.000D+00      0.000D+00      -191.09919118    307.904856    1.39729    0.05013    0.48966    0   2197.6   2220.7     start
    2      0.000D+00      0.262D-02      -191.15357778    302.458750    1.04653   -0.04088    0.18043    1   2119.6   4340.3     diag
    3      0.147D-02      0.149D-02      -191.16976477    304.939759    1.11250    0.00014    0.22329    2   2028.6   6368.9     diag
    4      0.523D-03      0.217D-03      -191.17047403    304.707014    1.10045   -0.00903    0.21938    3   1885.0   8253.9     diag
    5      0.105D-03      0.488D-04      -191.17052319    304.719461    1.09619   -0.00601    0.21482    4   1818.6  10072.4     diag
    6      0.286D-04      0.121D-04      -191.17052613    304.721221    1.09604   -0.00745    0.21358    5   1678.0  11750.5     diag
    7      0.924D-05      0.555D-05      -191.17052652    304.717657    1.09578   -0.00696    0.21369    6   1539.5  13290.0     diag
    8      0.314D-05      0.125D-05      -191.17052656    304.718387    1.09572   -0.00700    0.21351    7   1423.5  14713.5     diag
    9      0.118D-05      0.255D-06      -191.17052656    304.718263    1.09570   -0.00702    0.21350    8   1174.6  15888.0     diag
   10      0.207D-06      0.695D-07      -191.17052656    304.718300    1.09570   -0.00702    0.21349    0    952.7  16840.7     orth

 Final occupancy:  14

 !RHF STATE  1.1 Energy              -191.170526558931
 Nuclear energy                        82.61560115
 One-electron energy                 -426.14527786
 Two-electron energy                  152.35915015
 Virial quotient                       -1.00058106
 !RHF STATE  1.1 Dipole moment          1.09569792    -0.00701740     0.21349456
 Dipole moment /Debye                   2.78480391    -0.01783528     0.54261351

 Orbital energies:

         1.1          2.1          3.1          4.1          5.1          6.1          7.1          8.1          9.1         10.1
    -20.583259   -20.518789   -11.283209    -1.389256    -1.310936    -0.944176    -0.729055    -0.687992    -0.631667    -0.613746

        11.1         12.1         13.1         14.1         15.1         16.1
     -0.554845    -0.520929    -0.475870    -0.469760     0.018561     0.031187


 HOMO     14.1    -0.469760 =     -12.7828eV
 LUMO     15.1     0.018561 =       0.5051eV
 LUMO-HOMO         0.488321 =      13.2879eV


 **********************************************************************************************************************************
 DATASETS  * FILE   NREC   LENGTH (MB)   RECORD NAMES
              1      18       57.10       500      610      700      900      950      970     1000      129      960     1100   
                                          VAR    BASINP    GEOM    SYMINP    ZMAT    AOBASIS   BASIS     P2S    ABASIS      S 
                                         1400     1410     1200     1210     1080     1600     1650     1700   
                                           T        V       H0       H01     AOSYM     SMH    MOLCAS    OPER   

              2       4       17.89       700     1000      520     2101   
                                         GEOM     BASIS   MCVARS     RHF  

 PROGRAMS   *        TOTAL   RHF-SCF       INT
 CPU TIMES  *     16843.43  16841.67      1.56
 REAL TIME  *     16921.20 SEC
 DISK USED  *       125.65 MB (local),      502.62 MB (total)
 SF USED    *         8.91 MB
 GA USED    *         0.00 MB       (max)       0.00 MB       (current)
 **********************************************************************************************************************************
 SETTING EAB_HF         =      -191.17052656  AU                              

 Dummy atoms: O2  H3  C1  H4  H5  H6


 Recomputing one-electron integrals since nuclear charges changed


 PROGRAM * SEWARD (Integral evaluation for generally contracted gaussian basis sets)     Author: Roland Lindh, 1990

 Geometry written to block  1 of record 700


 Point group  C1  



 ATOMIC COORDINATES

 NR  ATOM    CHARGE       X              Y              Z

   1  O1      8.00   -0.992729436   -0.096321389   -0.594350729
   2  H1      1.00   -1.780134544    1.413329251    0.021264740
   3  H2      1.00    0.762875870    0.112979130   -0.139024067
   4  O2      0.00    3.905772766    0.089509092    0.099907669
   5  H3      0.00    4.601159522   -0.991560522    1.380250649
   6  C1      0.00    4.784504996   -0.801742282   -2.285227374
   7  H4      0.00    3.970378677    0.428646476   -3.708406636
   8  H5      0.00    6.836678946   -0.705757686   -2.425656566
   9  H6      0.00    4.164027373   -2.729016314   -2.661435249

 Bond lengths in Bohr (Angstrom)

 1-2  1.810534248  1-3  1.825726996  4-5  1.814263596  4-6  2.693579128  6-7  2.049901795
     ( 0.958093464)     ( 0.966133120)     ( 0.960066950)     ( 1.425380690)     ( 1.084761314)

 6-8  2.059211335  6-9  2.059346994
     ( 1.089687711)     ( 1.089759498)

 Bond angles

  2-1-3  103.75741034   4-6-7  106.65459099   4-6-8  111.72059382   4-6-9  111.90879545

  5-4-6  107.61952492   7-6-8  108.69153234   7-6-9  108.37480423   8-6-9  109.35579191

 NUCLEAR CHARGE:                   10
 NUMBER OF PRIMITIVE AOS:        1245
 NUMBER OF SYMMETRY AOS:          930
 NUMBER OF CONTRACTIONS:          861   (  861A   )
 NUMBER OF CORE ORBITALS:           1   (    1A   )
 NUMBER OF VALENCE ORBITALS:        6   (    6A   )

 MOLECULE CHANGED: INITIALIZING OCCUPATION AND DUMP RECORDS


 NUCLEAR REPULSION ENERGY    9.14996834


 Eigenvalues of metric

         1 0.104E-05 0.125E-05 0.166E-05 0.287E-05 0.341E-05 0.583E-05 0.700E-05 0.737E-05


 OPERATOR DM      FOR CENTER  0  COORDINATES:    0.000000    0.000000    0.000000


 **********************************************************************************************************************************
 DATASETS  * FILE   NREC   LENGTH (MB)   RECORD NAMES
              1      18       57.10       500      610      700      900      950      970     1000      129      960     1100   
                                          VAR    BASINP    GEOM    SYMINP    ZMAT    AOBASIS   BASIS     P2S    ABASIS      S 
                                         1400     1410     1200     1210     1080     1600     1650     1700   
                                           T        V       H0       H01     AOSYM     SMH    MOLCAS    OPER   

              2       4       17.89       700     1000      520     2101   
                                         GEOM     BASIS   MCVARS     RHF  

 PROGRAMS   *        TOTAL       INT   RHF-SCF       INT
 CPU TIMES  *     16844.67      1.23  16841.67      1.56
 REAL TIME  *     16922.57 SEC
 DISK USED  *       125.65 MB (local),      502.62 MB (total)
 SF USED    *         8.91 MB
 GA USED    *         0.00 MB       (max)       0.00 MB       (current)
 **********************************************************************************************************************************


 PROGRAM * RHF-SCF (CLOSED SHELL)       Authors: W. Meyer, H.-J. Werner


 NUMBER OF ELECTRONS:       5+    5-    SPACE SYMMETRY=1    SPIN SYMMETRY: Singlet 
 CONVERGENCE THRESHOLDS:    1.00E-04 (Density)    1.00E-09 (Energy)
 INTEGRAL THRESHOLDS:       1.00E-12 (Initial)    1.00E-12 (Final)
 MAX. NUMBER OF ITERATIONS:       60
 INTERPOLATION TYPE:            DIIS
 INTERPOLATION STEPS:              2 (START)      1 (STEP)
 LEVEL SHIFTS:                  0.00 (CLOSED)  0.00 (OPEN) 



 Orbital guess generated from atomic densities. Full valence occupancy:    7

 Molecular orbital dump at record        2201.2

 Initial occupancy:   5

 Direct Fock-matrix evaluation.        Authors: Roland Lindh & Martin Schuetz (1993/96)

 Integral Threshold:                  0.1D-11
 Threshold for writing integrals:     0.1D-06
 Prescreening on density matrix:        ON 
 Calculation will be performed fully direct        

 ITERATION   DDIFF            GRAD            ENERGY        2-EL.EN.            DIPOLE MOMENTS         DIIS   CPU(IT)  CPU(TOT)
    1      0.000D+00      0.000D+00       -76.02841680     77.622230    0.49661    0.87647    0.54665    0   2084.2   2095.9     start
    2      0.000D+00      0.333D-02       -76.05543187     74.016407    0.28947    0.51602    0.32126    1   1987.2   4083.1     diag
    3      0.112D-02      0.209D-02       -76.06663661     75.609157    0.34072    0.60627    0.37758    2   1891.5   5974.6     diag
    4      0.418D-03      0.197D-03       -76.06682311     75.518549    0.33861    0.60347    0.37572    3   1725.2   7699.8     diag
    5      0.525D-04      0.537D-04       -76.06684224     75.532826    0.33784    0.60251    0.37508    4   1637.1   9337.0     diag
    6      0.163D-04      0.104D-04       -76.06684341     75.531875    0.33768    0.60235    0.37496    5   1477.5  10814.4     diag
    7      0.443D-05      0.209D-05       -76.06684347     75.532011    0.33763    0.60228    0.37492    6   1312.2  12126.6     diag
    8      0.127D-05      0.401D-06       -76.06684347     75.532002    0.33761    0.60226    0.37491    7    981.9  13108.5     diag
    9      0.210D-06      0.518D-07       -76.06684347     75.531988    0.33761    0.60226    0.37490    0    740.6  13849.2     orth

 Final occupancy:   5

 !RHF STATE  1.1 Energy               -76.066843469424
 Nuclear energy                         9.14996834
 One-electron energy                 -122.98280573
 Two-electron energy                   37.76599392
 Virial quotient                       -1.00112664
 !RHF STATE  1.1 Dipole moment          0.33760685     0.60225603     0.37490471
 Dipole moment /Debye                   0.85805482     1.53068188     0.95285032

 Orbital energies:

         1.1          2.1          3.1          4.1          5.1          6.1          7.1
    -20.565202    -1.350690    -0.713656    -0.585519    -0.510342     0.015112     0.028728


 HOMO      5.1    -0.510342 =     -13.8871eV
 LUMO      6.1     0.015112 =       0.4112eV
 LUMO-HOMO         0.525454 =      14.2983eV


 **********************************************************************************************************************************
 DATASETS  * FILE   NREC   LENGTH (MB)   RECORD NAMES
              1      18       57.10       500      610      700      900      950      970     1000      129      960     1100   
                                          VAR    BASINP    GEOM    SYMINP    ZMAT    AOBASIS   BASIS     P2S    ABASIS      S 
                                         1400     1410     1200     1210     1080     1600     1650     1700   
                                           T        V       H0       H01     AOSYM     SMH    MOLCAS    OPER   

              2       5       50.08       700     1000      520     2101     2201   
                                         GEOM     BASIS   MCVARS     RHF      RHF  

 PROGRAMS   *        TOTAL   RHF-SCF       INT   RHF-SCF       INT
 CPU TIMES  *     30694.77  13850.09      1.23  16841.67      1.56
 REAL TIME  *     30835.54 SEC
 DISK USED  *       154.88 MB (local),      619.50 MB (total)
 SF USED    *         8.91 MB
 GA USED    *         0.00 MB       (max)       0.00 MB       (current)
 **********************************************************************************************************************************
 SETTING EA_HF          =       -76.06684347  AU                              

 Dummy atoms: O1  H1  H2


 Recomputing one-electron integrals since nuclear charges changed


 PROGRAM * SEWARD (Integral evaluation for generally contracted gaussian basis sets)     Author: Roland Lindh, 1990

 Geometry written to block  1 of record 700


 Point group  C1  



 ATOMIC COORDINATES

 NR  ATOM    CHARGE       X              Y              Z

   1  O1      0.00   -0.992729436   -0.096321389   -0.594350729
   2  H1      0.00   -1.780134544    1.413329251    0.021264740
   3  H2      0.00    0.762875870    0.112979130   -0.139024067
   4  O2      8.00    3.905772766    0.089509092    0.099907669
   5  H3      1.00    4.601159522   -0.991560522    1.380250649
   6  C1      6.00    4.784504996   -0.801742282   -2.285227374
   7  H4      1.00    3.970378677    0.428646476   -3.708406636
   8  H5      1.00    6.836678946   -0.705757686   -2.425656566
   9  H6      1.00    4.164027373   -2.729016314   -2.661435249

 Bond lengths in Bohr (Angstrom)

 1-2  1.810534248  1-3  1.825726996  4-5  1.814263596  4-6  2.693579128  6-7  2.049901795
     ( 0.958093464)     ( 0.966133120)     ( 0.960066950)     ( 1.425380690)     ( 1.084761314)

 6-8  2.059211335  6-9  2.059346994
     ( 1.089687711)     ( 1.089759498)

 Bond angles

  2-1-3  103.75741034   4-6-7  106.65459099   4-6-8  111.72059382   4-6-9  111.90879545

  5-4-6  107.61952492   7-6-8  108.69153234   7-6-9  108.37480423   8-6-9  109.35579191

 NUCLEAR CHARGE:                   18
 NUMBER OF PRIMITIVE AOS:        1245
 NUMBER OF SYMMETRY AOS:          930
 NUMBER OF CONTRACTIONS:          861   (  861A   )
 NUMBER OF CORE ORBITALS:           2   (    2A   )
 NUMBER OF VALENCE ORBITALS:       12   (   12A   )

 MOLECULE CHANGED: INITIALIZING OCCUPATION AND DUMP RECORDS


 NUCLEAR REPULSION ENERGY   40.29463209


 Eigenvalues of metric

         1 0.104E-05 0.125E-05 0.166E-05 0.287E-05 0.341E-05 0.583E-05 0.700E-05 0.737E-05


 OPERATOR DM      FOR CENTER  0  COORDINATES:    0.000000    0.000000    0.000000


 **********************************************************************************************************************************
 DATASETS  * FILE   NREC   LENGTH (MB)   RECORD NAMES
              1      18       57.10       500      610      700      900      950      970     1000      129      960     1100   
                                          VAR    BASINP    GEOM    SYMINP    ZMAT    AOBASIS   BASIS     P2S    ABASIS      S 
                                         1400     1410     1200     1210     1080     1600     1650     1700   
                                           T        V       H0       H01     AOSYM     SMH    MOLCAS    OPER   

              2       5       50.08       700     1000      520     2101     2201   
                                         GEOM     BASIS   MCVARS     RHF      RHF  

 PROGRAMS   *        TOTAL       INT   RHF-SCF       INT   RHF-SCF       INT
 CPU TIMES  *     30696.00      1.23  13850.09      1.23  16841.67      1.56
 REAL TIME  *     30836.89 SEC
 DISK USED  *       154.88 MB (local),      619.50 MB (total)
 SF USED    *         8.91 MB
 GA USED    *         0.00 MB       (max)       0.00 MB       (current)
 **********************************************************************************************************************************


 PROGRAM * RHF-SCF (CLOSED SHELL)       Authors: W. Meyer, H.-J. Werner


 NUMBER OF ELECTRONS:       9+    9-    SPACE SYMMETRY=1    SPIN SYMMETRY: Singlet 
 CONVERGENCE THRESHOLDS:    1.00E-04 (Density)    1.00E-09 (Energy)
 INTEGRAL THRESHOLDS:       1.00E-12 (Initial)    1.00E-12 (Final)
 MAX. NUMBER OF ITERATIONS:       60
 INTERPOLATION TYPE:            DIIS
 INTERPOLATION STEPS:              2 (START)      1 (STEP)
 LEVEL SHIFTS:                  0.00 (CLOSED)  0.00 (OPEN) 



 Orbital guess generated from atomic densities. Full valence occupancy:   14

 Molecular orbital dump at record        2301.2

 Initial occupancy:   9

 Direct Fock-matrix evaluation.        Authors: Roland Lindh & Martin Schuetz (1993/96)

 Integral Threshold:                  0.1D-11
 Threshold for writing integrals:     0.1D-06
 Prescreening on density matrix:        ON 
 Calculation will be performed fully direct        

 ITERATION   DDIFF            GRAD            ENERGY        2-EL.EN.            DIPOLE MOMENTS         DIIS   CPU(IT)  CPU(TOT)
    1      0.000D+00      0.000D+00      -115.06478126    164.408897    0.62023   -0.82137   -0.07742    0   2146.7   2164.8     start
    2      0.000D+00      0.226D-02      -115.09320308    161.810391    0.35074   -0.46013   -0.07959    1   2054.7   4219.6     diag
    3      0.100D-02      0.125D-02      -115.10082477    163.081042    0.43411   -0.56651   -0.12284    2   1954.5   6174.0     diag
    4      0.360D-03      0.244D-03      -115.10135932    162.906171    0.42997   -0.56125   -0.12019    3   1867.7   8041.7     diag
    5      0.891D-04      0.490D-04      -115.10139397    162.917153    0.42932   -0.55966   -0.12612    4   1743.2   9784.9     diag
    6      0.234D-04      0.923D-05      -115.10139557    162.915028    0.42965   -0.56002   -0.12674    5   1586.4  11371.3     diag
    7      0.735D-05      0.198D-05      -115.10139564    162.914557    0.42964   -0.55997   -0.12707    6   1438.1  12809.4     diag
    8      0.185D-05      0.530D-06      -115.10139565    162.914944    0.42964   -0.55997   -0.12710    7   1203.3  14012.7     diag
    9      0.351D-06      0.166D-06      -115.10139565    162.914773    0.42964   -0.55996   -0.12711    0    944.8  14957.5     orth

 Final occupancy:   9

 !RHF STATE  1.1 Energy              -115.101395648316
 Nuclear energy                        40.29463209
 One-electron energy                 -236.85341432
 Two-electron energy                   81.45738658
 Virial quotient                       -1.00101969
 !RHF STATE  1.1 Dipole moment          0.42963764    -0.55996318    -0.12711211
 Dipole moment /Debye                   1.09195843    -1.42319121    -0.32306559

 Orbital energies:

         1.1          2.1          3.1          4.1          5.1          6.1          7.1          8.1          9.1         10.1
    -20.555643   -11.269446    -1.355294    -0.926566    -0.690275    -0.621231    -0.592308    -0.505647    -0.452910     0.020801

        11.1
      0.032011


 HOMO      9.1    -0.452910 =     -12.3243eV
 LUMO     10.1     0.020801 =       0.5660eV
 LUMO-HOMO         0.473711 =      12.8903eV


 **********************************************************************************************************************************
 DATASETS  * FILE   NREC   LENGTH (MB)   RECORD NAMES
              1      18       57.10       500      610      700      900      950      970     1000      129      960     1100   
                                          VAR    BASINP    GEOM    SYMINP    ZMAT    AOBASIS   BASIS     P2S    ABASIS      S 
                                         1400     1410     1200     1210     1080     1600     1650     1700   
                                           T        V       H0       H01     AOSYM     SMH    MOLCAS    OPER   

              2       6       82.27       700     1000      520     2101     2201     2301   
                                         GEOM     BASIS   MCVARS     RHF      RHF      RHF  

 PROGRAMS   *        TOTAL   RHF-SCF       INT   RHF-SCF       INT   RHF-SCF       INT
 CPU TIMES  *     45654.40  14958.39      1.23  13850.09      1.23  16841.67      1.56
 REAL TIME  *     45862.02 SEC
 DISK USED  *       187.07 MB (local),      748.27 MB (total)
 SF USED    *         8.91 MB
 GA USED    *         0.00 MB       (max)       0.00 MB       (current)
 **********************************************************************************************************************************
 SETTING EB_HF          =      -115.10139565  AU                              
 SETTING E_AB_INT       =        -0.00228744  AU                              

 *** results in hartree
 E_AB_INT         =        -0.00228744 AU
 Molecular orbitals read from record     2301.2  Type=RHF/CANONICAL (state 1.1)
 Occupation numbers read from record     2301.2  Type=RHF/RHF (state 1.1)
 Orbital energies read from record       2301.2  Type=RHF/CANONICAL (state 1.1)
 Redundancy group numbers read from rec  2301.2  Type=RHF/RHF (state 1.1)

 RHF/aug-cc-pV5Z energy=   -115.101395648316

         RHF-SCF         RHF-SCF         RHF-SCF
   -115.10139565    -76.06684347   -191.17052656
 **********************************************************************************************************************************
 Molpro calculation terminated
