 vasp.5.4.1 24Jun15 (build Jan 02 2020 16:21:29) gamma-only                     
  
 executed on           IFC15_impi date 2020.04.20  13:32:14
 running on   32 total cores
 distrk:  each k-point on   32 cores,    1 groups
 distr:  one band on NCORES_PER_BAND=   8 cores,    4 groups


--------------------------------------------------------------------------------------------------------


 INCAR:
 POTCAR:    PAW_PBE C_h 06Feb2004                 
 POTCAR:    PAW_PBE H_h 06Feb2004                 
 POTCAR:    PAW_PBE C_h 06Feb2004                 
   VRHFIN =C: s2p2                                                              
   LEXCH  = PE                                                                  
   EATOM  =   147.1560 eV,   10.8157 Ry                                         
                                                                                
   TITEL  = PAW_PBE C_h 06Feb2004                                               
   LULTRA =        F    use ultrasoft PP ?                                      
   IUNSCR =        1    unscreen: 0-lin 1-nonlin 2-no                           
   RPACOR =    0.800    partial core radius                                     
   POMASS =   12.011; ZVAL   =    4.000    mass and valenz                      
   RCORE  =    1.100    outmost cutoff radius                                   
   RWIGS  =    1.630; RWIGS  =    0.863    wigner-seitz radius (au A)           
   ENMAX  =  700.000; ENMIN  =  500.000 eV                                      
   ICORE  =        2    local potential                                         
   LCOR   =        T    correct aug charges                                     
   LPAW   =        T    paw PP                                                  
   EAUG   =  946.768                                                            
   DEXC   =    0.000                                                            
   RMAX   =    1.128    core radius for proj-oper                               
   RAUG   =    1.300    factor for augmentation sphere                          
   RDEP   =    1.162    radius for radial grids                                 
   RDEPT  =    1.088    core radius for aug-charge                              
                                                                                
   Atomic configuration                                                         
    4 entries                                                                   
     n  l   j            E        occ.                                          
     1  0  0.50      -273.3789   2.0000                                         
     2  0  0.50       -13.7508   2.0000                                         
     2  1  0.50        -5.2854   2.0000                                         
     3  2  1.50        -5.4423   0.0000                                         
   Description                                                                  
     l       E           TYP  RCUT    TYP  RCUT                                 
     0    -13.7508458     23  1.100                                             
     0     -8.2022199     23  1.100                                             
     1     -5.2854383     23  1.100                                             
     1      1.1560700     23  1.100                                             
     2     -5.4423304      7  1.100                                             
  local pseudopotential read in
  partial core-charges read in
  partial kinetic energy density read in
  atomic valenz-charges read in
  non local Contribution for L=           0  read in
    real space projection operators read in
  non local Contribution for L=           0  read in
    real space projection operators read in
  non local Contribution for L=           1  read in
    real space projection operators read in
  non local Contribution for L=           1  read in
    real space projection operators read in
    PAW grid and wavefunctions read in
 
   number of l-projection  operators is LMAX  =           4
   number of lm-projection operators is LMMAX =           8
 
 POTCAR:    PAW_PBE H_h 06Feb2004                 
   VRHFIN =H: ultrasoft test                                                    
   LEXCH  = PE                                                                  
   EATOM  =    12.4884 eV,    0.9179 Ry                                         
                                                                                
   TITEL  = PAW_PBE H_h 06Feb2004                                               
   LULTRA =        F    use ultrasoft PP ?                                      
   IUNSCR =        0    unscreen: 0-lin 1-nonlin 2-no                           
   RPACOR =    0.000    partial core radius                                     
   POMASS =    1.000; ZVAL   =    1.000    mass and valenz                      
   RCORE  =    0.800    outmost cutoff radius                                   
   RWIGS  =    0.700; RWIGS  =    0.370    wigner-seitz radius (au A)           
   ENMAX  =  700.000; ENMIN  =  350.000 eV                                      
   RCLOC  =    0.701    cutoff for local pot                                    
   LCOR   =        T    correct aug charges                                     
   LPAW   =        T    paw PP                                                  
   EAUG   = 1000.000                                                            
   RMAX   =    0.819    core radius for proj-oper                               
   RAUG   =    1.000    factor for augmentation sphere                          
   RDEP   =    0.817    radius for radial grids                                 
   RDEPT  =    0.817    core radius for aug-charge                              
                                                                                
   Atomic configuration                                                         
    2 entries                                                                   
     n  l   j            E        occ.                                          
     1  0  0.50        -6.4927   1.0000                                         
     2  1  0.50        -3.4015   0.0000                                         
   Description                                                                  
     l       E           TYP  RCUT    TYP  RCUT                                 
     0     -6.4927493     23  0.800                                             
     0      6.8029130     23  0.800                                             
     1     -6.8029130     23  0.800                                             
  local pseudopotential read in
  atomic valenz-charges read in
  non local Contribution for L=           0  read in
    real space projection operators read in
  non local Contribution for L=           0  read in
    real space projection operators read in
  non local Contribution for L=           1  read in
    real space projection operators read in
    PAW grid and wavefunctions read in
 
   number of l-projection  operators is LMAX  =           3
   number of lm-projection operators is LMMAX =           5
 
  PAW_PBE C_h 06Feb2004                 :
 energy of atom  1       EATOM= -147.1560
 kinetic energy error for atom=    0.0004 (will be added to EATOM!!)
  PAW_PBE H_h 06Feb2004                 :
 energy of atom  2       EATOM=  -12.4884
 kinetic energy error for atom=    0.0001 (will be added to EATOM!!)
 
 
 POSCAR: C H                                     
  positions in cartesian coordinates
  No initial velocities read in
 exchange correlation table for  LEXCH =        8
   RHO(1)=    0.500       N(1)  =     2000
   RHO(2)=  100.500       N(2)  =     4000
 


--------------------------------------------------------------------------------------------------------


 ion  position               nearest neighbor table
   1  0.983  0.002  0.017-   3 1.06   2 1.21
   2  0.017  0.002  0.017-   4 1.06   1 1.21
   3  0.952  0.002  0.017-   1 1.06
   4  0.048  0.002  0.017-   2 1.06
 
  LATTYP: Found a simple cubic cell.
 ALAT       =    35.0000000000
  
  Lattice vectors:
  
 A1 = (  35.0000000000,   0.0000000000,   0.0000000000)
 A2 = (   0.0000000000,  35.0000000000,   0.0000000000)
 A3 = (   0.0000000000,   0.0000000000,  35.0000000000)


Analysis of symmetry for initial positions (statically):
=====================================================================
 Subroutine PRICEL returns:
 Original cell was already a primitive cell.
 

 Routine SETGRP: Setting up the symmetry group for a 
 simple cubic supercell.


 Subroutine GETGRP returns: Found  1 space group operations
 (whereof  1 operations were pure point group operations)
 out of a pool of 48 trial point group operations.


The static configuration has the point symmetry C_1 .


Analysis of symmetry for dynamics (positions and initial velocities):
=====================================================================
 Subroutine PRICEL returns:
 Original cell was already a primitive cell.
 

 Routine SETGRP: Setting up the symmetry group for a 
 simple cubic supercell.


 Subroutine GETGRP returns: Found  1 space group operations
 (whereof  1 operations were pure point group operations)
 out of a pool of 48 trial point group operations.


The dynamic configuration has the point symmetry C_1 .
 
 
 KPOINTS: automatic mesh                          

Automatic generation of k-mesh.
Space group operators:
 irot       det(A)        alpha          n_x          n_y          n_z        tau_x        tau_y        tau_z
    1     1.000000     0.000000     1.000000     0.000000     0.000000     0.000000     0.000000     0.000000
 
 Subroutine IBZKPT returns following result:
 ===========================================
 
 Found      1 irreducible k-points:
 
 Following reciprocal coordinates:
            Coordinates               Weight
  0.000000  0.000000  0.000000      1.000000
 
 Following cartesian coordinates:
            Coordinates               Weight
  0.000000  0.000000  0.000000      1.000000
 
 
 Subroutine IBZKPT_HF returns following result:
 ==============================================
 
 Found      1 k-points in 1st BZ
 the following      1 k-points will be used (e.g. in the exchange kernel)
 Following reciprocal coordinates:   # in IRBZ
  0.000000  0.000000  0.000000    1.00000000   1 t-inv F


--------------------------------------------------------------------------------------------------------




 Dimension of arrays:
   k-points           NKPTS =      1   k-points in BZ     NKDIM =      1   number of bands    NBANDS=     12
   number of dos      NEDOS =    301   number of ions     NIONS =      4
   non local maximal  LDIM  =      4   non local SUM 2l+1 LMDIM =      8
   total plane-waves  NPLWV = ******
   max r-space proj   IRMAX =      1   max aug-charges    IRDMAX=  20964
   dimension x,y,z NGX =   512 NGY =  512 NGZ =  512
   dimension x,y,z NGXF=  1024 NGYF= 1024 NGZF= 1024
   support grid    NGXF=  1024 NGYF= 1024 NGZF= 1024
   ions per type =               2   2
 NGX,Y,Z   is equivalent  to a cutoff of  24.32, 24.32, 24.32 a.u.
 NGXF,Y,Z  is equivalent  to a cutoff of  48.64, 48.64, 48.64 a.u.


 I would recommend the setting:
   dimension x,y,z NGX =   511 NGY =  511 NGZ =  511
 SYSTEM =  C                                       
 POSCAR =  C H                                     

 Startparameter for this run:
   NWRITE =      2    write-flag & timer
   PREC   = accura    normal or accurate (medium, high low for compatibility)
   ISTART =      0    job   : 0-new  1-cont  2-samecut
   ICHARG =      2    charge: 1-file 2-atom 10-const
   ISPIN  =      1    spin polarized calculation?
   LNONCOLLINEAR =      F non collinear calculations
   LSORBIT =      F    spin-orbit coupling
   INIWAV =      1    electr: 0-lowe 1-rand  2-diag
   LASPH  =      T    aspherical Exc in radial PAW
   METAGGA=      F    non-selfconsistent MetaGGA calc.

 Electronic Relaxation 1
   ENCUT  = 2000.0 eV 147.00 Ry   12.12 a.u. 127.63127.63127.63*2*pi/ulx,y,z
   ENINI  = 2000.0     initial cutoff
   ENAUG  = 1000.0 eV  augmentation charge cutoff
   NELM   =     60;   NELMIN=  2; NELMDL= -5     # of ELM steps 
   EDIFF  = 0.1E-06   stopping-criterion for ELM
   LREAL  =      F    real-space projection
   NLSPLINE    = F    spline interpolate recip. space projectors
   LCOMPAT=      F    compatible to vasp.4.4
   GGA_COMPAT  = T    GGA compatible to vasp.4.4-vasp.4.6
   LMAXPAW     = -100 max onsite density
   LMAXMIX     =    2 max onsite mixed and CHGCAR
   VOSKOWN=      0    Vosko Wilk Nusair interpolation
   ROPT   =    0.00000   0.00000
 Ionic relaxation
   EDIFFG = 0.1E-05   stopping-criterion for IOM
   NSW    =      0    number of steps for IOM
   NBLOCK =      1;   KBLOCK =      1    inner block; outer block 
   IBRION =     -1    ionic relax: 0-MD 1-quasi-New 2-CG
   NFREE  =      0    steps in history (QN), initial steepest desc. (CG)
   ISIF   =      0    stress and relaxation
   IWAVPR =     10    prediction:  0-non 1-charg 2-wave 3-comb
   ISYM   =      3    0-nonsym 1-usesym 2-fastsym
   LCORR  =      T    Harris-Foulkes like correction to forces

   POTIM  = 0.5000    time-step for ionic-motion
   TEIN   =    0.0    initial temperature
   TEBEG  =    0.0;   TEEND  =   0.0 temperature during run
   SMASS  =  -3.00    Nose mass-parameter (am)
   estimated Nose-frequenzy (Omega)   =  0.10E-29 period in steps =****** mass=  -0.280E-25a.u.
   SCALEE = 1.0000    scale energy and forces
   NPACO  =    256;   APACO  = 16.0  distance and # of slots for P.C.
   PSTRESS=    0.0 pullay stress

  Mass of Ions in am
   POMASS =  12.01  1.00
  Ionic Valenz
   ZVAL   =   4.00  1.00
  Atomic Wigner-Seitz radii
   RWIGS  =  -1.00 -1.00
  virtual crystal weights 
   VCA    =   1.00  1.00
   NELECT =      10.0000    total number of electrons
   NUPDOWN=      -1.0000    fix difference up-down

 DOS related values:
   EMIN   =  10.00;   EMAX   =-10.00  energy-range for DOS
   EFERMI =   0.00
   ISMEAR =     0;   SIGMA  =   0.01  broadening in eV -4-tet -1-fermi 0-gaus

 Electronic relaxation 2 (details)
   IALGO  =     58    algorithm
   LDIAG  =      T    sub-space diagonalisation (order eigenvalues)
   LSUBROT=      F    optimize rotation matrix (better conditioning)
   TURBO    =      0    0=normal 1=particle mesh
   IRESTART =      0    0=no restart 2=restart with 2 vectors
   NREBOOT  =      0    no. of reboots
   NMIN     =      0    reboot dimension
   EREF     =   0.00    reference energy to select bands
   IMIX   =      4    mixing-type and parameters
     AMIX     =   0.40;   BMIX     =  1.00
     AMIX_MAG =   1.60;   BMIX_MAG =  1.00
     AMIN     =   0.10
     WC   =   100.;   INIMIX=   1;  MIXPRE=   1;  MAXMIX= -45

 Intra band minimization:
   WEIMIN = 0.0000     energy-eigenvalue tresh-hold
   EBREAK =  0.21E-08  absolut break condition
   DEPER  =   0.30     relativ break condition  

   TIME   =   0.40     timestep for ELM

  volume/ion in A,a.u.               =   10718.75     72333.69
  Fermi-wavevector in a.u.,A,eV,Ry     =   0.100772  0.190432  0.138167  0.010155
  Thomas-Fermi vector in A             =   0.676899
 
 Write flags
   LWAVE  =      F    write WAVECAR
   LCHARG =      T    write CHGCAR
   LVTOT  =      F    write LOCPOT, total local potential
   LVHAR  =      F    write LOCPOT, Hartree potential only
   LELF   =      F    write electronic localiz. function (ELF)
   LORBIT =      0    0 simple, 1 ext, 2 COOP (PROOUT)


 Dipole corrections
   LMONO  =      F    monopole corrections only (constant potential shift)
   LDIPOL =      F    correct potential (dipole corrections)
   IDIPOL =      0    1-x, 2-y, 3-z, 4-all directions 
   EPSILON=  1.0000000 bulk dielectric constant

 Exchange correlation treatment:
   GGA     =    --    GGA type
   LEXCH   =     8    internal setting for exchange type
   VOSKOWN=      0    Vosko Wilk Nusair interpolation
   EXXOEP  =     0    0=HF, 1=EXX-LHF (local Hartree Fock) 2=EXX OEP
   LHFCALC =     T    Hartree Fock is set to
   LSYMGRAD=     F    symmetrize gradient (conserves proper symmetry)
   PRECFOCK=normal    Normal, Fast or Accurate (Low or Medium for compatibility)
   LRHFCALC=     F    long range Hartree Fock
   LRSCOR  =     F    long range correlation only (use DFT for short range part)
   LTHOMAS =     F    Thomas Fermi screening in HF
   LMODELHF=     F    short range full HF, long range fraction AEXX
   ENCUT4O =  -1.0   cutoff for four orbital integrals eV
   LMAXFOCK=     4    L truncation for augmentation on plane wave grid
   LMAXFOCKAE=  -1    L truncation for all-electron charge restoration on plane wave grid
   NMAXFOCKAE=   1    number of basis functions for all-electron charge restoration
   LFOCKAEDFT=     F  apply the AE augmentation even for DFT
   NKREDX  =     1    reduce k-point grid by
   NKREDY  =     1    reduce k-point grid by
   NKREDZ  =     1    reduce k-point grid by
   SHIFTRED=     F    shift reduced grid of Gamma
   HFKIDENT=     F    idential grid for each k-point
   ODDONLY =     F    use only odd q-grid points
   EVENONLY=     F    use only even q-grid points
   HFALPHA =   -1.0000 decay constant for conv. correction
   MCALPHA =    0.0000 extent of test-charge in conv. correction in multipole expansion
   AEXX    =    1.0000 exact exchange contribution
   HFSCREEN=    0.0000 screening length (either q_TF or 0.3 A-1)
   HFSCREENC=   0.0000 screening length for correlation (either q_TF or 0.3 A-1)
   HFRCUT  =    0.0000 spherical cutoff for potential kernel
   ALDAX   =    0.0000 LDA exchange part
   AGGAX   =    0.0000 GGA exchange part
   ALDAC   =    0.0000 LDA correlation
   AGGAC   =    0.0000 GGA correlation
   NBANDSGWLOW=     1    first orbital included in HF term
   ENCUTFOCK=  -1.0 apply spherical cutoff to Coloumb kernel
 Linear response parameters
   LEPSILON=     F    determine dielectric tensor
   LRPA    =     F    only Hartree local field effects (RPA)
   LNABLA  =     F    use nabla operator in PAW spheres
   LVEL    =     F    velocity operator in full k-point grid
   LINTERFAST=   F  fast interpolation
   KINTER  =     0    interpolate to denser k-point grid
   CSHIFT  =0.1000    complex shift for real part using Kramers Kronig
   OMEGAMAX=  -1.0    maximum frequency
   DEG_THRESHOLD= 0.2000000E-02 threshold for treating states as degnerate
   RTIME   =    0.100 relaxation time in fs

 Orbital magnetization related:
   ORBITALMAG=     F  switch on orbital magnetization
   LCHIMAG   =     F  perturbation theory with respect to B field
   DQ        =  0.001000  dq finite difference perturbation B field



--------------------------------------------------------------------------------------------------------


 Static calculation
 charge density and potential will be updated during run
 non-spin polarized calculation
 Conjugate gradient for all bands (Freysoldt, et al. PRB 79, 241103 (2009))
 preconditioned conjugated gradient                                        
 perform sub-space diagonalisation
    before iterative eigenvector-optimisation
 modified Broyden-mixing scheme, WC =      100.0
 initial mixing is a Kerker type mixing with AMIX =  0.4000 and BMIX =      1.0000
 Hartree-type preconditioning will be used
 using additional bands            7
 reciprocal scheme for non local part
 use partial core corrections
 no Harris-corrections to forces 
 use gradient corrections 
 use of overlap-Matrix (Vanderbilt PP)
 Gauss-broadening in eV      SIGMA  =   0.01


--------------------------------------------------------------------------------------------------------


  energy-cutoff  :     2000.00
  volume of cell :    42875.00
      direct lattice vectors                 reciprocal lattice vectors
    35.000000000  0.000000000  0.000000000     0.028571429  0.000000000  0.000000000
     0.000000000 35.000000000  0.000000000     0.000000000  0.028571429  0.000000000
     0.000000000  0.000000000 35.000000000     0.000000000  0.000000000  0.028571429

  length of vectors
    35.000000000 35.000000000 35.000000000     0.028571429  0.028571429  0.028571429


 
 k-points in units of 2pi/SCALE and weight: automatic mesh                          
   0.00000000  0.00000000  0.00000000       1.000
 
 k-points in reciprocal lattice and weights: automatic mesh                          
   0.00000000  0.00000000  0.00000000       1.000
 
 position of ions in fractional coordinates (direct lattice) 
   0.98268030  0.00159640  0.01682871
   0.01730996  0.00158688  0.01683618
   0.95234181  0.00159361  0.01682890
   0.04764795  0.00156752  0.01684937
 
 position of ions in cartesian coordinates  (Angst):
  34.39381065  0.05587406  0.58900490
   0.60584873  0.05554087  0.58926624
  33.33196333  0.05577624  0.58901162
   1.66767817  0.05486328  0.58972794
 


--------------------------------------------------------------------------------------------------------


 use parallel FFT for wavefunctions z direction half grid
 k-point  1 :   0.0000 0.0000 0.0000  plane waves: 4353902

 maximum and minimum number of plane-waves per node :    544247   544233

 maximum number of plane-waves:   4353902
 maximum index in each direction: 
   IXMAX=  127   IYMAX=  127   IZMAX=  127
   IXMIN= -127   IYMIN= -127   IZMIN=    0

 NGX is ok and might be reduce to 510
 NGY is ok and might be reduce to 510
 NGZ is ok and might be reduce to 510

 parallel 3D FFT for wavefunctions:
    minimum data exchange during FFTs selected (reduces bandwidth)
 parallel 3D FFT for charge:
    minimum data exchange during FFTs selected (reduces bandwidth)


 FFT grid for exact exchange (Hartree Fock) 
  NGX =384; NGY =384; NGZ =384

 use parallel FFT for wavefunctions z direction half grid
 
 Radii for the augmentation spheres in the non-local exchange
 for species   1 augmentation radius   0.721 (default was   0.577)
       energy cutoff for augmentation   8000.0
 for species   2 augmentation radius   0.541 (default was   0.432)
       energy cutoff for augmentation   8000.0

 real space projection operators:
  total allocation   :        416.39 KBytes
  max/ min on nodes  :         54.63         48.80

 Maximum index for augmentation-charges in exchange          248
  SETUP_FOCK is finished

 total amount of memory used by VASP on root node  4479214. kBytes
========================================================================

   base      :      30000. kBytes
   nonl-proj :     104493. kBytes
   fftplans  :    1713006. kBytes
   grid      :    2553282. kBytes
   one-center:          1. kBytes
   HF        :          4. kBytes
   nonlr-proj:         59. kBytes
   wavefun   :      78369. kBytes
 
     INWAV:  cpu time    0.0000: real time    0.0003
 Broyden mixing: mesh for mixing (old mesh)
   NGX =255   NGY =255   NGZ =255
  (NGX  =***   NGY  =***   NGZ  =***)
  gives a total of ****** points

 initial charge density was supplied:
 charge density of overlapping atoms calculated
 number of electron      10.0000000 magnetization 
 keeping initial charge density in first step


--------------------------------------------------------------------------------------------------------


 Maximum index for augmentation-charges          257 (set IRDMAX)


--------------------------------------------------------------------------------------------------------


 FEWALD executed in parallel
    FEWALD:  cpu time    0.0004: real time    0.0004


----------------------------------------- Iteration    1(   1)  ---------------------------------------


    POTLOK:  cpu time   17.6265: real time   17.6705
    SETDIJ:  cpu time    0.0536: real time    0.0537
    TRIAL :  cpu time    5.5909: real time    5.6088
    CORREC:  cpu time    0.0001: real time    0.0001
    --------------------------------------------
      LOOP:  cpu time   23.3827: real time   23.4468

 eigenvalue-minimisations  :    24
 total energy-change (2. order) : 0.6919972E+02  (-0.1508615E+03)
 number of electron      10.0000000 magnetization 
 augmentation part       10.0000000 magnetization 

 Free energy of the ion-electron system (eV)
  ---------------------------------------------------
  alpha Z        PSCENC =         0.00752218
  Ewald energy   TEWEN  =       295.25188999
  -Hartree energ DENC   =      -503.70566611
  -exchange      EXHF   =         0.00000000
  -V(xc)+E(xc)   XCENC  =         0.00000000
  PAW double counting   =       242.13114345     -242.46073553
  entropy T*S    EENTRO =        -0.00000000
  eigenvalues    EBANDS =       -12.45648081
  atomic energy  EATOM  =       290.43204520
  ---------------------------------------------------
  free energy    TOTEN  =        69.19971838 eV

  energy without entropy =       69.19971838  energy(sigma->0) =       69.19971838
  exchange ACFDT corr.  =         0.00000000  see jH, gK, PRB 81, 115126


--------------------------------------------------------------------------------------------------------




----------------------------------------- Iteration    1(   2)  ---------------------------------------


    TRIAL :  cpu time    5.4948: real time    5.5136
    CORREC:  cpu time    0.0001: real time    0.0001
    --------------------------------------------
      LOOP:  cpu time    5.4973: real time    5.5191

 eigenvalue-minimisations  :    24
 total energy-change (2. order) :-0.4467207E+01  (-0.4443278E+01)
 number of electron      10.0000000 magnetization 
 augmentation part       10.0000000 magnetization 

 Free energy of the ion-electron system (eV)
  ---------------------------------------------------
  alpha Z        PSCENC =         0.00752218
  Ewald energy   TEWEN  =       295.25188999
  -Hartree energ DENC   =      -503.70566611
  -exchange      EXHF   =         0.00000000
  -V(xc)+E(xc)   XCENC  =         0.00000000
  PAW double counting   =       242.13114345     -242.46073553
  entropy T*S    EENTRO =        -0.00000000
  eigenvalues    EBANDS =       -16.92368748
  atomic energy  EATOM  =       290.43204520
  ---------------------------------------------------
  free energy    TOTEN  =        64.73251171 eV

  energy without entropy =       64.73251171  energy(sigma->0) =       64.73251171
  exchange ACFDT corr.  =         0.00000000  see jH, gK, PRB 81, 115126


--------------------------------------------------------------------------------------------------------




----------------------------------------- Iteration    1(   3)  ---------------------------------------


    TRIAL :  cpu time    9.1071: real time    9.1370
    CORREC:  cpu time    0.0002: real time    0.0002
    --------------------------------------------
      LOOP:  cpu time    9.1095: real time    9.1422

 eigenvalue-minimisations  :    48
 total energy-change (2. order) :-0.1081565E+02  (-0.1075701E+02)
 number of electron      10.0000000 magnetization 
 augmentation part       10.0000000 magnetization 

 Free energy of the ion-electron system (eV)
  ---------------------------------------------------
  alpha Z        PSCENC =         0.00752218
  Ewald energy   TEWEN  =       295.25188999
  -Hartree energ DENC   =      -503.70566611
  -exchange      EXHF   =         0.00000000
  -V(xc)+E(xc)   XCENC  =         0.00000000
  PAW double counting   =       242.13114345     -242.46073553
  entropy T*S    EENTRO =        -0.01241379
  eigenvalues    EBANDS =       -27.72692097
  atomic energy  EATOM  =       290.43204520
  ---------------------------------------------------
  free energy    TOTEN  =        53.91686443 eV

  energy without entropy =       53.92927822  energy(sigma->0) =       53.92307133
  exchange ACFDT corr.  =         0.00000000  see jH, gK, PRB 81, 115126


--------------------------------------------------------------------------------------------------------




----------------------------------------- Iteration    1(   4)  ---------------------------------------


    TRIAL :  cpu time    6.6885: real time    6.7102
    CORREC:  cpu time    0.0004: real time    0.0004
    --------------------------------------------
      LOOP:  cpu time    6.6912: real time    6.7154

 eigenvalue-minimisations  :    32
 total energy-change (2. order) :-0.3909831E+01  (-0.3899675E+01)
 number of electron      10.0000000 magnetization 
 augmentation part       10.0000000 magnetization 

 Free energy of the ion-electron system (eV)
  ---------------------------------------------------
  alpha Z        PSCENC =         0.00752218
  Ewald energy   TEWEN  =       295.25188999
  -Hartree energ DENC   =      -503.70566611
  -exchange      EXHF   =         0.00000000
  -V(xc)+E(xc)   XCENC  =         0.00000000
  PAW double counting   =       242.13114345     -242.46073553
  entropy T*S    EENTRO =        -0.01905915
  eigenvalues    EBANDS =       -31.63010647
  atomic energy  EATOM  =       290.43204520
  ---------------------------------------------------
  free energy    TOTEN  =        50.00703357 eV

  energy without entropy =       50.02609272  energy(sigma->0) =       50.01656314
  exchange ACFDT corr.  =         0.00000000  see jH, gK, PRB 81, 115126


--------------------------------------------------------------------------------------------------------




----------------------------------------- Iteration    1(   5)  ---------------------------------------


    TRIAL :  cpu time    6.0950: real time    6.1153
    CORREC:  cpu time    0.0003: real time    0.0003
    CHARGE:  cpu time    2.6741: real time    2.6853
    --------------------------------------------
      LOOP:  cpu time    8.7717: real time    8.8047

 eigenvalue-minimisations  :    28
 total energy-change (2. order) :-0.2606090E+00  (-0.2597878E+00)
 number of electron      10.0000000 magnetization 
 augmentation part       -0.0540709 magnetization 

 Free energy of the ion-electron system (eV)
  ---------------------------------------------------
  alpha Z        PSCENC =         0.00752218
  Ewald energy   TEWEN  =       295.25188999
  -Hartree energ DENC   =      -503.70566611
  -exchange      EXHF   =         0.00000000
  -V(xc)+E(xc)   XCENC  =         0.00000000
  PAW double counting   =       242.13114345     -242.46073553
  entropy T*S    EENTRO =        -0.01979000
  eigenvalues    EBANDS =       -31.88998457
  atomic energy  EATOM  =       290.43204520
  ---------------------------------------------------
  free energy    TOTEN  =        49.74642462 eV

  energy without entropy =       49.76621462  energy(sigma->0) =       49.75631962
  exchange ACFDT corr.  =         0.00000000  see jH, gK, PRB 81, 115126


--------------------------------------------------------------------------------------------------------




----------------------------------------- Iteration    1(   6)  ---------------------------------------


    POTLOK:  cpu time   19.3232: real time   19.3702
    SETDIJ:  cpu time    0.0525: real time    0.0526
    TRIAL :  cpu time   21.1591: real time   21.2583
    CORREC:  cpu time   36.4585: real time   36.5955
    CHARGE:  cpu time    2.6251: real time    2.6354
    --------------------------------------------
      LOOP:  cpu time   79.6212: real time   79.9168

 eigenvalue-minimisations  :     0
 total energy-change (2. order) : 0.3152762E+02  (-0.2345925E+02)
 number of electron      10.0000000 magnetization 
 augmentation part       -0.0697811 magnetization 

 Free energy of the ion-electron system (eV)
  ---------------------------------------------------
  alpha Z        PSCENC =         0.00752218
  Ewald energy   TEWEN  =       295.25188999
  -Hartree energ DENC   =      -182.95499243
  -exchange      EXHF   =        55.12527663
  -V(xc)+E(xc)   XCENC  =         0.00000000
  PAW double counting   =      5416.56776619    -5416.70620753
  entropy T*S    EENTRO =        -0.01064053
  eigenvalues    EBANDS =      -376.42946345
  atomic energy  EATOM  =       290.43204520
  ---------------------------------------------------
  free energy    TOTEN  =        81.27404678 eV

  energy without entropy =       81.28468732  energy(sigma->0) =       81.27936705
  exchange ACFDT corr.  =        -1.05169100  see jH, gK, PRB 81, 115126


--------------------------------------------------------------------------------------------------------




----------------------------------------- Iteration    1(   7)  ---------------------------------------


    POTLOK:  cpu time   19.9581: real time   20.0066
    SETDIJ:  cpu time    0.2133: real time    0.2138
    TRIAL :  cpu time   21.7656: real time   21.8658
    CORREC:  cpu time   37.3629: real time   37.5034
    CHARGE:  cpu time    2.3070: real time    2.3167
    --------------------------------------------
      LOOP:  cpu time   81.6076: real time   81.9097

 eigenvalue-minimisations  :     0
 total energy-change (2. order) :-0.2111705E+02  (-0.8375737E+01)
 number of electron      10.0000000 magnetization 
 augmentation part       -0.0822696 magnetization 

 Free energy of the ion-electron system (eV)
  ---------------------------------------------------
  alpha Z        PSCENC =         0.00752218
  Ewald energy   TEWEN  =       295.25188999
  -Hartree energ DENC   =      -215.55756555
  -exchange      EXHF   =        63.84284210
  -V(xc)+E(xc)   XCENC  =         0.00000000
  PAW double counting   =      5457.80625896    -5458.01529608
  entropy T*S    EENTRO =        -0.00008648
  eigenvalues    EBANDS =      -373.60005813
  atomic energy  EATOM  =       290.43204520
  ---------------------------------------------------
  free energy    TOTEN  =        60.15699814 eV

  energy without entropy =       60.15708463  energy(sigma->0) =       60.15704138
  exchange ACFDT corr.  =        -0.56322318  see jH, gK, PRB 81, 115126


--------------------------------------------------------------------------------------------------------




----------------------------------------- Iteration    1(   8)  ---------------------------------------


    POTLOK:  cpu time   20.1486: real time   20.1976
    SETDIJ:  cpu time    0.2086: real time    0.2092
    TRIAL :  cpu time   17.2442: real time   17.3326
    CORREC:  cpu time   37.2519: real time   37.3916
    CHARGE:  cpu time    2.3127: real time    2.3222
    --------------------------------------------
      LOOP:  cpu time   77.2164: real time   77.5064

 eigenvalue-minimisations  :     0
 total energy-change (2. order) :-0.7973812E+01  (-0.1540909E+02)
 number of electron      10.0000000 magnetization 
 augmentation part       -0.1087380 magnetization 

 Free energy of the ion-electron system (eV)
  ---------------------------------------------------
  alpha Z        PSCENC =         0.00752218
  Ewald energy   TEWEN  =       295.25188999
  -Hartree energ DENC   =      -236.57848357
  -exchange      EXHF   =        68.43587725
  -V(xc)+E(xc)   XCENC  =         0.00000000
  PAW double counting   =      4840.22710602    -4840.49541655
  entropy T*S    EENTRO =        -0.00000000
  eigenvalues    EBANDS =      -365.09726772
  atomic energy  EATOM  =       290.43204520
  ---------------------------------------------------
  free energy    TOTEN  =        52.18318632 eV

  energy without entropy =       52.18318632  energy(sigma->0) =       52.18318632
  exchange ACFDT corr.  =        -0.00220003  see jH, gK, PRB 81, 115126


--------------------------------------------------------------------------------------------------------




----------------------------------------- Iteration    1(   9)  ---------------------------------------


    POTLOK:  cpu time   20.1608: real time   20.2099
    SETDIJ:  cpu time    0.2066: real time    0.2071
    TRIAL :  cpu time   17.2231: real time   17.4025
    CORREC:  cpu time   37.1410: real time   37.2802
    CHARGE:  cpu time    2.3111: real time    2.3208
    --------------------------------------------
      LOOP:  cpu time   77.0880: real time   77.4689

 eigenvalue-minimisations  :     0
 total energy-change (2. order) :-0.1497214E+02  (-0.1562038E+02)
 number of electron      10.0000000 magnetization 
 augmentation part       -0.1269467 magnetization 

 Free energy of the ion-electron system (eV)
  ---------------------------------------------------
  alpha Z        PSCENC =         0.00752218
  Ewald energy   TEWEN  =       295.25188999
  -Hartree energ DENC   =      -301.65769746
  -exchange      EXHF   =        74.67122602
  -V(xc)+E(xc)   XCENC  =         0.00000000
  PAW double counting   =      3697.10032742    -3697.48423376
  entropy T*S    EENTRO =        -0.00000000
  eigenvalues    EBANDS =      -321.11003675
  atomic energy  EATOM  =       290.43204520
  ---------------------------------------------------
  free energy    TOTEN  =        37.21104285 eV

  energy without entropy =       37.21104285  energy(sigma->0) =       37.21104285
  exchange ACFDT corr.  =         0.00000000  see jH, gK, PRB 81, 115126


--------------------------------------------------------------------------------------------------------




----------------------------------------- Iteration    1(  10)  ---------------------------------------


    POTLOK:  cpu time   20.1712: real time   20.2202
    SETDIJ:  cpu time    0.2077: real time    0.2082
    TRIAL :  cpu time   17.3097: real time   17.3983
    CORREC:  cpu time   37.2481: real time   37.3888
    CHARGE:  cpu time    2.3036: real time    2.3135
    --------------------------------------------
      LOOP:  cpu time   77.2884: real time   77.5801

 eigenvalue-minimisations  :     0
 total energy-change (2. order) :-0.7904710E+01  (-0.2022862E+02)
 number of electron      10.0000000 magnetization 
 augmentation part       -0.1321468 magnetization 

 Free energy of the ion-electron system (eV)
  ---------------------------------------------------
  alpha Z        PSCENC =         0.00752218
  Ewald energy   TEWEN  =       295.25188999
  -Hartree energ DENC   =      -347.85483322
  -exchange      EXHF   =        79.40000801
  -V(xc)+E(xc)   XCENC  =         0.00000000
  PAW double counting   =      3565.85793345    -3566.30190039
  entropy T*S    EENTRO =        -0.00000000
  eigenvalues    EBANDS =      -287.48633282
  atomic energy  EATOM  =       290.43204520
  ---------------------------------------------------
  free energy    TOTEN  =        29.30633240 eV

  energy without entropy =       29.30633240  energy(sigma->0) =       29.30633240
  exchange ACFDT corr.  =         0.00000000  see jH, gK, PRB 81, 115126


--------------------------------------------------------------------------------------------------------




----------------------------------------- Iteration    1(  11)  ---------------------------------------


    POTLOK:  cpu time   20.1622: real time   20.2112
    SETDIJ:  cpu time    0.2096: real time    0.2102
    TRIAL :  cpu time   17.2488: real time   17.3380
    CORREC:  cpu time   37.2253: real time   37.3645
    CHARGE:  cpu time    2.3115: real time    2.3213
    --------------------------------------------
      LOOP:  cpu time   77.2012: real time   77.4918

 eigenvalue-minimisations  :     0
 total energy-change (2. order) :-0.1352258E+02  (-0.1265481E+02)
 number of electron      10.0000000 magnetization 
 augmentation part       -0.1210827 magnetization 

 Free energy of the ion-electron system (eV)
  ---------------------------------------------------
  alpha Z        PSCENC =         0.00752218
  Ewald energy   TEWEN  =       295.25188999
  -Hartree energ DENC   =      -384.01892314
  -exchange      EXHF   =        82.83196885
  -V(xc)+E(xc)   XCENC  =         0.00000000
  PAW double counting   =      4184.41238632    -4184.85738015
  entropy T*S    EENTRO =        -0.00000000
  eigenvalues    EBANDS =      -268.27575978
  atomic energy  EATOM  =       290.43204520
  ---------------------------------------------------
  free energy    TOTEN  =        15.78374947 eV

  energy without entropy =       15.78374947  energy(sigma->0) =       15.78374947
  exchange ACFDT corr.  =         0.00000000  see jH, gK, PRB 81, 115126


--------------------------------------------------------------------------------------------------------




----------------------------------------- Iteration    1(  12)  ---------------------------------------


    POTLOK:  cpu time   20.1734: real time   20.2224
    SETDIJ:  cpu time    0.2134: real time    0.2139
    TRIAL :  cpu time   17.2349: real time   17.3398
    CORREC:  cpu time   37.3058: real time   37.4458
    CHARGE:  cpu time    2.3033: real time    2.3130
    --------------------------------------------
      LOOP:  cpu time   77.2778: real time   77.5843

 eigenvalue-minimisations  :     0
 total energy-change (2. order) :-0.1154769E+02  (-0.8110290E+01)
 number of electron      10.0000000 magnetization 
 augmentation part       -0.1048592 magnetization 

 Free energy of the ion-electron system (eV)
  ---------------------------------------------------
  alpha Z        PSCENC =         0.00752218
  Ewald energy   TEWEN  =       295.25188999
  -Hartree energ DENC   =      -397.72711183
  -exchange      EXHF   =        82.18533250
  -V(xc)+E(xc)   XCENC  =         0.00000000
  PAW double counting   =      5315.96688412    -5316.34352959
  entropy T*S    EENTRO =        -0.00000000
  eigenvalues    EBANDS =      -265.53697746
  atomic energy  EATOM  =       290.43204520
  ---------------------------------------------------
  free energy    TOTEN  =         4.23605512 eV

  energy without entropy =        4.23605512  energy(sigma->0) =        4.23605512
  exchange ACFDT corr.  =         0.00000000  see jH, gK, PRB 81, 115126


--------------------------------------------------------------------------------------------------------




----------------------------------------- Iteration    1(  13)  ---------------------------------------


    POTLOK:  cpu time   20.1956: real time   20.2446
    SETDIJ:  cpu time    0.2093: real time    0.2098
    TRIAL :  cpu time   17.1555: real time   17.2757
    CORREC:  cpu time   37.3799: real time   37.5197
    CHARGE:  cpu time    2.2993: real time    2.3087
    --------------------------------------------
      LOOP:  cpu time   77.2888: real time   77.6108

 eigenvalue-minimisations  :     0
 total energy-change (2. order) :-0.8817518E+01  (-0.1780821E+02)
 number of electron      10.0000000 magnetization 
 augmentation part       -0.0717508 magnetization 

 Free energy of the ion-electron system (eV)
  ---------------------------------------------------
  alpha Z        PSCENC =         0.00752218
  Ewald energy   TEWEN  =       295.25188999
  -Hartree energ DENC   =      -412.17494869
  -exchange      EXHF   =        81.72302555
  -V(xc)+E(xc)   XCENC  =         0.00000000
  PAW double counting   =      7356.88936201    -7357.19513615
  entropy T*S    EENTRO =        -0.00000000
  eigenvalues    EBANDS =      -259.51522332
  atomic energy  EATOM  =       290.43204520
  ---------------------------------------------------
  free energy    TOTEN  =        -4.58146322 eV

  energy without entropy =       -4.58146322  energy(sigma->0) =       -4.58146322
  exchange ACFDT corr.  =         0.00000000  see jH, gK, PRB 81, 115126


--------------------------------------------------------------------------------------------------------




----------------------------------------- Iteration    1(  14)  ---------------------------------------


    POTLOK:  cpu time   20.2000: real time   20.2491
    SETDIJ:  cpu time    0.2117: real time    0.2122
    TRIAL :  cpu time   17.1945: real time   17.2834
    CORREC:  cpu time   37.2675: real time   37.4064
    CHARGE:  cpu time    2.2968: real time    2.3064
    --------------------------------------------
      LOOP:  cpu time   77.2176: real time   77.5076

 eigenvalue-minimisations  :     0
 total energy-change (2. order) :-0.1442644E+02  (-0.5298121E+01)
 number of electron      10.0000000 magnetization 
 augmentation part       -0.0606006 magnetization 

 Free energy of the ion-electron system (eV)
  ---------------------------------------------------
  alpha Z        PSCENC =         0.00752218
  Ewald energy   TEWEN  =       295.25188999
  -Hartree energ DENC   =      -468.72695993
  -exchange      EXHF   =        87.07931269
  -V(xc)+E(xc)   XCENC  =         0.00000000
  PAW double counting   =     15629.62473644   -15629.84459206
  entropy T*S    EENTRO =        -0.00000000
  eigenvalues    EBANDS =      -222.83185690
  atomic energy  EATOM  =       290.43204520
  ---------------------------------------------------
  free energy    TOTEN  =       -19.00790239 eV

  energy without entropy =      -19.00790239  energy(sigma->0) =      -19.00790239
  exchange ACFDT corr.  =         0.00000000  see jH, gK, PRB 81, 115126


--------------------------------------------------------------------------------------------------------




----------------------------------------- Iteration    1(  15)  ---------------------------------------


    POTLOK:  cpu time   20.1674: real time   20.2164
    SETDIJ:  cpu time    0.2109: real time    0.2114
    TRIAL :  cpu time   17.1998: real time   17.2884
    CORREC:  cpu time   37.2810: real time   37.4204
    CHARGE:  cpu time    2.3103: real time    2.3198
    --------------------------------------------
      LOOP:  cpu time   77.2206: real time   77.5101

 eigenvalue-minimisations  :     0
 total energy-change (2. order) :-0.4863648E+01  (-0.6843608E+01)
 number of electron      10.0000000 magnetization 
 augmentation part       -0.0527393 magnetization 

 Free energy of the ion-electron system (eV)
  ---------------------------------------------------
  alpha Z        PSCENC =         0.00752218
  Ewald energy   TEWEN  =       295.25188999
  -Hartree energ DENC   =      -486.07330195
  -exchange      EXHF   =        90.26356925
  -V(xc)+E(xc)   XCENC  =         0.00000000
  PAW double counting   =     17811.75953455   -17811.96811290
  entropy T*S    EENTRO =        -0.00000000
  eigenvalues    EBANDS =      -213.54469688
  atomic energy  EATOM  =       290.43204520
  ---------------------------------------------------
  free energy    TOTEN  =       -23.87155056 eV

  energy without entropy =      -23.87155056  energy(sigma->0) =      -23.87155056
  exchange ACFDT corr.  =         0.00000000  see jH, gK, PRB 81, 115126


--------------------------------------------------------------------------------------------------------




----------------------------------------- Iteration    1(  16)  ---------------------------------------


    POTLOK:  cpu time   20.1934: real time   20.2425
    SETDIJ:  cpu time    0.2082: real time    0.2087
    TRIAL :  cpu time   17.2164: real time   17.3063
    CORREC:  cpu time   37.3030: real time   37.4435
    CHARGE:  cpu time    2.3116: real time    2.3214
    --------------------------------------------
      LOOP:  cpu time   77.2811: real time   77.5731

 eigenvalue-minimisations  :     0
 total energy-change (2. order) :-0.6843863E+01  (-0.4109882E+01)
 number of electron      10.0000000 magnetization 
 augmentation part       -0.0472466 magnetization 

 Free energy of the ion-electron system (eV)
  ---------------------------------------------------
  alpha Z        PSCENC =         0.00752218
  Ewald energy   TEWEN  =       295.25188999
  -Hartree energ DENC   =      -513.09033759
  -exchange      EXHF   =        94.85470599
  -V(xc)+E(xc)   XCENC  =         0.00000000
  PAW double counting   =     18455.68477070   -18455.91405189
  entropy T*S    EENTRO =        -0.00000000
  eigenvalues    EBANDS =      -197.94195794
  atomic energy  EATOM  =       290.43204520
  ---------------------------------------------------
  free energy    TOTEN  =       -30.71541336 eV

  energy without entropy =      -30.71541336  energy(sigma->0) =      -30.71541336
  exchange ACFDT corr.  =         0.00000000  see jH, gK, PRB 81, 115126


--------------------------------------------------------------------------------------------------------




----------------------------------------- Iteration    1(  17)  ---------------------------------------


    POTLOK:  cpu time   20.1731: real time   20.2221
    SETDIJ:  cpu time    0.2108: real time    0.2113
    TRIAL :  cpu time   17.2383: real time   17.3282
    CORREC:  cpu time   37.2913: real time   37.4306
    CHARGE:  cpu time    2.2903: real time    2.2999
    --------------------------------------------
      LOOP:  cpu time   77.2539: real time   77.5447

 eigenvalue-minimisations  :     0
 total energy-change (2. order) :-0.4143790E+01  (-0.2065264E+01)
 number of electron      10.0000000 magnetization 
 augmentation part       -0.0398512 magnetization 

 Free energy of the ion-electron system (eV)
  ---------------------------------------------------
  alpha Z        PSCENC =         0.00752218
  Ewald energy   TEWEN  =       295.25188999
  -Hartree energ DENC   =      -532.57334642
  -exchange      EXHF   =        97.98888517
  -V(xc)+E(xc)   XCENC  =         0.00000000
  PAW double counting   =     16499.62660634   -16499.89510382
  entropy T*S    EENTRO =        -0.00000000
  eigenvalues    EBANDS =      -185.69770183
  atomic energy  EATOM  =       290.43204520
  ---------------------------------------------------
  free energy    TOTEN  =       -34.85920319 eV

  energy without entropy =      -34.85920319  energy(sigma->0) =      -34.85920319
  exchange ACFDT corr.  =         0.00000000  see jH, gK, PRB 81, 115126


--------------------------------------------------------------------------------------------------------




----------------------------------------- Iteration    1(  18)  ---------------------------------------


    POTLOK:  cpu time   20.2016: real time   20.2507
    SETDIJ:  cpu time    0.2116: real time    0.2122
    TRIAL :  cpu time   17.2762: real time   17.3649
    CORREC:  cpu time   37.2290: real time   37.3687
    CHARGE:  cpu time    2.3030: real time    2.3127
    --------------------------------------------
      LOOP:  cpu time   77.2665: real time   77.5566

 eigenvalue-minimisations  :     0
 total energy-change (2. order) :-0.2121599E+01  (-0.1435085E+01)
 number of electron      10.0000000 magnetization 
 augmentation part       -0.0291009 magnetization 

 Free energy of the ion-electron system (eV)
  ---------------------------------------------------
  alpha Z        PSCENC =         0.00752218
  Ewald energy   TEWEN  =       295.25188999
  -Hartree energ DENC   =      -542.96954135
  -exchange      EXHF   =        99.60431514
  -V(xc)+E(xc)   XCENC  =         0.00000000
  PAW double counting   =     13381.46790778   -13381.77760334
  entropy T*S    EENTRO =        -0.00000000
  eigenvalues    EBANDS =      -178.99733769
  atomic energy  EATOM  =       290.43204520
  ---------------------------------------------------
  free energy    TOTEN  =       -36.98080210 eV

  energy without entropy =      -36.98080210  energy(sigma->0) =      -36.98080210
  exchange ACFDT corr.  =        -0.00000000  see jH, gK, PRB 81, 115126


--------------------------------------------------------------------------------------------------------




----------------------------------------- Iteration    1(  19)  ---------------------------------------


    POTLOK:  cpu time   20.1820: real time   20.2311
    SETDIJ:  cpu time    0.2128: real time    0.2133
    TRIAL :  cpu time   17.1954: real time   17.2849
    CORREC:  cpu time   37.2427: real time   37.3826
    CHARGE:  cpu time    2.3059: real time    2.3155
    --------------------------------------------
      LOOP:  cpu time   77.1881: real time   77.4789

 eigenvalue-minimisations  :     0
 total energy-change (2. order) :-0.1493308E+01  (-0.8400252E+00)
 number of electron      10.0000000 magnetization 
 augmentation part       -0.0209752 magnetization 

 Free energy of the ion-electron system (eV)
  ---------------------------------------------------
  alpha Z        PSCENC =         0.00752218
  Ewald energy   TEWEN  =       295.25188999
  -Hartree energ DENC   =      -549.61046870
  -exchange      EXHF   =       100.59547871
  -V(xc)+E(xc)   XCENC  =         0.00000000
  PAW double counting   =     10566.54489457   -10566.89382320
  entropy T*S    EENTRO =        -0.00000000
  eigenvalues    EBANDS =      -174.80164926
  atomic energy  EATOM  =       290.43204520
  ---------------------------------------------------
  free energy    TOTEN  =       -38.47411050 eV

  energy without entropy =      -38.47411050  energy(sigma->0) =      -38.47411050
  exchange ACFDT corr.  =         0.00000000  see jH, gK, PRB 81, 115126


--------------------------------------------------------------------------------------------------------




----------------------------------------- Iteration    1(  20)  ---------------------------------------


    POTLOK:  cpu time   20.1787: real time   20.2277
    SETDIJ:  cpu time    0.2138: real time    0.2143
    TRIAL :  cpu time   17.1657: real time   17.2547
    CORREC:  cpu time   37.2024: real time   37.3416
    CHARGE:  cpu time    2.2948: real time    2.3044
    --------------------------------------------
      LOOP:  cpu time   77.0992: real time   77.3895

 eigenvalue-minimisations  :     0
 total energy-change (2. order) :-0.8540675E+00  (-0.4202988E+00)
 number of electron      10.0000000 magnetization 
 augmentation part       -0.0182145 magnetization 

 Free energy of the ion-electron system (eV)
  ---------------------------------------------------
  alpha Z        PSCENC =         0.00752218
  Ewald energy   TEWEN  =       295.25188999
  -Hartree energ DENC   =      -548.91791024
  -exchange      EXHF   =       100.34022156
  -V(xc)+E(xc)   XCENC  =         0.00000000
  PAW double counting   =      9496.63084115    -9496.99076197
  entropy T*S    EENTRO =        -0.00000000
  eigenvalues    EBANDS =      -176.08202588
  atomic energy  EATOM  =       290.43204520
  ---------------------------------------------------
  free energy    TOTEN  =       -39.32817801 eV

  energy without entropy =      -39.32817801  energy(sigma->0) =      -39.32817801
  exchange ACFDT corr.  =        -0.00000000  see jH, gK, PRB 81, 115126


--------------------------------------------------------------------------------------------------------




----------------------------------------- Iteration    1(  21)  ---------------------------------------


    POTLOK:  cpu time   20.1752: real time   20.2243
    SETDIJ:  cpu time    0.2126: real time    0.2131
    TRIAL :  cpu time   17.2283: real time   17.3165
    CORREC:  cpu time   37.2331: real time   37.3726
    CHARGE:  cpu time    2.3034: real time    2.3131
    --------------------------------------------
      LOOP:  cpu time   77.2020: real time   77.4917

 eigenvalue-minimisations  :     0
 total energy-change (2. order) :-0.4257538E+00  (-0.2101865E+00)
 number of electron      10.0000000 magnetization 
 augmentation part       -0.0185887 magnetization 

 Free energy of the ion-electron system (eV)
  ---------------------------------------------------
  alpha Z        PSCENC =         0.00752218
  Ewald energy   TEWEN  =       295.25188999
  -Hartree energ DENC   =      -544.74252583
  -exchange      EXHF   =        99.58016149
  -V(xc)+E(xc)   XCENC  =         0.00000000
  PAW double counting   =      9722.28929378    -9722.63715702
  entropy T*S    EENTRO =        -0.00000000
  eigenvalues    EBANDS =      -179.93516156
  atomic energy  EATOM  =       290.43204520
  ---------------------------------------------------
  free energy    TOTEN  =       -39.75393176 eV

  energy without entropy =      -39.75393176  energy(sigma->0) =      -39.75393176
  exchange ACFDT corr.  =         0.00000000  see jH, gK, PRB 81, 115126


--------------------------------------------------------------------------------------------------------




----------------------------------------- Iteration    1(  22)  ---------------------------------------


    POTLOK:  cpu time   20.1981: real time   20.2471
    SETDIJ:  cpu time    0.2073: real time    0.2078
    TRIAL :  cpu time   17.2588: real time   17.3484
    CORREC:  cpu time   37.3144: real time   37.4551
    CHARGE:  cpu time    2.3000: real time    2.3096
    --------------------------------------------
      LOOP:  cpu time   77.3298: real time   77.6217

 eigenvalue-minimisations  :     0
 total energy-change (2. order) :-0.2137834E+00  (-0.8747138E-01)
 number of electron      10.0000000 magnetization 
 augmentation part       -0.0197112 magnetization 

 Free energy of the ion-electron system (eV)
  ---------------------------------------------------
  alpha Z        PSCENC =         0.00752218
  Ewald energy   TEWEN  =       295.25188999
  -Hartree energ DENC   =      -544.46597945
  -exchange      EXHF   =        99.59173008
  -V(xc)+E(xc)   XCENC  =         0.00000000
  PAW double counting   =     10459.77954759   -10460.11665000
  entropy T*S    EENTRO =        -0.00000000
  eigenvalues    EBANDS =      -180.44782074
  atomic energy  EATOM  =       290.43204520
  ---------------------------------------------------
  free energy    TOTEN  =       -39.96771513 eV

  energy without entropy =      -39.96771513  energy(sigma->0) =      -39.96771513
  exchange ACFDT corr.  =        -0.00000000  see jH, gK, PRB 81, 115126


--------------------------------------------------------------------------------------------------------




----------------------------------------- Iteration    1(  23)  ---------------------------------------


    POTLOK:  cpu time   20.1949: real time   20.2440
    SETDIJ:  cpu time    0.2079: real time    0.2084
    TRIAL :  cpu time   17.3445: real time   17.4338
    CORREC:  cpu time   37.1939: real time   37.3337
    CHARGE:  cpu time    2.2973: real time    2.3072
    --------------------------------------------
      LOOP:  cpu time   77.2872: real time   77.5968

 eigenvalue-minimisations  :     0
 total energy-change (2. order) :-0.8848464E-01  (-0.3183850E-01)
 number of electron      10.0000000 magnetization 
 augmentation part       -0.0205480 magnetization 

 Free energy of the ion-electron system (eV)
  ---------------------------------------------------
  alpha Z        PSCENC =         0.00752218
  Ewald energy   TEWEN  =       295.25188999
  -Hartree energ DENC   =      -546.08811725
  -exchange      EXHF   =        99.95765722
  -V(xc)+E(xc)   XCENC  =         0.00000000
  PAW double counting   =     11030.35396112   -11030.68717652
  entropy T*S    EENTRO =        -0.00000000
  eigenvalues    EBANDS =      -179.28398172
  atomic energy  EATOM  =       290.43204520
  ---------------------------------------------------
  free energy    TOTEN  =       -40.05619976 eV

  energy without entropy =      -40.05619976  energy(sigma->0) =      -40.05619976
  exchange ACFDT corr.  =         0.00000000  see jH, gK, PRB 81, 115126


--------------------------------------------------------------------------------------------------------




----------------------------------------- Iteration    1(  24)  ---------------------------------------


    POTLOK:  cpu time   20.1923: real time   20.2414
    SETDIJ:  cpu time    0.2102: real time    0.2107
    TRIAL :  cpu time   17.3026: real time   17.3926
    CORREC:  cpu time   37.1550: real time   37.2950
    CHARGE:  cpu time    2.3165: real time    2.3263
    --------------------------------------------
      LOOP:  cpu time   77.2259: real time   77.5178

 eigenvalue-minimisations  :     0
 total energy-change (2. order) :-0.3191549E-01  (-0.1105838E-01)
 number of electron      10.0000000 magnetization 
 augmentation part       -0.0209653 magnetization 

 Free energy of the ion-electron system (eV)
  ---------------------------------------------------
  alpha Z        PSCENC =         0.00752218
  Ewald energy   TEWEN  =       295.25188999
  -Hartree energ DENC   =      -545.93924491
  -exchange      EXHF   =        99.98537461
  -V(xc)+E(xc)   XCENC  =         0.00000000
  PAW double counting   =     11175.54748485   -11175.87850802
  entropy T*S    EENTRO =        -0.00000000
  eigenvalues    EBANDS =      -179.49467916
  atomic energy  EATOM  =       290.43204520
  ---------------------------------------------------
  free energy    TOTEN  =       -40.08811525 eV

  energy without entropy =      -40.08811525  energy(sigma->0) =      -40.08811525
  exchange ACFDT corr.  =        -0.00000000  see jH, gK, PRB 81, 115126


--------------------------------------------------------------------------------------------------------




----------------------------------------- Iteration    1(  25)  ---------------------------------------


    POTLOK:  cpu time   20.0328: real time   20.0815
    SETDIJ:  cpu time    0.2076: real time    0.2081
    TRIAL :  cpu time   17.3008: real time   17.4107
    CORREC:  cpu time   37.1653: real time   37.3040
    CHARGE:  cpu time    2.2990: real time    2.3087
    --------------------------------------------
      LOOP:  cpu time   77.0498: real time   77.5395

 eigenvalue-minimisations  :     0
 total energy-change (2. order) :-0.1106514E-01  (-0.3947952E-02)
 number of electron      10.0000000 magnetization 
 augmentation part       -0.0210307 magnetization 

 Free energy of the ion-electron system (eV)
  ---------------------------------------------------
  alpha Z        PSCENC =         0.00752218
  Ewald energy   TEWEN  =       295.25188999
  -Hartree energ DENC   =      -545.40370097
  -exchange      EXHF   =        99.90810952
  -V(xc)+E(xc)   XCENC  =         0.00000000
  PAW double counting   =     11075.87737237   -11076.20771430
  entropy T*S    EENTRO =        -0.00000000
  eigenvalues    EBANDS =      -179.96470438
  atomic energy  EATOM  =       290.43204520
  ---------------------------------------------------
  free energy    TOTEN  =       -40.09918039 eV

  energy without entropy =      -40.09918039  energy(sigma->0) =      -40.09918039
  exchange ACFDT corr.  =        -0.00000000  see jH, gK, PRB 81, 115126


--------------------------------------------------------------------------------------------------------




----------------------------------------- Iteration    1(  26)  ---------------------------------------


    POTLOK:  cpu time   20.0788: real time   20.1276
    SETDIJ:  cpu time    0.2102: real time    0.2107
    TRIAL :  cpu time   17.3323: real time   17.4217
    CORREC:  cpu time   36.8676: real time   37.0068
    CHARGE:  cpu time    2.2986: real time    2.3082
    --------------------------------------------
      LOOP:  cpu time   76.8387: real time   77.1287

 eigenvalue-minimisations  :     0
 total energy-change (2. order) :-0.3950137E-02  (-0.1632875E-02)
 number of electron      10.0000000 magnetization 
 augmentation part       -0.0209772 magnetization 

 Free energy of the ion-electron system (eV)
  ---------------------------------------------------
  alpha Z        PSCENC =         0.00752218
  Ewald energy   TEWEN  =       295.25188999
  -Hartree energ DENC   =      -545.67040335
  -exchange      EXHF   =        99.94548107
  -V(xc)+E(xc)   XCENC  =         0.00000000
  PAW double counting   =     10939.88666477   -10940.21807442
  entropy T*S    EENTRO =        -0.00000000
  eigenvalues    EBANDS =      -179.73825597
  atomic energy  EATOM  =       290.43204520
  ---------------------------------------------------
  free energy    TOTEN  =       -40.10313053 eV

  energy without entropy =      -40.10313053  energy(sigma->0) =      -40.10313053
  exchange ACFDT corr.  =         0.00000000  see jH, gK, PRB 81, 115126


--------------------------------------------------------------------------------------------------------




----------------------------------------- Iteration    1(  27)  ---------------------------------------


    POTLOK:  cpu time   19.6917: real time   19.7396
    SETDIJ:  cpu time    0.2125: real time    0.2130
    TRIAL :  cpu time   17.2222: real time   17.3105
    CORREC:  cpu time   36.4695: real time   36.6074
    CHARGE:  cpu time    2.3061: real time    2.3157
    --------------------------------------------
      LOOP:  cpu time   75.9488: real time   76.2358

 eigenvalue-minimisations  :     0
 total energy-change (2. order) :-0.1635810E-02  (-0.7608882E-03)
 number of electron      10.0000000 magnetization 
 augmentation part       -0.0209227 magnetization 

 Free energy of the ion-electron system (eV)
  ---------------------------------------------------
  alpha Z        PSCENC =         0.00752218
  Ewald energy   TEWEN  =       295.25188999
  -Hartree energ DENC   =      -545.95054040
  -exchange      EXHF   =        99.98100325
  -V(xc)+E(xc)   XCENC  =         0.00000000
  PAW double counting   =     10849.66126941   -10849.99367233
  entropy T*S    EENTRO =        -0.00000000
  eigenvalues    EBANDS =      -179.49428363
  atomic energy  EATOM  =       290.43204520
  ---------------------------------------------------
  free energy    TOTEN  =       -40.10476634 eV

  energy without entropy =      -40.10476634  energy(sigma->0) =      -40.10476634
  exchange ACFDT corr.  =        -0.00000000  see jH, gK, PRB 81, 115126


--------------------------------------------------------------------------------------------------------




----------------------------------------- Iteration    1(  28)  ---------------------------------------


    POTLOK:  cpu time   19.3852: real time   19.4323
    SETDIJ:  cpu time    0.2065: real time    0.2070
    TRIAL :  cpu time   17.1824: real time   17.2714
    CORREC:  cpu time   35.9964: real time   36.1328
    CHARGE:  cpu time    2.2977: real time    2.3076
    --------------------------------------------
      LOOP:  cpu time   75.1163: real time   75.4019

 eigenvalue-minimisations  :     0
 total energy-change (2. order) :-0.7625866E-03  (-0.3017598E-03)
 number of electron      10.0000000 magnetization 
 augmentation part       -0.0209096 magnetization 

 Free energy of the ion-electron system (eV)
  ---------------------------------------------------
  alpha Z        PSCENC =         0.00752218
  Ewald energy   TEWEN  =       295.25188999
  -Hartree energ DENC   =      -545.95101893
  -exchange      EXHF   =        99.97074802
  -V(xc)+E(xc)   XCENC  =         0.00000000
  PAW double counting   =     10809.68315105   -10810.01594582
  entropy T*S    EENTRO =        -0.00000000
  eigenvalues    EBANDS =      -179.48392061
  atomic energy  EATOM  =       290.43204520
  ---------------------------------------------------
  free energy    TOTEN  =       -40.10552892 eV

  energy without entropy =      -40.10552892  energy(sigma->0) =      -40.10552892
  exchange ACFDT corr.  =         0.00000000  see jH, gK, PRB 81, 115126


--------------------------------------------------------------------------------------------------------




----------------------------------------- Iteration    1(  29)  ---------------------------------------


    POTLOK:  cpu time   18.9217: real time   18.9676
    SETDIJ:  cpu time    0.2095: real time    0.2100
    TRIAL :  cpu time   17.2217: real time   17.3108
    CORREC:  cpu time   35.7376: real time   35.8744
    CHARGE:  cpu time    2.3077: real time    2.3173
    --------------------------------------------
      LOOP:  cpu time   74.4451: real time   74.7298

 eigenvalue-minimisations  :     0
 total energy-change (2. order) :-0.3017317E-03  (-0.1190688E-03)
 number of electron      10.0000000 magnetization 
 augmentation part       -0.0208972 magnetization 

 Free energy of the ion-electron system (eV)
  ---------------------------------------------------
  alpha Z        PSCENC =         0.00752218
  Ewald energy   TEWEN  =       295.25188999
  -Hartree energ DENC   =      -545.87511020
  -exchange      EXHF   =        99.95282095
  -V(xc)+E(xc)   XCENC  =         0.00000000
  PAW double counting   =     10807.70371367   -10808.03656633
  entropy T*S    EENTRO =        -0.00000000
  eigenvalues    EBANDS =      -179.54214611
  atomic energy  EATOM  =       290.43204520
  ---------------------------------------------------
  free energy    TOTEN  =       -40.10583065 eV

  energy without entropy =      -40.10583065  energy(sigma->0) =      -40.10583065
  exchange ACFDT corr.  =         0.00000000  see jH, gK, PRB 81, 115126


--------------------------------------------------------------------------------------------------------




----------------------------------------- Iteration    1(  30)  ---------------------------------------


    POTLOK:  cpu time   18.6142: real time   18.6594
    SETDIJ:  cpu time    0.2101: real time    0.2106
    TRIAL :  cpu time   17.2771: real time   17.3664
    CORREC:  cpu time   35.6017: real time   35.7368
    CHARGE:  cpu time    2.3009: real time    2.3106
    --------------------------------------------
      LOOP:  cpu time   74.0522: real time   74.3347

 eigenvalue-minimisations  :     0
 total energy-change (2. order) :-0.1191449E-03  (-0.4442883E-04)
 number of electron      10.0000000 magnetization 
 augmentation part       -0.0208798 magnetization 

 Free energy of the ion-electron system (eV)
  ---------------------------------------------------
  alpha Z        PSCENC =         0.00752218
  Ewald energy   TEWEN  =       295.25188999
  -Hartree energ DENC   =      -545.88065827
  -exchange      EXHF   =        99.95179565
  -V(xc)+E(xc)   XCENC  =         0.00000000
  PAW double counting   =     10818.26069836   -10818.59356637
  entropy T*S    EENTRO =        -0.00000000
  eigenvalues    EBANDS =      -179.53567654
  atomic energy  EATOM  =       290.43204520
  ---------------------------------------------------
  free energy    TOTEN  =       -40.10594980 eV

  energy without entropy =      -40.10594980  energy(sigma->0) =      -40.10594980
  exchange ACFDT corr.  =         0.00000000  see jH, gK, PRB 81, 115126


--------------------------------------------------------------------------------------------------------




----------------------------------------- Iteration    1(  31)  ---------------------------------------


    POTLOK:  cpu time   18.5041: real time   18.5490
    SETDIJ:  cpu time    0.2093: real time    0.2098
    TRIAL :  cpu time   17.2307: real time   17.3196
    CORREC:  cpu time   35.5067: real time   35.6431
    CHARGE:  cpu time    2.3001: real time    2.3098
    --------------------------------------------
      LOOP:  cpu time   73.8002: real time   74.0831

 eigenvalue-minimisations  :     0
 total energy-change (2. order) :-0.4444530E-04  (-0.1689335E-04)
 number of electron      10.0000000 magnetization 
 augmentation part       -0.0208675 magnetization 

 Free energy of the ion-electron system (eV)
  ---------------------------------------------------
  alpha Z        PSCENC =         0.00752218
  Ewald energy   TEWEN  =       295.25188999
  -Hartree energ DENC   =      -545.90337842
  -exchange      EXHF   =        99.95529785
  -V(xc)+E(xc)   XCENC  =         0.00000000
  PAW double counting   =     10827.78325101   -10828.11609604
  entropy T*S    EENTRO =        -0.00000000
  eigenvalues    EBANDS =      -179.51652602
  atomic energy  EATOM  =       290.43204520
  ---------------------------------------------------
  free energy    TOTEN  =       -40.10599424 eV

  energy without entropy =      -40.10599424  energy(sigma->0) =      -40.10599424
  exchange ACFDT corr.  =        -0.00000000  see jH, gK, PRB 81, 115126


--------------------------------------------------------------------------------------------------------




----------------------------------------- Iteration    1(  32)  ---------------------------------------


    POTLOK:  cpu time   18.4396: real time   18.4844
    SETDIJ:  cpu time    0.2104: real time    0.2109
    TRIAL :  cpu time   17.2624: real time   17.3526
    CORREC:  cpu time   35.5103: real time   35.6469
    CHARGE:  cpu time    2.3129: real time    2.3225
    --------------------------------------------
      LOOP:  cpu time   73.7808: real time   74.0647

 eigenvalue-minimisations  :     0
 total energy-change (2. order) :-0.1689342E-04  (-0.6236357E-05)
 number of electron      10.0000000 magnetization 
 augmentation part       -0.0208623 magnetization 

 Free energy of the ion-electron system (eV)
  ---------------------------------------------------
  alpha Z        PSCENC =         0.00752218
  Ewald energy   TEWEN  =       295.25188999
  -Hartree energ DENC   =      -545.90553773
  -exchange      EXHF   =        99.95592220
  -V(xc)+E(xc)   XCENC  =         0.00000000
  PAW double counting   =     10832.94568886   -10833.27848697
  entropy T*S    EENTRO =        -0.00000000
  eigenvalues    EBANDS =      -179.51505487
  atomic energy  EATOM  =       290.43204520
  ---------------------------------------------------
  free energy    TOTEN  =       -40.10601114 eV

  energy without entropy =      -40.10601114  energy(sigma->0) =      -40.10601114
  exchange ACFDT corr.  =        -0.00000000  see jH, gK, PRB 81, 115126


--------------------------------------------------------------------------------------------------------




----------------------------------------- Iteration    1(  33)  ---------------------------------------


    POTLOK:  cpu time   18.4205: real time   18.4653
    SETDIJ:  cpu time    0.2092: real time    0.2097
    TRIAL :  cpu time   17.2486: real time   17.3372
    CORREC:  cpu time   35.4351: real time   35.5698
    CHARGE:  cpu time    2.3069: real time    2.3164
    --------------------------------------------
      LOOP:  cpu time   73.6701: real time   73.9516

 eigenvalue-minimisations  :     0
 total energy-change (2. order) :-0.6236446E-05  (-0.2305472E-05)
 number of electron      10.0000000 magnetization 
 augmentation part       -0.0208605 magnetization 

 Free energy of the ion-electron system (eV)
  ---------------------------------------------------
  alpha Z        PSCENC =         0.00752218
  Ewald energy   TEWEN  =       295.25188999
  -Hartree energ DENC   =      -545.89803118
  -exchange      EXHF   =        99.95507193
  -V(xc)+E(xc)   XCENC  =         0.00000000
  PAW double counting   =     10834.94146700   -10835.27422963
  entropy T*S    EENTRO =        -0.00000000
  eigenvalues    EBANDS =      -179.52175286
  atomic energy  EATOM  =       290.43204520
  ---------------------------------------------------
  free energy    TOTEN  =       -40.10601737 eV

  energy without entropy =      -40.10601737  energy(sigma->0) =      -40.10601737
  exchange ACFDT corr.  =        -0.00000000  see jH, gK, PRB 81, 115126


--------------------------------------------------------------------------------------------------------




----------------------------------------- Iteration    1(  34)  ---------------------------------------


    POTLOK:  cpu time   18.4330: real time   18.4778
    SETDIJ:  cpu time    0.2078: real time    0.2083
    TRIAL :  cpu time   17.2723: real time   17.3607
    CORREC:  cpu time   35.5134: real time   35.6497
    CHARGE:  cpu time    2.3034: real time    2.3129
    --------------------------------------------
      LOOP:  cpu time   73.7771: real time   74.0585

 eigenvalue-minimisations  :     0
 total energy-change (2. order) :-0.2305272E-05  (-0.1045366E-05)
 number of electron      10.0000000 magnetization 
 augmentation part       -0.0208606 magnetization 

 Free energy of the ion-electron system (eV)
  ---------------------------------------------------
  alpha Z        PSCENC =         0.00752218
  Ewald energy   TEWEN  =       295.25188999
  -Hartree energ DENC   =      -545.89588799
  -exchange      EXHF   =        99.95500066
  -V(xc)+E(xc)   XCENC  =         0.00000000
  PAW double counting   =     10835.60516030   -10835.93791358
  entropy T*S    EENTRO =        -0.00000000
  eigenvalues    EBANDS =      -179.52383644
  atomic energy  EATOM  =       290.43204520
  ---------------------------------------------------
  free energy    TOTEN  =       -40.10601968 eV

  energy without entropy =      -40.10601968  energy(sigma->0) =      -40.10601968
  exchange ACFDT corr.  =        -0.00000000  see jH, gK, PRB 81, 115126


--------------------------------------------------------------------------------------------------------




----------------------------------------- Iteration    1(  35)  ---------------------------------------


    POTLOK:  cpu time   18.4076: real time   18.4523
    SETDIJ:  cpu time    0.2075: real time    0.2080
    TRIAL :  cpu time   17.3452: real time   17.4346
    CORREC:  cpu time   35.5158: real time   35.6525
    CHARGE:  cpu time    2.2906: real time    2.3002
    --------------------------------------------
      LOOP:  cpu time   73.8161: real time   74.0997

 eigenvalue-minimisations  :     0
 total energy-change (2. order) :-0.1045392E-05  (-0.5228706E-06)
 number of electron      10.0000000 magnetization 
 augmentation part       -0.0208615 magnetization 

 Free energy of the ion-electron system (eV)
  ---------------------------------------------------
  alpha Z        PSCENC =         0.00752218
  Ewald energy   TEWEN  =       295.25188999
  -Hartree energ DENC   =      -545.89801201
  -exchange      EXHF   =        99.95554237
  -V(xc)+E(xc)   XCENC  =         0.00000000
  PAW double counting   =     10835.74736947   -10836.08012707
  entropy T*S    EENTRO =        -0.00000000
  eigenvalues    EBANDS =      -179.52225086
  atomic energy  EATOM  =       290.43204520
  ---------------------------------------------------
  free energy    TOTEN  =       -40.10602072 eV

  energy without entropy =      -40.10602072  energy(sigma->0) =      -40.10602072
  exchange ACFDT corr.  =         0.00000000  see jH, gK, PRB 81, 115126


--------------------------------------------------------------------------------------------------------




----------------------------------------- Iteration    1(  36)  ---------------------------------------


    POTLOK:  cpu time   18.3932: real time   18.4379
    SETDIJ:  cpu time    0.2083: real time    0.2088
    TRIAL :  cpu time   17.2912: real time   17.3811
    CORREC:  cpu time   35.4617: real time   35.5981
    CHARGE:  cpu time    2.3027: real time    2.3123
    --------------------------------------------
      LOOP:  cpu time   73.7080: real time   73.9919

 eigenvalue-minimisations  :     0
 total energy-change (2. order) :-0.5228946E-06  (-0.2498694E-06)
 number of electron      10.0000000 magnetization 
 augmentation part       -0.0208621 magnetization 

 Free energy of the ion-electron system (eV)
  ---------------------------------------------------
  alpha Z        PSCENC =         0.00752218
  Ewald energy   TEWEN  =       295.25188999
  -Hartree energ DENC   =      -545.89918274
  -exchange      EXHF   =        99.95581631
  -V(xc)+E(xc)   XCENC  =         0.00000000
  PAW double counting   =     10835.53962763   -10835.87238986
  entropy T*S    EENTRO =        -0.00000000
  eigenvalues    EBANDS =      -179.52134996
  atomic energy  EATOM  =       290.43204520
  ---------------------------------------------------
  free energy    TOTEN  =       -40.10602125 eV

  energy without entropy =      -40.10602125  energy(sigma->0) =      -40.10602125
  exchange ACFDT corr.  =         0.00000000  see jH, gK, PRB 81, 115126


--------------------------------------------------------------------------------------------------------




----------------------------------------- Iteration    1(  37)  ---------------------------------------


    POTLOK:  cpu time   18.4020: real time   18.4467
    SETDIJ:  cpu time    0.2065: real time    0.2070
    TRIAL :  cpu time   17.3279: real time   17.4168
    CORREC:  cpu time   35.4729: real time   35.6075
    CHARGE:  cpu time    2.3112: real time    2.3208
    --------------------------------------------
      LOOP:  cpu time   73.7679: real time   74.0489

 eigenvalue-minimisations  :     0
 total energy-change (2. order) :-0.2497729E-06  (-0.1393374E-06)
 number of electron      10.0000000 magnetization 
 augmentation part       -0.0208621 magnetization 

 Free energy of the ion-electron system (eV)
  ---------------------------------------------------
  alpha Z        PSCENC =         0.00752218
  Ewald energy   TEWEN  =       295.25188999
  -Hartree energ DENC   =      -545.89857166
  -exchange      EXHF   =        99.95571780
  -V(xc)+E(xc)   XCENC  =         0.00000000
  PAW double counting   =     10835.14696459   -10835.47972752
  entropy T*S    EENTRO =        -0.00000000
  eigenvalues    EBANDS =      -179.52186207
  atomic energy  EATOM  =       290.43204520
  ---------------------------------------------------
  free energy    TOTEN  =       -40.10602150 eV

  energy without entropy =      -40.10602150  energy(sigma->0) =      -40.10602150
  exchange ACFDT corr.  =         0.00000000  see jH, gK, PRB 81, 115126


--------------------------------------------------------------------------------------------------------




----------------------------------------- Iteration    1(  38)  ---------------------------------------


    POTLOK:  cpu time   18.3916: real time   18.4363
    SETDIJ:  cpu time    0.2102: real time    0.2107
    TRIAL :  cpu time   17.3245: real time   17.4142
    CORREC:  cpu time   35.4430: real time   35.5787
    CHARGE:  cpu time    2.2989: real time    2.3085
    --------------------------------------------
      LOOP:  cpu time   73.7167: real time   73.9996

 eigenvalue-minimisations  :     0
 total energy-change (2. order) :-0.1392758E-06  (-0.5009321E-07)
 number of electron      10.0000000 magnetization 
 augmentation part       -0.0208622 magnetization 

 Free energy of the ion-electron system (eV)
  ---------------------------------------------------
  alpha Z        PSCENC =         0.00752218
  Ewald energy   TEWEN  =       295.25188999
  -Hartree energ DENC   =      -545.89843686
  -exchange      EXHF   =        99.95567314
  -V(xc)+E(xc)   XCENC  =         0.00000000
  PAW double counting   =     10834.97557517   -10835.30833776
  entropy T*S    EENTRO =        -0.00000000
  eigenvalues    EBANDS =      -179.52195270
  atomic energy  EATOM  =       290.43204520
  ---------------------------------------------------
  free energy    TOTEN  =       -40.10602164 eV

  energy without entropy =      -40.10602164  energy(sigma->0) =      -40.10602164
  exchange ACFDT corr.  =         0.00000000  see jH, gK, PRB 81, 115126


--------------------------------------------------------------------------------------------------------




----------------------------------------- Iteration    1(  39)  ---------------------------------------


    POTLOK:  cpu time   18.4050: real time   18.4497
    SETDIJ:  cpu time    0.2101: real time    0.2106
    TRIAL :  cpu time   17.2313: real time   17.3202
    CORREC:  cpu time   35.4529: real time   35.5872
    CHARGE:  cpu time    2.3129: real time    2.3228
    --------------------------------------------
      LOOP:  cpu time   73.6600: real time   73.9410

 eigenvalue-minimisations  :     0
 total energy-change (2. order) :-0.5005757E-07  (-0.2113341E-07)
 number of electron      10.0000000 magnetization 
 augmentation part       -0.0208623 magnetization 

 Free energy of the ion-electron system (eV)
  ---------------------------------------------------
  alpha Z        PSCENC =         0.00752218
  Ewald energy   TEWEN  =       295.25188999
  -Hartree energ DENC   =      -545.89824090
  -exchange      EXHF   =        99.95562534
  -V(xc)+E(xc)   XCENC  =         0.00000000
  PAW double counting   =     10834.82910205   -10835.16186440
  entropy T*S    EENTRO =        -0.00000000
  eigenvalues    EBANDS =      -179.52210115
  atomic energy  EATOM  =       290.43204520
  ---------------------------------------------------
  free energy    TOTEN  =       -40.10602169 eV

  energy without entropy =      -40.10602169  energy(sigma->0) =      -40.10602169
  exchange ACFDT corr.  =         0.00000000  see jH, gK, PRB 81, 115126


--------------------------------------------------------------------------------------------------------


  average scaling for gradient   2.6809


 average (electrostatic) potential at core
  the test charge radii are     0.5770  0.4325
  (the norm of the test charge is              1.0000)
       1 -64.0174       2 -64.0172       3 -27.3541       4 -27.3540
 
 
 
 E-fermi : -11.0332     XC(G=0):   0.0000     alpha+bet : -0.0062


 k-point     1 :       0.0000    0.0000    0.0000
  band No.  band energies     occupation 
      1     -27.9851      2.00000
      2     -20.9442      2.00000
      3     -18.5497      2.00000
      4     -11.1410      2.00000
      5     -11.1410      2.00000
      6       0.0062      0.00000
      7       0.1272      0.00000
      8       0.1301      0.00000
      9       0.1598      0.00000
     10       0.1891      0.00000
     11       0.2174      0.00000
     12       0.2641      0.00000


--------------------------------------------------------------------------------------------------------


 soft charge-density along one line, spin component           1
         0         1         2         3         4         5         6         7         8         9
 total charge-density along one line
 
 pseudopotential strength for first ion, spin component:           1
 11.613  19.532   0.000  -0.000  -0.013   0.000  -0.000  -0.023
 19.532  32.848   0.000  -0.000  -0.021   0.000  -0.000  -0.038
  0.000   0.000  -3.277  -0.000  -0.000  -5.836  -0.000  -0.000
 -0.000  -0.000  -0.000  -3.277   0.000  -0.000  -5.836   0.000
 -0.013  -0.021  -0.000   0.000  -3.274  -0.000   0.000  -5.831
  0.000   0.000  -5.836  -0.000  -0.000 -10.374  -0.000  -0.000
 -0.000  -0.000  -0.000  -5.836   0.000  -0.000 -10.374   0.000
 -0.023  -0.038  -0.000   0.000  -5.831  -0.000   0.000 -10.363
 total augmentation occupancy for first ion, spin component:           1
 16.102  -6.710  -0.002   0.001   2.778   0.001  -0.001  -1.270
 -6.710   2.801   0.001  -0.001  -1.310  -0.000   0.000   0.592
 -0.002   0.001   5.999   0.000  -0.001  -2.100  -0.000   0.000
  0.001  -0.001   0.000   5.999   0.001  -0.000  -2.100  -0.000
  2.778  -1.310  -0.001   0.001  15.137   0.000  -0.000  -6.011
  0.001  -0.000  -2.100  -0.000   0.000   0.735   0.000  -0.000
 -0.001   0.000  -0.000  -2.100  -0.000   0.000   0.735   0.000
 -1.270   0.592   0.000  -0.000  -6.011  -0.000   0.000   2.390


------------------------ aborting loop because EDIFF is reached ----------------------------------------


    FORLOC:  cpu time    1.1133: real time    1.1160
    FORHF :  cpu time   10.5389: real time   10.5663
    FORNL :  cpu time    0.2802: real time    0.2809
    FORCOR:  cpu time   16.8316: real time   16.8725
    OFIELD:  cpu time    0.0558: real time    0.0559

 VOLUME and BASIS-vectors are now :
 -----------------------------------------------------------------------------
  energy-cutoff  :     2000.00
  volume of cell :    42875.00
      direct lattice vectors                 reciprocal lattice vectors
    35.000000000  0.000000000  0.000000000     0.028571429  0.000000000  0.000000000
     0.000000000 35.000000000  0.000000000     0.000000000  0.028571429  0.000000000
     0.000000000  0.000000000 35.000000000     0.000000000  0.000000000  0.028571429

  length of vectors
    35.000000000 35.000000000 35.000000000     0.028571429  0.028571429  0.028571429


 FORCES acting on ions:
    Electron-Ion                     Ewald-Force                    Non-Local-Force
 -----------------------------------------------------------------------------------------------
   0.123E+03 -.599E-01 0.420E-01   -.117E+03 0.528E-01 -.377E-01   -.137E+01 0.413E-02 -.222E-02
   -.123E+03 0.825E-02 -.114E-01   0.117E+03 -.117E-01 0.128E-01   0.137E+01 0.284E-02 -.127E-02
   0.571E+02 0.334E-02 0.761E-03   -.635E+02 -.320E-02 -.120E-02   0.642E+01 0.876E-03 -.218E-03
   -.571E+02 0.344E-01 -.236E-01   0.635E+02 -.379E-01 0.260E-01   -.642E+01 0.434E-02 -.294E-02
 -----------------------------------------------------------------------------------------------
   0.132E-02 -.139E-01 0.774E-02   0.000E+00 0.694E-17 -.347E-17   -.100E-02 0.122E-01 -.665E-02
 
 
 POSITION                                       TOTAL-FORCE (eV/Angst)
 -----------------------------------------------------------------------------------
     34.39381      0.05587      0.58900         3.595344     -0.001860      0.001342
      0.60585      0.05554      0.58927        -3.595970     -0.000217      0.000050
     33.33196      0.05578      0.58901         0.347329      0.001049     -0.000698
      1.66768      0.05486      0.58973        -0.346704      0.001028     -0.000695
 -----------------------------------------------------------------------------------
    total drift:                                0.000184      0.000051      0.000118


--------------------------------------------------------------------------------------------------------



  FREE ENERGIE OF THE ION-ELECTRON SYSTEM (eV)
  ---------------------------------------------------
  free  energy   TOTEN  =       -40.10602169 eV

  energy  without entropy=      -40.10602169  energy(sigma->0) =      -40.10602169
 


--------------------------------------------------------------------------------------------------------


    POTLOK:  cpu time   18.6244: real time   18.6697


--------------------------------------------------------------------------------------------------------


     LOOP+:  cpu time 3375.0249: real time 3387.2871
    4ORBIT:  cpu time    0.0000: real time    0.0000

 total amount of memory used by VASP on root node  4479214. kBytes
========================================================================

   base      :      30000. kBytes
   nonl-proj :     104493. kBytes
   fftplans  :    1713006. kBytes
   grid      :    2553282. kBytes
   one-center:          1. kBytes
   HF        :          4. kBytes
   nonlr-proj:         59. kBytes
   wavefun   :      78369. kBytes
 
  
  
 General timing and accounting informations for this job:
 ========================================================
  
                  Total CPU time used (sec):     4290.767
                            User time (sec):     3880.372
                          System time (sec):      410.394
                         Elapsed time (sec):     4305.772
  
                   Maximum memory used (kb):     6713100.
                   Average memory used (kb):           0.
  
                          Minor page faults:       905926
                          Major page faults:            5
                 Voluntary context switches:       399404
 
 PROFILE, used timers:      39
 =============================
 
 index                 routine                    time                            calls level
----------------------------------------------------------------------------------------------
    1    total_time                         4305.773742                                1   1
    2      w1_copy                               0.952284                            520   2
    3      fftwav_mpi                          106.643822                            409   2
    4      fftext_mpi                            0.501268                              3   2
    5      overl                                 0.000306                            332   2
    6      orth1                                 0.820574                            248   2
    7      lincom                                0.944765                            210   2
    8      eccp                                 15.962616                            321   2
    9      hamiltmu                             14.645914                             37   2
   10        vhamil                                3.321484                           54   3
   11        overl1                                0.000050                           54   3
   12        kinhamil                              9.208466                           54   3
   13          fftext_mpi                            9.105098                         54   4
   14      pdssyex_zheevx                        0.693887                             73   2
   15      fock_acc                            473.185363                             68   2
   16        w1_copy                               0.671931                          242   3
   17        fftwav_mpi                           33.729492                          242   3
   18        fock_charge_mu                       24.367211                          140   3
   19          racc0mu_hf                            0.249536                        140   4
   20        rpromu_hf                             1.104277                          140   3
   21        overl1                                0.000067                          102   3
   22        fftext_mpi                           10.048216                          102   3
   23      hamilt_local                         27.622481                            102   2
   24        vhamil                                6.140337                          102   3
   25        kinhamil                             21.481879                          102   3
   26          fftext_mpi                           21.286343                        102   4
   27      w1_dscal                              2.924804                            102   2
   28      eddiag                              494.767415                             34   2
   29        fock_acc                            463.771326                           68   3
   30          w1_copy                               0.468770                        238   4
   31          fftwav_mpi                           33.627585                        238   4
   32          fock_charge_mu                       23.771140                        136   4
   33            racc0mu_hf                            0.235626                      136   5
   34          rpromu_hf                             1.112915                        136   4
   35          overl1                                0.000060                        102   4
   36          fftext_mpi                            9.980704                        102   4
   37        fftwav_mpi                           25.652722                          102   3
   38        eccp                                  4.943880                          102   3
   39      rpro1_hf                              0.156488                             96   2
 
 Flat profile
 ============
 
             routine name                   CPU           calls
 ---------------------------------------------------------------
 total_time                           3165.951756           1
 fock_acc                              798.074319         136
 fftwav_mpi                            199.653621         991
 fftext_mpi                             50.921629         363
 fock_charge_mu                         47.653190         276
 eccp                                   20.906495         423
 vhamil                                  9.461821         156
 w1_dscal                                2.924804         102
 rpromu_hf                               2.217192         276
 hamiltmu                                2.115915          37
 w1_copy                                 2.092985        1000
 lincom                                  0.944765         210
 orth1                                   0.820574         248
 pdssyex_zheevx                          0.693887          73
 racc0mu_hf                              0.485162         276
 eddiag                                  0.399487          34
 kinhamil                                0.298903         156
 rpro1_hf                                0.156488          96
 overl                                   0.000306         332
 hamilt_local                            0.000266         102
 overl1                                  0.000177         258
 ---------------------------------------------------------------
  summed up times    4305.77374196053     
 
Profiling took   0.006934  0.004152  0.003269  0.003239 seconds
Profiling took   0.003303 seconds
