 vasp.5.4.1 24Jun15 (build Jan 02 2020 16:21:29) gamma-only                     
  
 executed on           IFC15_impi date 2020.05.11  12:12:31
 running on   32 total cores
 distrk:  each k-point on   32 cores,    1 groups
 distr:  one band on NCORES_PER_BAND=   8 cores,    4 groups


--------------------------------------------------------------------------------------------------------


 INCAR:
 POTCAR:    PAW_PBE C_h 06Feb2004                 
 POTCAR:    PAW_PBE O_h 06Feb2004                 
 POTCAR:    PAW_PBE H_h 06Feb2004                 
 POTCAR:    PAW_PBE C_h 06Feb2004                 
   VRHFIN =C: s2p2                                                              
   LEXCH  = PE                                                                  
   EATOM  =   147.1560 eV,   10.8157 Ry                                         
                                                                                
   TITEL  = PAW_PBE C_h 06Feb2004                                               
   LULTRA =        F    use ultrasoft PP ?                                      
   IUNSCR =        1    unscreen: 0-lin 1-nonlin 2-no                           
   RPACOR =    0.800    partial core radius                                     
   POMASS =   12.011; ZVAL   =    4.000    mass and valenz                      
   RCORE  =    1.100    outmost cutoff radius                                   
   RWIGS  =    1.630; RWIGS  =    0.863    wigner-seitz radius (au A)           
   ENMAX  =  700.000; ENMIN  =  500.000 eV                                      
   ICORE  =        2    local potential                                         
   LCOR   =        T    correct aug charges                                     
   LPAW   =        T    paw PP                                                  
   EAUG   =  946.768                                                            
   DEXC   =    0.000                                                            
   RMAX   =    1.128    core radius for proj-oper                               
   RAUG   =    1.300    factor for augmentation sphere                          
   RDEP   =    1.162    radius for radial grids                                 
   RDEPT  =    1.088    core radius for aug-charge                              
                                                                                
   Atomic configuration                                                         
    4 entries                                                                   
     n  l   j            E        occ.                                          
     1  0  0.50      -273.3789   2.0000                                         
     2  0  0.50       -13.7508   2.0000                                         
     2  1  0.50        -5.2854   2.0000                                         
     3  2  1.50        -5.4423   0.0000                                         
   Description                                                                  
     l       E           TYP  RCUT    TYP  RCUT                                 
     0    -13.7508458     23  1.100                                             
     0     -8.2022199     23  1.100                                             
     1     -5.2854383     23  1.100                                             
     1      1.1560700     23  1.100                                             
     2     -5.4423304      7  1.100                                             
  local pseudopotential read in
  partial core-charges read in
  partial kinetic energy density read in
  atomic valenz-charges read in
  non local Contribution for L=           0  read in
    real space projection operators read in
  non local Contribution for L=           0  read in
    real space projection operators read in
  non local Contribution for L=           1  read in
    real space projection operators read in
  non local Contribution for L=           1  read in
    real space projection operators read in
    PAW grid and wavefunctions read in
 
   number of l-projection  operators is LMAX  =           4
   number of lm-projection operators is LMMAX =           8
 
 POTCAR:    PAW_PBE O_h 06Feb2004                 
   VRHFIN =O: s2p4                                                              
   LEXCH  = PE                                                                  
   EATOM  =   432.3788 eV,   31.7789 Ry                                         
                                                                                
   TITEL  = PAW_PBE O_h 06Feb2004                                               
   LULTRA =        F    use ultrasoft PP ?                                      
   IUNSCR =        1    unscreen: 0-lin 1-nonlin 2-no                           
   RPACOR =    0.800    partial core radius                                     
   POMASS =   16.000; ZVAL   =    6.000    mass and valenz                      
   RCORE  =    1.100    outmost cutoff radius                                   
   RWIGS  =    1.400; RWIGS  =    0.741    wigner-seitz radius (au A)           
   ENMAX  =  700.000; ENMIN  =  500.000 eV                                      
   ICORE  =        2    local potential                                         
   LCOR   =        T    correct aug charges                                     
   LPAW   =        T    paw PP                                                  
   EAUG   =  888.804                                                            
   DEXC   =    0.000                                                            
   RMAX   =    1.128    core radius for proj-oper                               
   RAUG   =    1.300    factor for augmentation sphere                          
   RDEP   =    1.125    radius for radial grids                                 
   RDEPT  =    1.088    core radius for aug-charge                              
                                                                                
   Atomic configuration                                                         
    4 entries                                                                   
     n  l   j            E        occ.                                          
     1  0  0.50      -514.6923   2.0000                                         
     2  0  0.50       -23.9615   2.0000                                         
     2  1  0.50        -9.0305   4.0000                                         
     3  2  1.50        -9.5241   0.0000                                         
   Description                                                                  
     l       E           TYP  RCUT    TYP  RCUT                                 
     0    -23.9615319     23  1.100                                             
     0    -25.3221145     23  1.100                                             
     1     -9.0304911     23  1.100                                             
     1     -5.4802209     23  1.100                                             
     2     -9.5240782      7  1.100                                             
  local pseudopotential read in
  partial core-charges read in
  partial kinetic energy density read in
  atomic valenz-charges read in
  non local Contribution for L=           0  read in
    real space projection operators read in
  non local Contribution for L=           0  read in
    real space projection operators read in
  non local Contribution for L=           1  read in
    real space projection operators read in
  non local Contribution for L=           1  read in
    real space projection operators read in
    PAW grid and wavefunctions read in
 
   number of l-projection  operators is LMAX  =           4
   number of lm-projection operators is LMMAX =           8
 
 POTCAR:    PAW_PBE H_h 06Feb2004                 
   VRHFIN =H: ultrasoft test                                                    
   LEXCH  = PE                                                                  
   EATOM  =    12.4884 eV,    0.9179 Ry                                         
                                                                                
   TITEL  = PAW_PBE H_h 06Feb2004                                               
   LULTRA =        F    use ultrasoft PP ?                                      
   IUNSCR =        0    unscreen: 0-lin 1-nonlin 2-no                           
   RPACOR =    0.000    partial core radius                                     
   POMASS =    1.000; ZVAL   =    1.000    mass and valenz                      
   RCORE  =    0.800    outmost cutoff radius                                   
   RWIGS  =    0.700; RWIGS  =    0.370    wigner-seitz radius (au A)           
   ENMAX  =  700.000; ENMIN  =  350.000 eV                                      
   RCLOC  =    0.701    cutoff for local pot                                    
   LCOR   =        T    correct aug charges                                     
   LPAW   =        T    paw PP                                                  
   EAUG   = 1000.000                                                            
   RMAX   =    0.819    core radius for proj-oper                               
   RAUG   =    1.000    factor for augmentation sphere                          
   RDEP   =    0.817    radius for radial grids                                 
   RDEPT  =    0.817    core radius for aug-charge                              
                                                                                
   Atomic configuration                                                         
    2 entries                                                                   
     n  l   j            E        occ.                                          
     1  0  0.50        -6.4927   1.0000                                         
     2  1  0.50        -3.4015   0.0000                                         
   Description                                                                  
     l       E           TYP  RCUT    TYP  RCUT                                 
     0     -6.4927493     23  0.800                                             
     0      6.8029130     23  0.800                                             
     1     -6.8029130     23  0.800                                             
  local pseudopotential read in
  atomic valenz-charges read in
  non local Contribution for L=           0  read in
    real space projection operators read in
  non local Contribution for L=           0  read in
    real space projection operators read in
  non local Contribution for L=           1  read in
    real space projection operators read in
    PAW grid and wavefunctions read in
 
   number of l-projection  operators is LMAX  =           3
   number of lm-projection operators is LMMAX =           5
 
  PAW_PBE C_h 06Feb2004                 :
 energy of atom  1       EATOM= -147.1560
 kinetic energy error for atom=    0.0004 (will be added to EATOM!!)
  PAW_PBE O_h 06Feb2004                 :
 energy of atom  2       EATOM= -432.3788
 kinetic energy error for atom=    0.0016 (will be added to EATOM!!)
  PAW_PBE H_h 06Feb2004                 :
 energy of atom  3       EATOM=  -12.4884
 kinetic energy error for atom=    0.0001 (will be added to EATOM!!)
 
 
 POSCAR: C O H                                   
  positions in cartesian coordinates
  No initial velocities read in
 exchange correlation table for  LEXCH =        8
   RHO(1)=    0.500       N(1)  =     2000
   RHO(2)=  100.500       N(2)  =     4000
 


--------------------------------------------------------------------------------------------------------


 ion  position               nearest neighbor table
   1  0.997  0.015  0.125-   3 1.21   4 1.35   2 1.50
   2  0.003  0.004  0.166-   6 1.08   8 1.09   7 1.09   1 1.50
   3  0.983  0.045  0.114-   1 1.21
   4  0.008  0.987  0.101-   5 0.97   1 1.35
   5  0.003  0.997  0.075-   4 0.97
   6  0.994  0.027  0.185-   2 1.08
   7  0.986  0.978  0.172-   2 1.09
   8  0.033  0.997  0.171-   2 1.09
 
  LATTYP: Found a simple cubic cell.
 ALAT       =    35.0000000000
  
  Lattice vectors:
  
 A1 = (  35.0000000000,   0.0000000000,   0.0000000000)
 A2 = (   0.0000000000,  35.0000000000,   0.0000000000)
 A3 = (   0.0000000000,   0.0000000000,  35.0000000000)


Analysis of symmetry for initial positions (statically):
=====================================================================
 Subroutine PRICEL returns:
 Original cell was already a primitive cell.
 

 Routine SETGRP: Setting up the symmetry group for a 
 simple cubic supercell.


 Subroutine GETGRP returns: Found  1 space group operations
 (whereof  1 operations were pure point group operations)
 out of a pool of 48 trial point group operations.


The static configuration has the point symmetry C_1 .


Analysis of symmetry for dynamics (positions and initial velocities):
=====================================================================
 Subroutine PRICEL returns:
 Original cell was already a primitive cell.
 

 Routine SETGRP: Setting up the symmetry group for a 
 simple cubic supercell.


 Subroutine GETGRP returns: Found  1 space group operations
 (whereof  1 operations were pure point group operations)
 out of a pool of 48 trial point group operations.


The dynamic configuration has the point symmetry C_1 .
 
 
 KPOINTS: automatic mesh                          

Automatic generation of k-mesh.
Space group operators:
 irot       det(A)        alpha          n_x          n_y          n_z        tau_x        tau_y        tau_z
    1     1.000000     0.000000     1.000000     0.000000     0.000000     0.000000     0.000000     0.000000
 
 Subroutine IBZKPT returns following result:
 ===========================================
 
 Found      1 irreducible k-points:
 
 Following reciprocal coordinates:
            Coordinates               Weight
  0.000000  0.000000  0.000000      1.000000
 
 Following cartesian coordinates:
            Coordinates               Weight
  0.000000  0.000000  0.000000      1.000000
 
 
 Subroutine IBZKPT_HF returns following result:
 ==============================================
 
 Found      1 k-points in 1st BZ
 the following      1 k-points will be used (e.g. in the exchange kernel)
 Following reciprocal coordinates:   # in IRBZ
  0.000000  0.000000  0.000000    1.00000000   1 t-inv F


--------------------------------------------------------------------------------------------------------




 Dimension of arrays:
   k-points           NKPTS =      1   k-points in BZ     NKDIM =      1   number of bands    NBANDS=     20
   number of dos      NEDOS =    301   number of ions     NIONS =      8
   non local maximal  LDIM  =      4   non local SUM 2l+1 LMDIM =      8
   total plane-waves  NPLWV = ******
   max r-space proj   IRMAX =      1   max aug-charges    IRDMAX=  23028
   dimension x,y,z NGX =   512 NGY =  512 NGZ =  512
   dimension x,y,z NGXF=  1024 NGYF= 1024 NGZF= 1024
   support grid    NGXF=  1024 NGYF= 1024 NGZF= 1024
   ions per type =               2   2   4
 NGX,Y,Z   is equivalent  to a cutoff of  24.32, 24.32, 24.32 a.u.
 NGXF,Y,Z  is equivalent  to a cutoff of  48.64, 48.64, 48.64 a.u.


 I would recommend the setting:
   dimension x,y,z NGX =   511 NGY =  511 NGZ =  511
 SYSTEM =  C                                       
 POSCAR =  C O H                                   

 Startparameter for this run:
   NWRITE =      2    write-flag & timer
   PREC   = accura    normal or accurate (medium, high low for compatibility)
   ISTART =      0    job   : 0-new  1-cont  2-samecut
   ICHARG =      2    charge: 1-file 2-atom 10-const
   ISPIN  =      1    spin polarized calculation?
   LNONCOLLINEAR =      F non collinear calculations
   LSORBIT =      F    spin-orbit coupling
   INIWAV =      1    electr: 0-lowe 1-rand  2-diag
   LASPH  =      T    aspherical Exc in radial PAW
   METAGGA=      F    non-selfconsistent MetaGGA calc.

 Electronic Relaxation 1
   ENCUT  = 2000.0 eV 147.00 Ry   12.12 a.u. 127.63127.63127.63*2*pi/ulx,y,z
   ENINI  = 2000.0     initial cutoff
   ENAUG  = 1000.0 eV  augmentation charge cutoff
   NELM   =     60;   NELMIN=  2; NELMDL= -5     # of ELM steps 
   EDIFF  = 0.1E-06   stopping-criterion for ELM
   LREAL  =      F    real-space projection
   NLSPLINE    = F    spline interpolate recip. space projectors
   LCOMPAT=      F    compatible to vasp.4.4
   GGA_COMPAT  = T    GGA compatible to vasp.4.4-vasp.4.6
   LMAXPAW     = -100 max onsite density
   LMAXMIX     =    2 max onsite mixed and CHGCAR
   VOSKOWN=      0    Vosko Wilk Nusair interpolation
   ROPT   =    0.00000   0.00000   0.00000
 Ionic relaxation
   EDIFFG = 0.1E-05   stopping-criterion for IOM
   NSW    =      0    number of steps for IOM
   NBLOCK =      1;   KBLOCK =      1    inner block; outer block 
   IBRION =     -1    ionic relax: 0-MD 1-quasi-New 2-CG
   NFREE  =      0    steps in history (QN), initial steepest desc. (CG)
   ISIF   =      0    stress and relaxation
   IWAVPR =     10    prediction:  0-non 1-charg 2-wave 3-comb
   ISYM   =      3    0-nonsym 1-usesym 2-fastsym
   LCORR  =      T    Harris-Foulkes like correction to forces

   POTIM  = 0.5000    time-step for ionic-motion
   TEIN   =    0.0    initial temperature
   TEBEG  =    0.0;   TEEND  =   0.0 temperature during run
   SMASS  =  -3.00    Nose mass-parameter (am)
   estimated Nose-frequenzy (Omega)   =  0.10E-29 period in steps =****** mass=  -0.280E-25a.u.
   SCALEE = 1.0000    scale energy and forces
   NPACO  =    256;   APACO  = 16.0  distance and # of slots for P.C.
   PSTRESS=    0.0 pullay stress

  Mass of Ions in am
   POMASS =  12.01 16.00  1.00
  Ionic Valenz
   ZVAL   =   4.00  6.00  1.00
  Atomic Wigner-Seitz radii
   RWIGS  =  -1.00 -1.00 -1.00
  virtual crystal weights 
   VCA    =   1.00  1.00  1.00
   NELECT =      24.0000    total number of electrons
   NUPDOWN=      -1.0000    fix difference up-down

 DOS related values:
   EMIN   =  10.00;   EMAX   =-10.00  energy-range for DOS
   EFERMI =   0.00
   ISMEAR =     0;   SIGMA  =   0.01  broadening in eV -4-tet -1-fermi 0-gaus

 Electronic relaxation 2 (details)
   IALGO  =     58    algorithm
   LDIAG  =      T    sub-space diagonalisation (order eigenvalues)
   LSUBROT=      F    optimize rotation matrix (better conditioning)
   TURBO    =      0    0=normal 1=particle mesh
   IRESTART =      0    0=no restart 2=restart with 2 vectors
   NREBOOT  =      0    no. of reboots
   NMIN     =      0    reboot dimension
   EREF     =   0.00    reference energy to select bands
   IMIX   =      4    mixing-type and parameters
     AMIX     =   0.40;   BMIX     =  1.00
     AMIX_MAG =   1.60;   BMIX_MAG =  1.00
     AMIN     =   0.10
     WC   =   100.;   INIMIX=   1;  MIXPRE=   1;  MAXMIX= -45

 Intra band minimization:
   WEIMIN = 0.0000     energy-eigenvalue tresh-hold
   EBREAK =  0.13E-08  absolut break condition
   DEPER  =   0.30     relativ break condition  

   TIME   =   0.40     timestep for ELM

  volume/ion in A,a.u.               =    5359.38     36166.85
  Fermi-wavevector in a.u.,A,eV,Ry     =   0.134920  0.254962  0.247673  0.018203
  Thomas-Fermi vector in A             =   0.783236
 
 Write flags
   LWAVE  =      F    write WAVECAR
   LCHARG =      T    write CHGCAR
   LVTOT  =      F    write LOCPOT, total local potential
   LVHAR  =      F    write LOCPOT, Hartree potential only
   LELF   =      F    write electronic localiz. function (ELF)
   LORBIT =      0    0 simple, 1 ext, 2 COOP (PROOUT)


 Dipole corrections
   LMONO  =      F    monopole corrections only (constant potential shift)
   LDIPOL =      F    correct potential (dipole corrections)
   IDIPOL =      0    1-x, 2-y, 3-z, 4-all directions 
   EPSILON=  1.0000000 bulk dielectric constant

 Exchange correlation treatment:
   GGA     =    --    GGA type
   LEXCH   =     8    internal setting for exchange type
   VOSKOWN=      0    Vosko Wilk Nusair interpolation
   EXXOEP  =     0    0=HF, 1=EXX-LHF (local Hartree Fock) 2=EXX OEP
   LHFCALC =     T    Hartree Fock is set to
   LSYMGRAD=     F    symmetrize gradient (conserves proper symmetry)
   PRECFOCK=normal    Normal, Fast or Accurate (Low or Medium for compatibility)
   LRHFCALC=     F    long range Hartree Fock
   LRSCOR  =     F    long range correlation only (use DFT for short range part)
   LTHOMAS =     F    Thomas Fermi screening in HF
   LMODELHF=     F    short range full HF, long range fraction AEXX
   ENCUT4O =  -1.0   cutoff for four orbital integrals eV
   LMAXFOCK=     4    L truncation for augmentation on plane wave grid
   LMAXFOCKAE=  -1    L truncation for all-electron charge restoration on plane wave grid
   NMAXFOCKAE=   1    number of basis functions for all-electron charge restoration
   LFOCKAEDFT=     F  apply the AE augmentation even for DFT
   NKREDX  =     1    reduce k-point grid by
   NKREDY  =     1    reduce k-point grid by
   NKREDZ  =     1    reduce k-point grid by
   SHIFTRED=     F    shift reduced grid of Gamma
   HFKIDENT=     F    idential grid for each k-point
   ODDONLY =     F    use only odd q-grid points
   EVENONLY=     F    use only even q-grid points
   HFALPHA =   -1.0000 decay constant for conv. correction
   MCALPHA =    0.0000 extent of test-charge in conv. correction in multipole expansion
   AEXX    =    1.0000 exact exchange contribution
   HFSCREEN=    0.0000 screening length (either q_TF or 0.3 A-1)
   HFSCREENC=   0.0000 screening length for correlation (either q_TF or 0.3 A-1)
   HFRCUT  =    0.0000 spherical cutoff for potential kernel
   ALDAX   =    0.0000 LDA exchange part
   AGGAX   =    0.0000 GGA exchange part
   ALDAC   =    0.0000 LDA correlation
   AGGAC   =    0.0000 GGA correlation
   NBANDSGWLOW=     1    first orbital included in HF term
   ENCUTFOCK=  -1.0 apply spherical cutoff to Coloumb kernel
 Linear response parameters
   LEPSILON=     F    determine dielectric tensor
   LRPA    =     F    only Hartree local field effects (RPA)
   LNABLA  =     F    use nabla operator in PAW spheres
   LVEL    =     F    velocity operator in full k-point grid
   LINTERFAST=   F  fast interpolation
   KINTER  =     0    interpolate to denser k-point grid
   CSHIFT  =0.1000    complex shift for real part using Kramers Kronig
   OMEGAMAX=  -1.0    maximum frequency
   DEG_THRESHOLD= 0.2000000E-02 threshold for treating states as degnerate
   RTIME   =    0.100 relaxation time in fs

 Orbital magnetization related:
   ORBITALMAG=     F  switch on orbital magnetization
   LCHIMAG   =     F  perturbation theory with respect to B field
   DQ        =  0.001000  dq finite difference perturbation B field



--------------------------------------------------------------------------------------------------------


 Static calculation
 charge density and potential will be updated during run
 non-spin polarized calculation
 Conjugate gradient for all bands (Freysoldt, et al. PRB 79, 241103 (2009))
 preconditioned conjugated gradient                                        
 perform sub-space diagonalisation
    before iterative eigenvector-optimisation
 modified Broyden-mixing scheme, WC =      100.0
 initial mixing is a Kerker type mixing with AMIX =  0.4000 and BMIX =      1.0000
 Hartree-type preconditioning will be used
 using additional bands            8
 reciprocal scheme for non local part
 use partial core corrections
 no Harris-corrections to forces 
 use gradient corrections 
 use of overlap-Matrix (Vanderbilt PP)
 Gauss-broadening in eV      SIGMA  =   0.01


--------------------------------------------------------------------------------------------------------


  energy-cutoff  :     2000.00
  volume of cell :    42875.00
      direct lattice vectors                 reciprocal lattice vectors
    35.000000000  0.000000000  0.000000000     0.028571429  0.000000000  0.000000000
     0.000000000 35.000000000  0.000000000     0.000000000  0.028571429  0.000000000
     0.000000000  0.000000000 35.000000000     0.000000000  0.000000000  0.028571429

  length of vectors
    35.000000000 35.000000000 35.000000000     0.028571429  0.028571429  0.028571429


 
 k-points in units of 2pi/SCALE and weight: automatic mesh                          
   0.00000000  0.00000000  0.00000000       1.000
 
 k-points in reciprocal lattice and weights: automatic mesh                          
   0.00000000  0.00000000  0.00000000       1.000
 
 position of ions in fractional coordinates (direct lattice) 
   0.99661798  0.01518281  0.12514791
   0.00261667  0.00384032  0.16604522
   0.98324113  0.04516700  0.11431190
   0.00813834  0.98725243  0.10116833
   0.00331820  0.99656424  0.07541390
   0.99376050  0.02696422  0.18461633
   0.98615722  0.97822249  0.17224382
   0.03257374  0.99709369  0.17076004
 
 position of ions in cartesian coordinates  (Angst):
  34.88162928  0.53139822  4.38017689
   0.09158358  0.13441113  5.81158269
  34.41343969  1.58084484  4.00091651
   0.28484186 34.55383495  3.54089163
   0.11613704 34.87974854  2.63948638
  34.78161743  0.94374771  6.46157157
  34.51550286 34.23778716  6.02853380
   1.14008100 34.89827905  5.97660127
 


--------------------------------------------------------------------------------------------------------


 use parallel FFT for wavefunctions z direction half grid
 k-point  1 :   0.0000 0.0000 0.0000  plane waves: 4353902

 maximum and minimum number of plane-waves per node :    544247   544233

 maximum number of plane-waves:   4353902
 maximum index in each direction: 
   IXMAX=  127   IYMAX=  127   IZMAX=  127
   IXMIN= -127   IYMIN= -127   IZMIN=    0

 NGX is ok and might be reduce to 510
 NGY is ok and might be reduce to 510
 NGZ is ok and might be reduce to 510

 parallel 3D FFT for wavefunctions:
    minimum data exchange during FFTs selected (reduces bandwidth)
 parallel 3D FFT for charge:
    minimum data exchange during FFTs selected (reduces bandwidth)


 FFT grid for exact exchange (Hartree Fock) 
  NGX =384; NGY =384; NGZ =384

 use parallel FFT for wavefunctions z direction half grid
 
 Radii for the augmentation spheres in the non-local exchange
 for species   1 augmentation radius   0.721 (default was   0.577)
       energy cutoff for augmentation   8000.0
 for species   2 augmentation radius   0.744 (default was   0.595)
       energy cutoff for augmentation   8000.0
 for species   3 augmentation radius   0.541 (default was   0.432)
       energy cutoff for augmentation   8000.0

 real space projection operators:
  total allocation   :        858.30 KBytes
  max/ min on nodes  :        112.43        102.45

 Maximum index for augmentation-charges in exchange          317
  SETUP_FOCK is finished

 total amount of memory used by VASP on root node  4870156. kBytes
========================================================================

   base      :      30000. kBytes
   nonl-proj :     174155. kBytes
   fftplans  :    1713006. kBytes
   grid      :    2822242. kBytes
   one-center:          1. kBytes
   HF        :          4. kBytes
   nonlr-proj:        131. kBytes
   wavefun   :     130617. kBytes
 
     INWAV:  cpu time    0.0000: real time    0.0002
 Broyden mixing: mesh for mixing (old mesh)
   NGX =255   NGY =255   NGZ =255
  (NGX  =***   NGY  =***   NGZ  =***)
  gives a total of ****** points

 initial charge density was supplied:
 charge density of overlapping atoms calculated
 number of electron      24.0000000 magnetization 
 keeping initial charge density in first step


--------------------------------------------------------------------------------------------------------


 Maximum index for augmentation-charges          874 (set IRDMAX)


--------------------------------------------------------------------------------------------------------


 FEWALD executed in parallel
    FEWALD:  cpu time    0.0002: real time    0.0002


----------------------------------------- Iteration    1(   1)  ---------------------------------------


    POTLOK:  cpu time   17.8866: real time   17.9316
    SETDIJ:  cpu time    0.0493: real time    0.0494
    TRIAL :  cpu time   10.0386: real time   10.0689
    CORREC:  cpu time    0.0001: real time    0.0001
    --------------------------------------------
      LOOP:  cpu time   28.0911: real time   28.1685

 eigenvalue-minimisations  :    40
 total energy-change (2. order) : 0.2220003E+03  (-0.4598976E+03)
 number of electron      24.0000000 magnetization 
 augmentation part       24.0000000 magnetization 

 Free energy of the ion-electron system (eV)
  ---------------------------------------------------
  alpha Z        PSCENC =         0.03818037
  Ewald energy   TEWEN  =      1513.48651378
  -Hartree energ DENC   =     -2426.65425082
  -exchange      EXHF   =         0.00000000
  -V(xc)+E(xc)   XCENC  =         0.00000000
  PAW double counting   =       989.19862545     -990.61728108
  entropy T*S    EENTRO =        -0.00000000
  eigenvalues    EBANDS =        -0.71903483
  atomic energy  EATOM  =      1137.26749901
  ---------------------------------------------------
  free energy    TOTEN  =       222.00025187 eV

  energy without entropy =      222.00025188  energy(sigma->0) =      222.00025187
  exchange ACFDT corr.  =         0.00000000  see jH, gK, PRB 81, 115126


--------------------------------------------------------------------------------------------------------




----------------------------------------- Iteration    1(   2)  ---------------------------------------


    TRIAL :  cpu time   12.6309: real time   12.6698
    CORREC:  cpu time    0.0002: real time    0.0002
    --------------------------------------------
      LOOP:  cpu time   12.6336: real time   12.6752

 eigenvalue-minimisations  :    56
 total energy-change (2. order) :-0.4278512E+02  (-0.4229116E+02)
 number of electron      24.0000000 magnetization 
 augmentation part       24.0000000 magnetization 

 Free energy of the ion-electron system (eV)
  ---------------------------------------------------
  alpha Z        PSCENC =         0.03818037
  Ewald energy   TEWEN  =      1513.48651378
  -Hartree energ DENC   =     -2426.65425082
  -exchange      EXHF   =         0.00000000
  -V(xc)+E(xc)   XCENC  =         0.00000000
  PAW double counting   =       989.19862545     -990.61728108
  entropy T*S    EENTRO =        -0.00028664
  eigenvalues    EBANDS =       -43.50387061
  atomic energy  EATOM  =      1137.26749901
  ---------------------------------------------------
  free energy    TOTEN  =       179.21512945 eV

  energy without entropy =      179.21541609  energy(sigma->0) =      179.21527277
  exchange ACFDT corr.  =         0.00000000  see jH, gK, PRB 81, 115126


--------------------------------------------------------------------------------------------------------




----------------------------------------- Iteration    1(   3)  ---------------------------------------


    TRIAL :  cpu time   13.9677: real time   14.0112
    CORREC:  cpu time    0.0003: real time    0.0003
    --------------------------------------------
      LOOP:  cpu time   13.9729: real time   14.0187

 eigenvalue-minimisations  :    64
 total energy-change (2. order) :-0.1807957E+02  (-0.1720732E+02)
 number of electron      24.0000000 magnetization 
 augmentation part       24.0000000 magnetization 

 Free energy of the ion-electron system (eV)
  ---------------------------------------------------
  alpha Z        PSCENC =         0.03818037
  Ewald energy   TEWEN  =      1513.48651378
  -Hartree energ DENC   =     -2426.65425082
  -exchange      EXHF   =         0.00000000
  -V(xc)+E(xc)   XCENC  =         0.00000000
  PAW double counting   =       989.19862545     -990.61728108
  entropy T*S    EENTRO =        -0.00185166
  eigenvalues    EBANDS =       -61.58187607
  atomic energy  EATOM  =      1137.26749901
  ---------------------------------------------------
  free energy    TOTEN  =       161.13555898 eV

  energy without entropy =      161.13741063  energy(sigma->0) =      161.13648480
  exchange ACFDT corr.  =         0.00000000  see jH, gK, PRB 81, 115126


--------------------------------------------------------------------------------------------------------




----------------------------------------- Iteration    1(   4)  ---------------------------------------


    TRIAL :  cpu time   14.6423: real time   14.6872
    CORREC:  cpu time    0.0001: real time    0.0001
    --------------------------------------------
      LOOP:  cpu time   14.6457: real time   14.6933

 eigenvalue-minimisations  :    68
 total energy-change (2. order) :-0.1113719E+02  (-0.1082391E+02)
 number of electron      24.0000000 magnetization 
 augmentation part       24.0000000 magnetization 

 Free energy of the ion-electron system (eV)
  ---------------------------------------------------
  alpha Z        PSCENC =         0.03818037
  Ewald energy   TEWEN  =      1513.48651378
  -Hartree energ DENC   =     -2426.65425082
  -exchange      EXHF   =         0.00000000
  -V(xc)+E(xc)   XCENC  =         0.00000000
  PAW double counting   =       989.19862545     -990.61728108
  entropy T*S    EENTRO =        -0.00000000
  eigenvalues    EBANDS =       -72.72091371
  atomic energy  EATOM  =      1137.26749901
  ---------------------------------------------------
  free energy    TOTEN  =       149.99837300 eV

  energy without entropy =      149.99837300  energy(sigma->0) =      149.99837300
  exchange ACFDT corr.  =         0.00000000  see jH, gK, PRB 81, 115126


--------------------------------------------------------------------------------------------------------




----------------------------------------- Iteration    1(   5)  ---------------------------------------


    TRIAL :  cpu time   15.2987: real time   15.3461
    CORREC:  cpu time    0.0004: real time    0.0004
    CHARGE:  cpu time    2.9609: real time    2.9726
    --------------------------------------------
      LOOP:  cpu time   18.2632: real time   18.3249

 eigenvalue-minimisations  :    72
 total energy-change (2. order) :-0.2043790E+01  (-0.2041762E+01)
 number of electron      24.0000000 magnetization 
 augmentation part       -0.3257805 magnetization 

 Free energy of the ion-electron system (eV)
  ---------------------------------------------------
  alpha Z        PSCENC =         0.03818037
  Ewald energy   TEWEN  =      1513.48651378
  -Hartree energ DENC   =     -2426.65425082
  -exchange      EXHF   =         0.00000000
  -V(xc)+E(xc)   XCENC  =         0.00000000
  PAW double counting   =       989.19862545     -990.61728108
  entropy T*S    EENTRO =        -0.00000036
  eigenvalues    EBANDS =       -74.76470297
  atomic energy  EATOM  =      1137.26749901
  ---------------------------------------------------
  free energy    TOTEN  =       147.95458338 eV

  energy without entropy =      147.95458373  energy(sigma->0) =      147.95458356
  exchange ACFDT corr.  =         0.00000000  see jH, gK, PRB 81, 115126


--------------------------------------------------------------------------------------------------------




----------------------------------------- Iteration    1(   6)  ---------------------------------------


    POTLOK:  cpu time   20.2747: real time   20.3241
    SETDIJ:  cpu time    0.2071: real time    0.2076
    TRIAL :  cpu time   42.9782: real time   43.1618
    CORREC:  cpu time   55.0001: real time   55.2133
    CHARGE:  cpu time    2.6588: real time    2.6694
    --------------------------------------------
      LOOP:  cpu time  121.1213: real time  121.5813

 eigenvalue-minimisations  :     0
 total energy-change (2. order) : 0.6362972E+03  (-0.1528780E+03)
 number of electron      24.0000000 magnetization 
 augmentation part       -0.3990082 magnetization 

 Free energy of the ion-electron system (eV)
  ---------------------------------------------------
  alpha Z        PSCENC =         0.03818037
  Ewald energy   TEWEN  =      1513.48651378
  -Hartree energ DENC   =      -569.89616307
  -exchange      EXHF   =       113.69890735
  -V(xc)+E(xc)   XCENC  =         0.00000000
  PAW double counting   =     25283.90157056   -25283.98445039
  entropy T*S    EENTRO =        -0.00000000
  eigenvalues    EBANDS =     -1410.26023078
  atomic energy  EATOM  =      1137.26749901
  ---------------------------------------------------
  free energy    TOTEN  =       784.25182647 eV

  energy without entropy =      784.25182647  energy(sigma->0) =      784.25182647
  exchange ACFDT corr.  =        -0.00000657  see jH, gK, PRB 81, 115126


--------------------------------------------------------------------------------------------------------




----------------------------------------- Iteration    1(   7)  ---------------------------------------


    POTLOK:  cpu time   20.5231: real time   20.5731
    SETDIJ:  cpu time    0.2067: real time    0.2072
    TRIAL :  cpu time   35.9327: real time   36.0985
    CORREC:  cpu time   54.6518: real time   54.8662
    CHARGE:  cpu time    2.6283: real time    2.6388
    --------------------------------------------
      LOOP:  cpu time  113.9469: real time  114.3908

 eigenvalue-minimisations  :     0
 total energy-change (2. order) :-0.1027771E+03  (-0.1130833E+03)
 number of electron      24.0000000 magnetization 
 augmentation part       -0.4890896 magnetization 

 Free energy of the ion-electron system (eV)
  ---------------------------------------------------
  alpha Z        PSCENC =         0.03818037
  Ewald energy   TEWEN  =      1513.48651378
  -Hartree energ DENC   =      -660.62835847
  -exchange      EXHF   =       123.93408893
  -V(xc)+E(xc)   XCENC  =         0.00000000
  PAW double counting   =     13983.83057967   -13983.91877945
  entropy T*S    EENTRO =        -0.00000000
  eigenvalues    EBANDS =     -1432.53501104
  atomic energy  EATOM  =      1137.26749901
  ---------------------------------------------------
  free energy    TOTEN  =       681.47471281 eV

  energy without entropy =      681.47471281  energy(sigma->0) =      681.47471281
  exchange ACFDT corr.  =         0.00000000  see jH, gK, PRB 81, 115126


--------------------------------------------------------------------------------------------------------




----------------------------------------- Iteration    1(   8)  ---------------------------------------


    POTLOK:  cpu time   20.6244: real time   20.6746
    SETDIJ:  cpu time    0.2044: real time    0.2049
    TRIAL :  cpu time   36.2520: real time   36.4208
    CORREC:  cpu time   62.2651: real time   62.4996
    CHARGE:  cpu time    2.8928: real time    2.9041
    --------------------------------------------
      LOOP:  cpu time  122.2895: real time  122.7577

 eigenvalue-minimisations  :     0
 total energy-change (2. order) :-0.9873500E+02  (-0.1725397E+03)
 number of electron      24.0000000 magnetization 
 augmentation part       -0.5620089 magnetization 

 Free energy of the ion-electron system (eV)
  ---------------------------------------------------
  alpha Z        PSCENC =         0.03818037
  Ewald energy   TEWEN  =      1513.48651378
  -Hartree energ DENC   =      -779.11452412
  -exchange      EXHF   =       130.88970175
  -V(xc)+E(xc)   XCENC  =         0.00000000
  PAW double counting   =     11586.94126728   -11586.99063697
  entropy T*S    EENTRO =        -0.00000000
  eigenvalues    EBANDS =     -1419.77828496
  atomic energy  EATOM  =      1137.26749901
  ---------------------------------------------------
  free energy    TOTEN  =       582.73971614 eV

  energy without entropy =      582.73971614  energy(sigma->0) =      582.73971614
  exchange ACFDT corr.  =         0.00000000  see jH, gK, PRB 81, 115126


--------------------------------------------------------------------------------------------------------




----------------------------------------- Iteration    1(   9)  ---------------------------------------


    POTLOK:  cpu time   20.6112: real time   20.6614
    SETDIJ:  cpu time    0.2040: real time    0.2045
    TRIAL :  cpu time   43.4989: real time   43.6846
    CORREC:  cpu time   55.2940: real time   55.5113
    CHARGE:  cpu time    2.6093: real time    2.6200
    --------------------------------------------
      LOOP:  cpu time  122.2655: real time  122.7327

 eigenvalue-minimisations  :     0
 total energy-change (2. order) :-0.8761140E+02  (-0.1870523E+03)
 number of electron      24.0000000 magnetization 
 augmentation part       -0.5087269 magnetization 

 Free energy of the ion-electron system (eV)
  ---------------------------------------------------
  alpha Z        PSCENC =         0.03818037
  Ewald energy   TEWEN  =      1513.48651378
  -Hartree energ DENC   =      -942.42497435
  -exchange      EXHF   =       137.50002657
  -V(xc)+E(xc)   XCENC  =         0.00000000
  PAW double counting   =     34370.30863202   -34370.26650367
  entropy T*S    EENTRO =        -0.00000000
  eigenvalues    EBANDS =     -1350.78105526
  atomic energy  EATOM  =      1137.26749901
  ---------------------------------------------------
  free energy    TOTEN  =       495.12831846 eV

  energy without entropy =      495.12831846  energy(sigma->0) =      495.12831846
  exchange ACFDT corr.  =        -0.00000001  see jH, gK, PRB 81, 115126


--------------------------------------------------------------------------------------------------------




----------------------------------------- Iteration    1(  10)  ---------------------------------------


    POTLOK:  cpu time   20.6104: real time   20.6606
    SETDIJ:  cpu time    0.2122: real time    0.2127
    TRIAL :  cpu time   36.3160: real time   36.4828
    CORREC:  cpu time   54.7733: real time   54.9924
    CHARGE:  cpu time    2.6080: real time    2.6187
    --------------------------------------------
      LOOP:  cpu time  114.5687: real time  115.0188

 eigenvalue-minimisations  :     0
 total energy-change (2. order) :-0.1679343E+03  (-0.1264324E+03)
 number of electron      24.0000000 magnetization 
 augmentation part       -0.4710440 magnetization 

 Free energy of the ion-electron system (eV)
  ---------------------------------------------------
  alpha Z        PSCENC =         0.03818037
  Ewald energy   TEWEN  =      1513.48651378
  -Hartree energ DENC   =     -1203.87544815
  -exchange      EXHF   =       152.52386261
  -V(xc)+E(xc)   XCENC  =         0.00000000
  PAW double counting   =     48286.34907054   -48286.39847054
  entropy T*S    EENTRO =        -0.00000000
  eigenvalues    EBANDS =     -1272.19714232
  atomic energy  EATOM  =      1137.26749901
  ---------------------------------------------------
  free energy    TOTEN  =       327.19406530 eV

  energy without entropy =      327.19406530  energy(sigma->0) =      327.19406530
  exchange ACFDT corr.  =         0.00000000  see jH, gK, PRB 81, 115126


--------------------------------------------------------------------------------------------------------




----------------------------------------- Iteration    1(  11)  ---------------------------------------


    POTLOK:  cpu time   20.6184: real time   20.6686
    SETDIJ:  cpu time    0.2046: real time    0.2051
    TRIAL :  cpu time   36.4024: real time   36.5714
    CORREC:  cpu time   54.9360: real time   55.1540
    CHARGE:  cpu time    2.6207: real time    2.6315
    --------------------------------------------
      LOOP:  cpu time  114.8349: real time  115.2860

 eigenvalue-minimisations  :     0
 total energy-change (2. order) :-0.1014170E+03  (-0.9306436E+02)
 number of electron      24.0000000 magnetization 
 augmentation part       -0.4875243 magnetization 

 Free energy of the ion-electron system (eV)
  ---------------------------------------------------
  alpha Z        PSCENC =         0.03818037
  Ewald energy   TEWEN  =      1513.48651378
  -Hartree energ DENC   =     -1471.04733209
  -exchange      EXHF   =       169.66564606
  -V(xc)+E(xc)   XCENC  =         0.00000000
  PAW double counting   =    122666.80949663  -122666.90326444
  entropy T*S    EENTRO =        -0.00000000
  eigenvalues    EBANDS =     -1123.53967243
  atomic energy  EATOM  =      1137.26749901
  ---------------------------------------------------
  free energy    TOTEN  =       225.77706689 eV

  energy without entropy =      225.77706689  energy(sigma->0) =      225.77706689
  exchange ACFDT corr.  =         0.00000000  see jH, gK, PRB 81, 115126


--------------------------------------------------------------------------------------------------------




----------------------------------------- Iteration    1(  12)  ---------------------------------------


    POTLOK:  cpu time   20.6085: real time   20.6586
    SETDIJ:  cpu time    0.2144: real time    0.2149
    TRIAL :  cpu time   36.3447: real time   36.5143
    CORREC:  cpu time   54.8352: real time   55.0528
    CHARGE:  cpu time    2.6253: real time    2.6359
    --------------------------------------------
      LOOP:  cpu time  114.6795: real time  115.1307

 eigenvalue-minimisations  :     0
 total energy-change (2. order) :-0.8197946E+02  (-0.5614981E+02)
 number of electron      24.0000000 magnetization 
 augmentation part       -0.4972170 magnetization 

 Free energy of the ion-electron system (eV)
  ---------------------------------------------------
  alpha Z        PSCENC =         0.03818037
  Ewald energy   TEWEN  =      1513.48651378
  -Hartree energ DENC   =     -1734.62935776
  -exchange      EXHF   =       191.30928562
  -V(xc)+E(xc)   XCENC  =         0.00000000
  PAW double counting   =    253577.62285240  -253577.74639034
  entropy T*S    EENTRO =        -0.00000000
  eigenvalues    EBANDS =      -963.55097507
  atomic energy  EATOM  =      1137.26749901
  ---------------------------------------------------
  free energy    TOTEN  =       143.79760800 eV

  energy without entropy =      143.79760800  energy(sigma->0) =      143.79760800
  exchange ACFDT corr.  =         0.00000000  see jH, gK, PRB 81, 115126


--------------------------------------------------------------------------------------------------------




----------------------------------------- Iteration    1(  13)  ---------------------------------------


    POTLOK:  cpu time   20.6595: real time   20.7098
    SETDIJ:  cpu time    0.2055: real time    0.2060
    TRIAL :  cpu time   36.2478: real time   36.4178
    CORREC:  cpu time   55.0970: real time   55.3148
    CHARGE:  cpu time    2.6244: real time    2.6348
    --------------------------------------------
      LOOP:  cpu time  114.8830: real time  115.3349

 eigenvalue-minimisations  :     0
 total energy-change (2. order) :-0.5747176E+02  (-0.4370400E+02)
 number of electron      24.0000000 magnetization 
 augmentation part       -0.4647456 magnetization 

 Free energy of the ion-electron system (eV)
  ---------------------------------------------------
  alpha Z        PSCENC =         0.03818037
  Ewald energy   TEWEN  =      1513.48651378
  -Hartree energ DENC   =     -1962.75664003
  -exchange      EXHF   =       212.90646635
  -V(xc)+E(xc)   XCENC  =         0.00000000
  PAW double counting   =    421262.85390982  -421263.02707628
  entropy T*S    EENTRO =        -0.00000000
  eigenvalues    EBANDS =      -814.44300414
  atomic energy  EATOM  =      1137.26749901
  ---------------------------------------------------
  free energy    TOTEN  =        86.32584887 eV

  energy without entropy =       86.32584887  energy(sigma->0) =       86.32584887
  exchange ACFDT corr.  =        -0.00000000  see jH, gK, PRB 81, 115126


--------------------------------------------------------------------------------------------------------




----------------------------------------- Iteration    1(  14)  ---------------------------------------


    POTLOK:  cpu time   20.6455: real time   20.6958
    SETDIJ:  cpu time    0.2043: real time    0.2048
    TRIAL :  cpu time   36.3103: real time   36.4806
    CORREC:  cpu time   54.8481: real time   55.0650
    CHARGE:  cpu time    2.6247: real time    2.6353
    --------------------------------------------
      LOOP:  cpu time  114.6804: real time  115.1319

 eigenvalue-minimisations  :     0
 total energy-change (2. order) :-0.4637992E+02  (-0.3419916E+02)
 number of electron      24.0000000 magnetization 
 augmentation part       -0.3929144 magnetization 

 Free energy of the ion-electron system (eV)
  ---------------------------------------------------
  alpha Z        PSCENC =         0.03818037
  Ewald energy   TEWEN  =      1513.48651378
  -Hartree energ DENC   =     -2134.07265715
  -exchange      EXHF   =       233.62139934
  -V(xc)+E(xc)   XCENC  =         0.00000000
  PAW double counting   =    501058.02663938  -501058.30796138
  entropy T*S    EENTRO =        -0.00000000
  eigenvalues    EBANDS =      -710.11368591
  atomic energy  EATOM  =      1137.26749901
  ---------------------------------------------------
  free energy    TOTEN  =        39.94592744 eV

  energy without entropy =       39.94592744  energy(sigma->0) =       39.94592744
  exchange ACFDT corr.  =         0.00000000  see jH, gK, PRB 81, 115126


--------------------------------------------------------------------------------------------------------




----------------------------------------- Iteration    1(  15)  ---------------------------------------


    POTLOK:  cpu time   20.6819: real time   20.7323
    SETDIJ:  cpu time    0.2059: real time    0.2064
    TRIAL :  cpu time   36.5138: real time   36.6841
    CORREC:  cpu time   54.9745: real time   55.1898
    CHARGE:  cpu time    2.6174: real time    2.6279
    --------------------------------------------
      LOOP:  cpu time  115.0399: real time  115.4896

 eigenvalue-minimisations  :     0
 total energy-change (2. order) :-0.3773968E+02  (-0.2494623E+02)
 number of electron      24.0000000 magnetization 
 augmentation part       -0.2921737 magnetization 

 Free energy of the ion-electron system (eV)
  ---------------------------------------------------
  alpha Z        PSCENC =         0.03818037
  Ewald energy   TEWEN  =      1513.48651378
  -Hartree energ DENC   =     -2229.63775780
  -exchange      EXHF   =       249.24630893
  -V(xc)+E(xc)   XCENC  =         0.00000000
  PAW double counting   =    375057.76652855  -375058.21698568
  entropy T*S    EENTRO =        -0.00000000
  eigenvalues    EBANDS =      -667.74404363
  atomic energy  EATOM  =      1137.26749901
  ---------------------------------------------------
  free energy    TOTEN  =         2.20624351 eV

  energy without entropy =        2.20624351  energy(sigma->0) =        2.20624351
  exchange ACFDT corr.  =         0.00000000  see jH, gK, PRB 81, 115126


--------------------------------------------------------------------------------------------------------




----------------------------------------- Iteration    1(  16)  ---------------------------------------


    POTLOK:  cpu time   20.6712: real time   20.7216
    SETDIJ:  cpu time    0.2111: real time    0.2116
    TRIAL :  cpu time   36.2583: real time   36.4282
    CORREC:  cpu time   54.9241: real time   55.1392
    CHARGE:  cpu time    2.6191: real time    2.6295
    --------------------------------------------
      LOOP:  cpu time  114.7320: real time  115.1813

 eigenvalue-minimisations  :     0
 total energy-change (2. order) :-0.2793329E+02  (-0.1825013E+02)
 number of electron      24.0000000 magnetization 
 augmentation part       -0.1696802 magnetization 

 Free energy of the ion-electron system (eV)
  ---------------------------------------------------
  alpha Z        PSCENC =         0.03818037
  Ewald energy   TEWEN  =      1513.48651378
  -Hartree energ DENC   =     -2305.55879225
  -exchange      EXHF   =       262.51563598
  -V(xc)+E(xc)   XCENC  =         0.00000000
  PAW double counting   =    184303.32493339  -184304.02544440
  entropy T*S    EENTRO =        -0.00000000
  eigenvalues    EBANDS =      -632.77556894
  atomic energy  EATOM  =      1137.26749901
  ---------------------------------------------------
  free energy    TOTEN  =       -25.72704306 eV

  energy without entropy =      -25.72704306  energy(sigma->0) =      -25.72704306
  exchange ACFDT corr.  =         0.00000000  see jH, gK, PRB 81, 115126


--------------------------------------------------------------------------------------------------------




----------------------------------------- Iteration    1(  17)  ---------------------------------------


    POTLOK:  cpu time   20.6763: real time   20.7267
    SETDIJ:  cpu time    0.2043: real time    0.2048
    TRIAL :  cpu time   36.5502: real time   36.7190
    CORREC:  cpu time   55.1237: real time   55.3413
    CHARGE:  cpu time    2.6125: real time    2.6232
    --------------------------------------------
      LOOP:  cpu time  115.2160: real time  115.6669

 eigenvalue-minimisations  :     0
 total energy-change (2. order) :-0.2052480E+02  (-0.1777802E+02)
 number of electron      24.0000000 magnetization 
 augmentation part       -0.0262434 magnetization 

 Free energy of the ion-electron system (eV)
  ---------------------------------------------------
  alpha Z        PSCENC =         0.03818037
  Ewald energy   TEWEN  =      1513.48651378
  -Hartree energ DENC   =     -2379.38226772
  -exchange      EXHF   =       275.08622146
  -V(xc)+E(xc)   XCENC  =         0.00000000
  PAW double counting   =     79349.21877422   -79350.23484659
  entropy T*S    EENTRO =        -0.00000000
  eigenvalues    EBANDS =      -591.73191308
  atomic energy  EATOM  =      1137.26749901
  ---------------------------------------------------
  free energy    TOTEN  =       -46.25183856 eV

  energy without entropy =      -46.25183856  energy(sigma->0) =      -46.25183856
  exchange ACFDT corr.  =        -0.00000000  see jH, gK, PRB 81, 115126


--------------------------------------------------------------------------------------------------------




----------------------------------------- Iteration    1(  18)  ---------------------------------------


    POTLOK:  cpu time   20.6800: real time   20.7305
    SETDIJ:  cpu time    0.2058: real time    0.2063
    TRIAL :  cpu time   36.3892: real time   36.5586
    CORREC:  cpu time   55.0192: real time   55.2366
    CHARGE:  cpu time    2.6211: real time    2.6318
    --------------------------------------------
      LOOP:  cpu time  114.9643: real time  115.4809

 eigenvalue-minimisations  :     0
 total energy-change (2. order) :-0.1871927E+02  (-0.8974081E+01)
 number of electron      24.0000000 magnetization 
 augmentation part        0.0350390 magnetization 

 Free energy of the ion-electron system (eV)
  ---------------------------------------------------
  alpha Z        PSCENC =         0.03818037
  Ewald energy   TEWEN  =      1513.48651378
  -Hartree energ DENC   =     -2461.66724584
  -exchange      EXHF   =       288.65366702
  -V(xc)+E(xc)   XCENC  =         0.00000000
  PAW double counting   =     44177.96187007   -44179.32862718
  entropy T*S    EENTRO =        -0.00000000
  eigenvalues    EBANDS =      -541.38296085
  atomic energy  EATOM  =      1137.26749901
  ---------------------------------------------------
  free energy    TOTEN  =       -64.97110363 eV

  energy without entropy =      -64.97110363  energy(sigma->0) =      -64.97110363
  exchange ACFDT corr.  =         0.00000000  see jH, gK, PRB 81, 115126


--------------------------------------------------------------------------------------------------------




----------------------------------------- Iteration    1(  19)  ---------------------------------------


    POTLOK:  cpu time   20.6798: real time   20.7302
    SETDIJ:  cpu time    0.2041: real time    0.2046
    TRIAL :  cpu time   36.4609: real time   36.6299
    CORREC:  cpu time   55.0605: real time   55.2767
    CHARGE:  cpu time    2.6168: real time    2.6272
    --------------------------------------------
      LOOP:  cpu time  115.0713: real time  115.5204

 eigenvalue-minimisations  :     0
 total energy-change (2. order) :-0.9568619E+01  (-0.5643952E+01)
 number of electron      24.0000000 magnetization 
 augmentation part        0.0585896 magnetization 

 Free energy of the ion-electron system (eV)
  ---------------------------------------------------
  alpha Z        PSCENC =         0.03818037
  Ewald energy   TEWEN  =      1513.48651378
  -Hartree energ DENC   =     -2480.83428213
  -exchange      EXHF   =       292.17326503
  -V(xc)+E(xc)   XCENC  =         0.00000000
  PAW double counting   =     43519.78788945   -43521.26992058
  entropy T*S    EENTRO =        -0.00000000
  eigenvalues    EBANDS =      -535.18886783
  atomic energy  EATOM  =      1137.26749901
  ---------------------------------------------------
  free energy    TOTEN  =       -74.53972291 eV

  energy without entropy =      -74.53972291  energy(sigma->0) =      -74.53972291
  exchange ACFDT corr.  =        -0.00000000  see jH, gK, PRB 81, 115126


--------------------------------------------------------------------------------------------------------




----------------------------------------- Iteration    1(  20)  ---------------------------------------


    POTLOK:  cpu time   20.6813: real time   20.7317
    SETDIJ:  cpu time    0.2057: real time    0.2062
    TRIAL :  cpu time   36.3714: real time   36.5398
    CORREC:  cpu time   54.9686: real time   55.1854
    CHARGE:  cpu time    2.6300: real time    2.6406
    --------------------------------------------
      LOOP:  cpu time  114.9096: real time  115.3596

 eigenvalue-minimisations  :     0
 total energy-change (2. order) :-0.5956583E+01  (-0.3451562E+01)
 number of electron      24.0000000 magnetization 
 augmentation part        0.0722321 magnetization 

 Free energy of the ion-electron system (eV)
  ---------------------------------------------------
  alpha Z        PSCENC =         0.03818037
  Ewald energy   TEWEN  =      1513.48651378
  -Hartree energ DENC   =     -2489.19968668
  -exchange      EXHF   =       293.23742204
  -V(xc)+E(xc)   XCENC  =         0.00000000
  PAW double counting   =     43778.03079519   -43779.55987409
  entropy T*S    EENTRO =        -0.00000000
  eigenvalues    EBANDS =      -533.79715569
  atomic energy  EATOM  =      1137.26749901
  ---------------------------------------------------
  free energy    TOTEN  =       -80.49630608 eV

  energy without entropy =      -80.49630608  energy(sigma->0) =      -80.49630608
  exchange ACFDT corr.  =        -0.00000000  see jH, gK, PRB 81, 115126


--------------------------------------------------------------------------------------------------------




----------------------------------------- Iteration    1(  21)  ---------------------------------------


    POTLOK:  cpu time   20.6780: real time   20.7284
    SETDIJ:  cpu time    0.2048: real time    0.2053
    TRIAL :  cpu time   36.3730: real time   36.5408
    CORREC:  cpu time   55.2764: real time   55.4929
    CHARGE:  cpu time    2.6162: real time    2.6266
    --------------------------------------------
      LOOP:  cpu time  115.1981: real time  115.6464

 eigenvalue-minimisations  :     0
 total energy-change (2. order) :-0.3622580E+01  (-0.1858933E+01)
 number of electron      24.0000000 magnetization 
 augmentation part        0.0788799 magnetization 

 Free energy of the ion-electron system (eV)
  ---------------------------------------------------
  alpha Z        PSCENC =         0.03818037
  Ewald energy   TEWEN  =      1513.48651378
  -Hartree energ DENC   =     -2508.11145364
  -exchange      EXHF   =       295.47450573
  -V(xc)+E(xc)   XCENC  =         0.00000000
  PAW double counting   =     41559.66103102   -41561.25512192
  entropy T*S    EENTRO =        -0.00000000
  eigenvalues    EBANDS =      -520.68004028
  atomic energy  EATOM  =      1137.26749901
  ---------------------------------------------------
  free energy    TOTEN  =       -84.11888594 eV

  energy without entropy =      -84.11888594  energy(sigma->0) =      -84.11888594
  exchange ACFDT corr.  =         0.00000000  see jH, gK, PRB 81, 115126


--------------------------------------------------------------------------------------------------------




----------------------------------------- Iteration    1(  22)  ---------------------------------------


    POTLOK:  cpu time   20.6750: real time   20.7254
    SETDIJ:  cpu time    0.2050: real time    0.2055
    TRIAL :  cpu time   36.4347: real time   36.6035
    CORREC:  cpu time   54.8893: real time   55.1061
    CHARGE:  cpu time    2.6205: real time    2.6312
    --------------------------------------------
      LOOP:  cpu time  114.8745: real time  115.3241

 eigenvalue-minimisations  :     0
 total energy-change (2. order) :-0.1926038E+01  (-0.9445207E+00)
 number of electron      24.0000000 magnetization 
 augmentation part        0.0790739 magnetization 

 Free energy of the ion-electron system (eV)
  ---------------------------------------------------
  alpha Z        PSCENC =         0.03818037
  Ewald energy   TEWEN  =      1513.48651378
  -Hartree energ DENC   =     -2521.36692693
  -exchange      EXHF   =       297.20376156
  -V(xc)+E(xc)   XCENC  =         0.00000000
  PAW double counting   =     37469.56137147   -37471.20411694
  entropy T*S    EENTRO =        -0.00000000
  eigenvalues    EBANDS =      -511.03120588
  atomic energy  EATOM  =      1137.26749901
  ---------------------------------------------------
  free energy    TOTEN  =       -86.04492356 eV

  energy without entropy =      -86.04492356  energy(sigma->0) =      -86.04492356
  exchange ACFDT corr.  =         0.00000000  see jH, gK, PRB 81, 115126


--------------------------------------------------------------------------------------------------------




----------------------------------------- Iteration    1(  23)  ---------------------------------------


    POTLOK:  cpu time   20.6767: real time   20.7270
    SETDIJ:  cpu time    0.2134: real time    0.2139
    TRIAL :  cpu time   36.4753: real time   36.6457
    CORREC:  cpu time   54.9374: real time   55.1521
    CHARGE:  cpu time    2.6214: real time    2.6319
    --------------------------------------------
      LOOP:  cpu time  114.9736: real time  115.4225

 eigenvalue-minimisations  :     0
 total energy-change (2. order) :-0.9630979E+00  (-0.4434596E+00)
 number of electron      24.0000000 magnetization 
 augmentation part        0.0769321 magnetization 

 Free energy of the ion-electron system (eV)
  ---------------------------------------------------
  alpha Z        PSCENC =         0.03818037
  Ewald energy   TEWEN  =      1513.48651378
  -Hartree energ DENC   =     -2522.17739246
  -exchange      EXHF   =       297.39863537
  -V(xc)+E(xc)   XCENC  =         0.00000000
  PAW double counting   =     33643.74572454   -33645.39859276
  entropy T*S    EENTRO =        -0.00000000
  eigenvalues    EBANDS =      -511.36858934
  atomic energy  EATOM  =      1137.26749901
  ---------------------------------------------------
  free energy    TOTEN  =       -87.00802150 eV

  energy without entropy =      -87.00802150  energy(sigma->0) =      -87.00802150
  exchange ACFDT corr.  =         0.00000000  see jH, gK, PRB 81, 115126


--------------------------------------------------------------------------------------------------------




----------------------------------------- Iteration    1(  24)  ---------------------------------------


    POTLOK:  cpu time   20.6968: real time   20.7472
    SETDIJ:  cpu time    0.2051: real time    0.2056
    TRIAL :  cpu time   36.4585: real time   36.6295
    CORREC:  cpu time   54.9653: real time   55.1815
    CHARGE:  cpu time    2.6390: real time    2.6497
    --------------------------------------------
      LOOP:  cpu time  115.0138: real time  115.4652

 eigenvalue-minimisations  :     0
 total energy-change (2. order) :-0.4476396E+00  (-0.2112921E+00)
 number of electron      24.0000000 magnetization 
 augmentation part        0.0747338 magnetization 

 Free energy of the ion-electron system (eV)
  ---------------------------------------------------
  alpha Z        PSCENC =         0.03818037
  Ewald energy   TEWEN  =      1513.48651378
  -Hartree energ DENC   =     -2521.14136548
  -exchange      EXHF   =       297.30021086
  -V(xc)+E(xc)   XCENC  =         0.00000000
  PAW double counting   =     31395.80473293   -31397.45283854
  entropy T*S    EENTRO =        -0.00000000
  eigenvalues    EBANDS =      -512.75859407
  atomic energy  EATOM  =      1137.26749901
  ---------------------------------------------------
  free energy    TOTEN  =       -87.45566114 eV

  energy without entropy =      -87.45566114  energy(sigma->0) =      -87.45566114
  exchange ACFDT corr.  =         0.00000000  see jH, gK, PRB 81, 115126


--------------------------------------------------------------------------------------------------------




----------------------------------------- Iteration    1(  25)  ---------------------------------------


    POTLOK:  cpu time   20.7539: real time   20.8044
    SETDIJ:  cpu time    0.2038: real time    0.2043
    TRIAL :  cpu time   36.4840: real time   36.6521
    CORREC:  cpu time   55.0520: real time   55.2680
    CHARGE:  cpu time    2.6193: real time    2.6298
    --------------------------------------------
      LOOP:  cpu time  115.1478: real time  115.5963

 eigenvalue-minimisations  :     0
 total energy-change (2. order) :-0.2120405E+00  (-0.1013886E+00)
 number of electron      24.0000000 magnetization 
 augmentation part        0.0716319 magnetization 

 Free energy of the ion-electron system (eV)
  ---------------------------------------------------
  alpha Z        PSCENC =         0.03818037
  Ewald energy   TEWEN  =      1513.48651378
  -Hartree energ DENC   =     -2523.14087683
  -exchange      EXHF   =       297.57144510
  -V(xc)+E(xc)   XCENC  =         0.00000000
  PAW double counting   =     30505.88330670   -30507.52650206
  entropy T*S    EENTRO =        -0.00000000
  eigenvalues    EBANDS =      -511.24726774
  atomic energy  EATOM  =      1137.26749901
  ---------------------------------------------------
  free energy    TOTEN  =       -87.66770168 eV

  energy without entropy =      -87.66770168  energy(sigma->0) =      -87.66770168
  exchange ACFDT corr.  =         0.00000000  see jH, gK, PRB 81, 115126


--------------------------------------------------------------------------------------------------------




----------------------------------------- Iteration    1(  26)  ---------------------------------------


    POTLOK:  cpu time   20.7583: real time   20.8088
    SETDIJ:  cpu time    0.2049: real time    0.2054
    TRIAL :  cpu time   36.4972: real time   36.6679
    CORREC:  cpu time   55.1451: real time   55.3605
    CHARGE:  cpu time    2.6310: real time    2.6418
    --------------------------------------------
      LOOP:  cpu time  115.2733: real time  115.7237

 eigenvalue-minimisations  :     0
 total energy-change (2. order) :-0.1014493E+00  (-0.4802367E-01)
 number of electron      24.0000000 magnetization 
 augmentation part        0.0689403 magnetization 

 Free energy of the ion-electron system (eV)
  ---------------------------------------------------
  alpha Z        PSCENC =         0.03818037
  Ewald energy   TEWEN  =      1513.48651378
  -Hartree energ DENC   =     -2523.67306294
  -exchange      EXHF   =       297.66103815
  -V(xc)+E(xc)   XCENC  =         0.00000000
  PAW double counting   =     30509.59740099   -30511.22889442
  entropy T*S    EENTRO =        -0.00000000
  eigenvalues    EBANDS =      -510.91782592
  atomic energy  EATOM  =      1137.26749901
  ---------------------------------------------------
  free energy    TOTEN  =       -87.76915098 eV

  energy without entropy =      -87.76915098  energy(sigma->0) =      -87.76915098
  exchange ACFDT corr.  =         0.00000000  see jH, gK, PRB 81, 115126


--------------------------------------------------------------------------------------------------------




----------------------------------------- Iteration    1(  27)  ---------------------------------------


    POTLOK:  cpu time   20.7376: real time   20.7881
    SETDIJ:  cpu time    0.2048: real time    0.2053
    TRIAL :  cpu time   36.5705: real time   36.7390
    CORREC:  cpu time   55.1916: real time   55.4074
    CHARGE:  cpu time    2.6200: real time    2.6307
    --------------------------------------------
      LOOP:  cpu time  115.3588: real time  115.8077

 eigenvalue-minimisations  :     0
 total energy-change (2. order) :-0.4811769E-01  (-0.2513061E-01)
 number of electron      24.0000000 magnetization 
 augmentation part        0.0677445 magnetization 

 Free energy of the ion-electron system (eV)
  ---------------------------------------------------
  alpha Z        PSCENC =         0.03818037
  Ewald energy   TEWEN  =      1513.48651378
  -Hartree energ DENC   =     -2522.96390137
  -exchange      EXHF   =       297.60657572
  -V(xc)+E(xc)   XCENC  =         0.00000000
  PAW double counting   =     30806.55159304   -30808.17136946
  entropy T*S    EENTRO =        -0.00000000
  eigenvalues    EBANDS =      -511.63235975
  atomic energy  EATOM  =      1137.26749901
  ---------------------------------------------------
  free energy    TOTEN  =       -87.81726867 eV

  energy without entropy =      -87.81726867  energy(sigma->0) =      -87.81726867
  exchange ACFDT corr.  =         0.00000000  see jH, gK, PRB 81, 115126


--------------------------------------------------------------------------------------------------------




----------------------------------------- Iteration    1(  28)  ---------------------------------------


    POTLOK:  cpu time   20.7396: real time   20.7902
    SETDIJ:  cpu time    0.2050: real time    0.2055
    TRIAL :  cpu time   36.4734: real time   36.6434
    CORREC:  cpu time   55.0938: real time   55.3105
    CHARGE:  cpu time    2.6131: real time    2.6238
    --------------------------------------------
      LOOP:  cpu time  115.1557: real time  115.6070

 eigenvalue-minimisations  :     0
 total energy-change (2. order) :-0.2517701E-01  (-0.1349670E-01)
 number of electron      24.0000000 magnetization 
 augmentation part        0.0676156 magnetization 

 Free energy of the ion-electron system (eV)
  ---------------------------------------------------
  alpha Z        PSCENC =         0.03818037
  Ewald energy   TEWEN  =      1513.48651378
  -Hartree energ DENC   =     -2523.16673475
  -exchange      EXHF   =       297.67483694
  -V(xc)+E(xc)   XCENC  =         0.00000000
  PAW double counting   =     31050.13675793   -31051.75199250
  entropy T*S    EENTRO =        -0.00000000
  eigenvalues    EBANDS =      -511.52750645
  atomic energy  EATOM  =      1137.26749901
  ---------------------------------------------------
  free energy    TOTEN  =       -87.84244567 eV

  energy without entropy =      -87.84244567  energy(sigma->0) =      -87.84244567
  exchange ACFDT corr.  =         0.00000000  see jH, gK, PRB 81, 115126


--------------------------------------------------------------------------------------------------------




----------------------------------------- Iteration    1(  29)  ---------------------------------------


    POTLOK:  cpu time   20.7292: real time   20.7798
    SETDIJ:  cpu time    0.2045: real time    0.2050
    TRIAL :  cpu time   36.6463: real time   36.8156
    CORREC:  cpu time   55.0792: real time   55.2963
    CHARGE:  cpu time    2.6251: real time    2.6358
    --------------------------------------------
      LOOP:  cpu time  115.3203: real time  115.7710

 eigenvalue-minimisations  :     0
 total energy-change (2. order) :-0.1350640E-01  (-0.7542776E-02)
 number of electron      24.0000000 magnetization 
 augmentation part        0.0677943 magnetization 

 Free energy of the ion-electron system (eV)
  ---------------------------------------------------
  alpha Z        PSCENC =         0.03818037
  Ewald energy   TEWEN  =      1513.48651378
  -Hartree energ DENC   =     -2523.58749241
  -exchange      EXHF   =       297.74713326
  -V(xc)+E(xc)   XCENC  =         0.00000000
  PAW double counting   =     31059.29186158   -31060.90705432
  entropy T*S    EENTRO =        -0.00000000
  eigenvalues    EBANDS =      -511.19259334
  atomic energy  EATOM  =      1137.26749901
  ---------------------------------------------------
  free energy    TOTEN  =       -87.85595207 eV

  energy without entropy =      -87.85595207  energy(sigma->0) =      -87.85595207
  exchange ACFDT corr.  =         0.00000000  see jH, gK, PRB 81, 115126


--------------------------------------------------------------------------------------------------------




----------------------------------------- Iteration    1(  30)  ---------------------------------------


    POTLOK:  cpu time   20.7254: real time   20.7759
    SETDIJ:  cpu time    0.2041: real time    0.2046
    TRIAL :  cpu time   36.7529: real time   36.9232
    CORREC:  cpu time   55.3282: real time   55.5434
    CHARGE:  cpu time    2.6269: real time    2.6373
    --------------------------------------------
      LOOP:  cpu time  115.6708: real time  116.1203

 eigenvalue-minimisations  :     0
 total energy-change (2. order) :-0.7553848E-02  (-0.4330384E-02)
 number of electron      24.0000000 magnetization 
 augmentation part        0.0681049 magnetization 

 Free energy of the ion-electron system (eV)
  ---------------------------------------------------
  alpha Z        PSCENC =         0.03818037
  Ewald energy   TEWEN  =      1513.48651378
  -Hartree energ DENC   =     -2523.45059282
  -exchange      EXHF   =       297.72384930
  -V(xc)+E(xc)   XCENC  =         0.00000000
  PAW double counting   =     30844.88134679   -30846.49700797
  entropy T*S    EENTRO =        -0.00000000
  eigenvalues    EBANDS =      -511.31329437
  atomic energy  EATOM  =      1137.26749901
  ---------------------------------------------------
  free energy    TOTEN  =       -87.86350592 eV

  energy without entropy =      -87.86350592  energy(sigma->0) =      -87.86350592
  exchange ACFDT corr.  =         0.00000000  see jH, gK, PRB 81, 115126


--------------------------------------------------------------------------------------------------------




----------------------------------------- Iteration    1(  31)  ---------------------------------------


    POTLOK:  cpu time   20.7172: real time   20.7677
    SETDIJ:  cpu time    0.2046: real time    0.2051
    TRIAL :  cpu time   36.3973: real time   36.5657
    CORREC:  cpu time   55.1828: real time   55.3973
    CHARGE:  cpu time    2.6157: real time    2.6265
    --------------------------------------------
      LOOP:  cpu time  115.1541: real time  115.6015

 eigenvalue-minimisations  :     0
 total energy-change (2. order) :-0.4331258E-02  (-0.2518041E-02)
 number of electron      24.0000000 magnetization 
 augmentation part        0.0684046 magnetization 

 Free energy of the ion-electron system (eV)
  ---------------------------------------------------
  alpha Z        PSCENC =         0.03818037
  Ewald energy   TEWEN  =      1513.48651378
  -Hartree energ DENC   =     -2523.30811339
  -exchange      EXHF   =       297.69556402
  -V(xc)+E(xc)   XCENC  =         0.00000000
  PAW double counting   =     30554.86615998   -30556.48288306
  entropy T*S    EENTRO =        -0.00000000
  eigenvalues    EBANDS =      -511.43075788
  atomic energy  EATOM  =      1137.26749901
  ---------------------------------------------------
  free energy    TOTEN  =       -87.86783718 eV

  energy without entropy =      -87.86783718  energy(sigma->0) =      -87.86783718
  exchange ACFDT corr.  =         0.00000000  see jH, gK, PRB 81, 115126


--------------------------------------------------------------------------------------------------------




----------------------------------------- Iteration    1(  32)  ---------------------------------------


    POTLOK:  cpu time   20.6742: real time   20.7246
    SETDIJ:  cpu time    0.2049: real time    0.2054
    TRIAL :  cpu time   36.6215: real time   36.7923
    CORREC:  cpu time   55.0974: real time   55.3123
    CHARGE:  cpu time    2.6185: real time    2.6289
    --------------------------------------------
      LOOP:  cpu time  115.2530: real time  115.7027

 eigenvalue-minimisations  :     0
 total energy-change (2. order) :-0.2519454E-02  (-0.1509519E-02)
 number of electron      24.0000000 magnetization 
 augmentation part        0.0684816 magnetization 

 Free energy of the ion-electron system (eV)
  ---------------------------------------------------
  alpha Z        PSCENC =         0.03818037
  Ewald energy   TEWEN  =      1513.48651378
  -Hartree energ DENC   =     -2523.40061114
  -exchange      EXHF   =       297.70339805
  -V(xc)+E(xc)   XCENC  =         0.00000000
  PAW double counting   =     30320.58996767   -30322.20814478
  entropy T*S    EENTRO =        -0.00000000
  eigenvalues    EBANDS =      -511.34715959
  atomic energy  EATOM  =      1137.26749901
  ---------------------------------------------------
  free energy    TOTEN  =       -87.87035663 eV

  energy without entropy =      -87.87035663  energy(sigma->0) =      -87.87035663
  exchange ACFDT corr.  =         0.00000000  see jH, gK, PRB 81, 115126


--------------------------------------------------------------------------------------------------------




----------------------------------------- Iteration    1(  33)  ---------------------------------------


    POTLOK:  cpu time   20.5064: real time   20.5564
    SETDIJ:  cpu time    0.2045: real time    0.2049
    TRIAL :  cpu time   36.6756: real time   36.8454
    CORREC:  cpu time   54.6428: real time   54.8572
    CHARGE:  cpu time    2.6410: real time    2.6517
    --------------------------------------------
      LOOP:  cpu time  114.7038: real time  115.1519

 eigenvalue-minimisations  :     0
 total energy-change (2. order) :-0.1511521E-02  (-0.9227327E-03)
 number of electron      24.0000000 magnetization 
 augmentation part        0.0683996 magnetization 

 Free energy of the ion-electron system (eV)
  ---------------------------------------------------
  alpha Z        PSCENC =         0.03818037
  Ewald energy   TEWEN  =      1513.48651378
  -Hartree energ DENC   =     -2523.41350147
  -exchange      EXHF   =       297.70285713
  -V(xc)+E(xc)   XCENC  =         0.00000000
  PAW double counting   =     30194.98225944   -30196.60100527
  entropy T*S    EENTRO =        -0.00000000
  eigenvalues    EBANDS =      -511.33467114
  atomic energy  EATOM  =      1137.26749901
  ---------------------------------------------------
  free energy    TOTEN  =       -87.87186815 eV

  energy without entropy =      -87.87186815  energy(sigma->0) =      -87.87186815
  exchange ACFDT corr.  =         0.00000000  see jH, gK, PRB 81, 115126


--------------------------------------------------------------------------------------------------------




----------------------------------------- Iteration    1(  34)  ---------------------------------------


    POTLOK:  cpu time   20.1218: real time   20.1709
    SETDIJ:  cpu time    0.2058: real time    0.2063
    TRIAL :  cpu time   36.6494: real time   36.8177
    CORREC:  cpu time   54.3383: real time   54.5517
    CHARGE:  cpu time    2.6510: real time    2.6614
    --------------------------------------------
      LOOP:  cpu time  114.0014: real time  114.4461

 eigenvalue-minimisations  :     0
 total energy-change (2. order) :-0.9229727E-03  (-0.5229475E-03)
 number of electron      24.0000000 magnetization 
 augmentation part        0.0683566 magnetization 

 Free energy of the ion-electron system (eV)
  ---------------------------------------------------
  alpha Z        PSCENC =         0.03818037
[...]
  entropy T*S    EENTRO =        -0.00000000
  eigenvalues    EBANDS =      -511.33382941
  atomic energy  EATOM  =      1137.26749901
  ---------------------------------------------------
  free energy    TOTEN  =       -87.87402028 eV

  energy without entropy =      -87.87402028  energy(sigma->0) =      -87.87402028
  exchange ACFDT corr.  =         0.00000000  see jH, gK, PRB 81, 115126


--------------------------------------------------------------------------------------------------------




----------------------------------------- Iteration    1(  48)  ---------------------------------------


    POTLOK:  cpu time   18.9857: real time   19.0320
    SETDIJ:  cpu time    0.2046: real time    0.2051
    TRIAL :  cpu time   36.3046: real time   36.4732
    CORREC:  cpu time   53.3022: real time   53.5152
    CHARGE:  cpu time    2.6184: real time    2.6291
    --------------------------------------------
      LOOP:  cpu time  111.4524: real time  111.8937

 eigenvalue-minimisations  :     0
 total energy-change (2. order) :-0.8272382E-06  (-0.3302853E-06)
 number of electron      24.0000000 magnetization 
 augmentation part        0.0684373 magnetization 

 Free energy of the ion-electron system (eV)
  ---------------------------------------------------
  alpha Z        PSCENC =         0.03818037
  Ewald energy   TEWEN  =      1513.48651378
  -Hartree energ DENC   =     -2523.41827349
  -exchange      EXHF   =       297.70497147
  -V(xc)+E(xc)   XCENC  =         0.00000000
  PAW double counting   =     30333.51149833   -30335.13003573
  entropy T*S    EENTRO =        -0.00000000
  eigenvalues    EBANDS =      -511.33437484
  atomic energy  EATOM  =      1137.26749901
  ---------------------------------------------------
  free energy    TOTEN  =       -87.87402111 eV

  energy without entropy =      -87.87402111  energy(sigma->0) =      -87.87402111
  exchange ACFDT corr.  =         0.00000000  see jH, gK, PRB 81, 115126


--------------------------------------------------------------------------------------------------------




----------------------------------------- Iteration    1(  49)  ---------------------------------------


    POTLOK:  cpu time   18.9708: real time   19.0170
    SETDIJ:  cpu time    0.2045: real time    0.2050
    TRIAL :  cpu time   36.3755: real time   36.5448
    CORREC:  cpu time   53.3168: real time   53.5269
    CHARGE:  cpu time    2.6282: real time    2.6389
    --------------------------------------------
      LOOP:  cpu time  111.5325: real time  111.9715

 eigenvalue-minimisations  :     0
 total energy-change (2. order) :-0.3301370E-06  (-0.1730450E-06)
 number of electron      24.0000000 magnetization 
 augmentation part        0.0684374 magnetization 

 Free energy of the ion-electron system (eV)
  ---------------------------------------------------
  alpha Z        PSCENC =         0.03818037
  Ewald energy   TEWEN  =      1513.48651378
  -Hartree energ DENC   =     -2523.41746189
  -exchange      EXHF   =       297.70487968
  -V(xc)+E(xc)   XCENC  =         0.00000000
  PAW double counting   =     30335.69600440   -30337.31453576
  entropy T*S    EENTRO =        -0.00000000
  eigenvalues    EBANDS =      -511.33510102
  atomic energy  EATOM  =      1137.26749901
  ---------------------------------------------------
  free energy    TOTEN  =       -87.87402144 eV

  energy without entropy =      -87.87402144  energy(sigma->0) =      -87.87402144
  exchange ACFDT corr.  =         0.00000000  see jH, gK, PRB 81, 115126


--------------------------------------------------------------------------------------------------------




----------------------------------------- Iteration    1(  50)  ---------------------------------------


    POTLOK:  cpu time   18.9203: real time   18.9665
    SETDIJ:  cpu time    0.2078: real time    0.2083
    TRIAL :  cpu time   36.3543: real time   36.5249
    CORREC:  cpu time   53.2613: real time   53.4733
    CHARGE:  cpu time    2.6269: real time    2.6375
    --------------------------------------------
      LOOP:  cpu time  111.4055: real time  111.8475

 eigenvalue-minimisations  :     0
 total energy-change (2. order) :-0.1728529E-06  (-0.8321609E-07)
 number of electron      24.0000000 magnetization 
 augmentation part        0.0684375 magnetization 

 Free energy of the ion-electron system (eV)
  ---------------------------------------------------
  alpha Z        PSCENC =         0.03818037
  Ewald energy   TEWEN  =      1513.48651378
  -Hartree energ DENC   =     -2523.41751788
  -exchange      EXHF   =       297.70491481
  -V(xc)+E(xc)   XCENC  =         0.00000000
  PAW double counting   =     30336.99480169   -30338.61333168
  entropy T*S    EENTRO =        -0.00000000
  eigenvalues    EBANDS =      -511.33508171
  atomic energy  EATOM  =      1137.26749901
  ---------------------------------------------------
  free energy    TOTEN  =       -87.87402161 eV

  energy without entropy =      -87.87402161  energy(sigma->0) =      -87.87402161
  exchange ACFDT corr.  =         0.00000000  see jH, gK, PRB 81, 115126


--------------------------------------------------------------------------------------------------------




----------------------------------------- Iteration    1(  51)  ---------------------------------------


    POTLOK:  cpu time   18.9570: real time   19.0031
    SETDIJ:  cpu time    0.2045: real time    0.2050
    TRIAL :  cpu time   36.4413: real time   36.6102
    CORREC:  cpu time   53.1871: real time   53.3999
    CHARGE:  cpu time    2.6228: real time    2.6333
    --------------------------------------------
      LOOP:  cpu time  111.4458: real time  111.8865

 eigenvalue-minimisations  :     0
 total energy-change (2. order) :-0.8306483E-07  (-0.4897614E-07)
 number of electron      24.0000000 magnetization 
 augmentation part        0.0684376 magnetization 

 Free energy of the ion-electron system (eV)
  ---------------------------------------------------
  alpha Z        PSCENC =         0.03818037
  Ewald energy   TEWEN  =      1513.48651378
  -Hartree energ DENC   =     -2523.41758535
  -exchange      EXHF   =       297.70494715
  -V(xc)+E(xc)   XCENC  =         0.00000000
  PAW double counting   =     30337.59980264   -30339.21833209
  entropy T*S    EENTRO =        -0.00000000
  eigenvalues    EBANDS =      -511.33504720
  atomic energy  EATOM  =      1137.26749901
  ---------------------------------------------------
  free energy    TOTEN  =       -87.87402170 eV

  energy without entropy =      -87.87402170  energy(sigma->0) =      -87.87402170
  exchange ACFDT corr.  =         0.00000000  see jH, gK, PRB 81, 115126


--------------------------------------------------------------------------------------------------------


  average scaling for gradient   0.8847


 average (electrostatic) potential at core
  the test charge radii are     0.5770  0.5955  0.4325
  (the norm of the test charge is              1.0000)
       1 -67.9109       2 -63.9840       3 -90.6538       4 -92.4535       5 -29.1549
       6 -25.5170       7 -25.8343       8 -25.8190
 
 
 
 E-fermi : -12.2946     XC(G=0):   0.0000     alpha+bet : -0.0113


 k-point     1 :       0.0000    0.0000    0.0000
  band No.  band energies     occupation 
      1     -39.9506      2.00000
      2     -37.1063      2.00000
      3     -28.0193      2.00000
      4     -22.4643      2.00000
      5     -19.2475      2.00000
      6     -18.5618      2.00000
      7     -17.7763      2.00000
      8     -15.9320      2.00000
      9     -15.6431      2.00000
     10     -15.3395      2.00000
     11     -13.1996      2.00000
     12     -12.4272      2.00000
     13       0.0081      0.00000
     14       0.1254      0.00000
     15       0.1281      0.00000
     16       0.1299      0.00000
     17       0.1330      0.00000
     18       0.1450      0.00000
     19       0.2038      0.00000
     20       0.2515      0.00000


--------------------------------------------------------------------------------------------------------


 soft charge-density along one line, spin component           1
         0         1         2         3         4         5         6         7         8         9
 total charge-density along one line
 
 pseudopotential strength for first ion, spin component:           1
 11.751  19.768  -0.013  -0.015   0.005  -0.023  -0.026   0.009
 19.768  33.251  -0.021  -0.024   0.009  -0.038  -0.043   0.015
 -0.013  -0.021  -3.334  -0.001  -0.002  -5.943  -0.003  -0.005
 -0.015  -0.024  -0.001  -3.332   0.001  -0.003  -5.939   0.002
  0.005   0.009  -0.002   0.001  -3.338  -0.005   0.002  -5.951
 -0.023  -0.038  -5.943  -0.003  -0.005 -10.572  -0.005  -0.009
 -0.026  -0.043  -0.003  -5.939   0.002  -0.005 -10.566   0.003
  0.009   0.015  -0.005   0.002  -5.951  -0.009   0.003 -10.588
 total augmentation occupancy for first ion, spin component:           1
 17.389  -7.552   1.796  -1.977  -0.842  -0.828   1.019   0.391
 -7.552   3.334  -0.832   1.125   0.396   0.389  -0.550  -0.186
  1.796  -0.832  13.172  -0.606  -3.536  -5.414   0.187   1.531
 -1.977   1.125  -0.606  10.698   0.414   0.186  -4.154  -0.141
 -0.842   0.396  -3.536   0.414   6.653   1.531  -0.142  -2.585
 -0.828   0.389  -5.414   0.186   1.531   2.248  -0.058  -0.668
  1.019  -0.550   0.187  -4.154  -0.142  -0.058   1.630   0.049
  0.391  -0.186   1.531  -0.141  -2.585  -0.668   0.049   1.013


------------------------ aborting loop because EDIFF is reached ----------------------------------------


    FORLOC:  cpu time    1.8683: real time    1.8729
    FORHF :  cpu time   24.3850: real time   24.4472
    FORNL :  cpu time    0.9329: real time    0.9352
    FORCOR:  cpu time   17.7375: real time   17.7808
    OFIELD:  cpu time    0.0562: real time    0.0563

 VOLUME and BASIS-vectors are now :
 -----------------------------------------------------------------------------
  energy-cutoff  :     2000.00
  volume of cell :    42875.00
      direct lattice vectors                 reciprocal lattice vectors
    35.000000000  0.000000000  0.000000000     0.028571429  0.000000000  0.000000000
     0.000000000 35.000000000  0.000000000     0.000000000  0.028571429  0.000000000
     0.000000000  0.000000000 35.000000000     0.000000000  0.000000000  0.028571429

  length of vectors
    35.000000000 35.000000000 35.000000000     0.028571429  0.028571429  0.028571429


 FORCES acting on ions:
    Electron-Ion                     Ewald-Force                    Non-Local-Force
 -----------------------------------------------------------------------------------------------
   -.161E+02 0.319E+02 -.698E+02   0.136E+02 -.255E+02 0.775E+02   0.146E+01 -.386E+01 -.802E+01
   -.186E+02 0.329E+02 -.158E+03   0.186E+02 -.326E+02 0.161E+03   -.794E-01 -.125E+00 -.270E+01
   0.137E+03 -.309E+03 0.962E+02   -.159E+03 0.359E+03 -.112E+03   0.182E+02 -.409E+02 0.128E+02
   -.971E+02 0.232E+03 0.157E+03   0.118E+03 -.278E+03 -.145E+03   -.163E+02 0.367E+02 -.965E+01
   0.757E+01 -.993E+01 0.111E+03   -.873E+01 0.121E+02 -.118E+03   0.141E+01 -.269E+01 0.792E+01
   0.151E+02 -.421E+02 -.612E+02   -.169E+02 0.466E+02 0.648E+02   0.171E+01 -.446E+01 -.359E+01
   0.335E+02 0.576E+02 -.362E+02   -.366E+02 -.625E+02 0.375E+02   0.305E+01 0.480E+01 -.125E+01
   -.660E+02 0.171E+02 -.332E+02   0.717E+02 -.184E+02 0.342E+02   -.560E+01 0.129E+01 -.972E+00
 -----------------------------------------------------------------------------------------------
   -.439E+01 0.107E+02 0.587E+01   0.000E+00 0.711E-14 -.426E-13   0.380E+01 -.926E+01 -.548E+01
 
 
 POSITION                                       TOTAL-FORCE (eV/Angst)
 -----------------------------------------------------------------------------------
     34.88163      0.53140      4.38018        -0.618222      1.348301     -0.976785
      0.09158      0.13441      5.81158        -0.046269      0.121895      0.141679
     34.41344      1.58084      4.00092         1.202089     -2.707490      0.719434
      0.28484     34.55383      3.54089        -0.818427      1.810169     -0.883307
      0.11614     34.87975      2.63949         0.317397     -0.638440      1.290111
     34.78162      0.94375      6.46157         0.080928     -0.210299     -0.145155
     34.51550     34.23779      6.02853         0.112081      0.205902     -0.079089
      1.14008     34.89828      5.97660        -0.229577      0.069962     -0.066888
 -----------------------------------------------------------------------------------
    total drift:                                0.000415     -0.001361      0.000583


--------------------------------------------------------------------------------------------------------



  FREE ENERGIE OF THE ION-ELECTRON SYSTEM (eV)
  ---------------------------------------------------
  free  energy   TOTEN  =       -87.87402170 eV

  energy  without entropy=      -87.87402170  energy(sigma->0) =      -87.87402170
 


--------------------------------------------------------------------------------------------------------


    POTLOK:  cpu time   19.1909: real time   19.2376


--------------------------------------------------------------------------------------------------------


     LOOP+:  cpu time 6112.0211: real time 6134.9999
    4ORBIT:  cpu time    0.0000: real time    0.0000

 total amount of memory used by VASP on root node  4870156. kBytes
========================================================================

   base      :      30000. kBytes
   nonl-proj :     174155. kBytes
   fftplans  :    1713006. kBytes
   grid      :    2822242. kBytes
   one-center:          1. kBytes
   HF        :          4. kBytes
   nonlr-proj:        131. kBytes
   wavefun   :     130617. kBytes
 
  
  
 General timing and accounting informations for this job:
 ========================================================
  
                  Total CPU time used (sec):     7052.582
                            User time (sec):     6431.393
                          System time (sec):      621.189
                         Elapsed time (sec):     7078.431
  
                   Maximum memory used (kb):     7126016.
                   Average memory used (kb):           0.
  
                          Minor page faults:      2020171
                          Major page faults:            6
                 Voluntary context switches:       863085
 
 PROFILE, used timers:      39
 =============================
 
 index                 routine                    time                            calls level
----------------------------------------------------------------------------------------------
    1    total_time                         7078.431736                                1   1
    2      w1_copy                               1.997133                           1068   2
    3      fftwav_mpi                          223.827085                            863   2
    4      fftext_mpi                            0.840130                              5   2
    5      overl                                 0.000537                            590   2
    6      orth1                                 2.039016                            411   2
    7      lincom                                2.393382                            282   2
    8      eccp                                 35.235291                            715   2
    9      hamiltmu                             30.660116                             60   2
   10        vhamil                                6.092614                          100   3
   11        overl1                                0.000067                          100   3
   12        kinhamil                             17.090513                          100   3
   13          fftext_mpi                           16.901003                        100   4
   14      pdssyex_zheevx                        2.496616                             97   2
   15      fock_acc                           1398.912076                            138   2
   16        w1_copy                               1.763475                          650   3
   17        fftwav_mpi                           90.307989                          650   3
   18        fock_charge_mu                       76.982795                          420   3
   19          racc0mu_hf                            0.633364                        420   4
   20        rpromu_hf                             3.102580                          420   3
   21        overl1                                0.000146                          230   3
   22        fftext_mpi                           25.475889                          230   3
   23      hamilt_local                         61.350287                            230   2
   24        vhamil                               13.865803                          230   3
   25        kinhamil                             47.483871                          230   3
   26          fftext_mpi                           47.041913                        230   4
   27      w1_dscal                              6.631424                            230   2
   28      eddiag                             1457.812033                             46   2
   29        fock_acc                           1389.373556                          138   3
   30          w1_copy                               1.247077                        647   4
   31          fftwav_mpi                           89.616922                        647   4
   32          fock_charge_mu                       76.618622                        417   4
   33            racc0mu_hf                            0.777477                      417   5
   34          rpromu_hf                             3.271217                        417   4
   35          overl1                                0.000134                        230   4
   36          fftext_mpi                           24.987178                        230   4
   37        fftwav_mpi                           56.957749                          230   3
   38        eccp                                 10.308393                          230   3
   39      rpro1_hf                              0.293303                            240   2
 
 Flat profile
 ============
 
             routine name                   CPU           calls
 ---------------------------------------------------------------
 total_time                           3853.943305           1
 fock_acc                             2394.911608         276
 fftwav_mpi                            460.709745        2390
 fock_charge_mu                        152.190576         837
 fftext_mpi                            115.246113         795
 eccp                                   45.543684         945
 vhamil                                 19.958416         330
 hamiltmu                                7.476923          60
 w1_dscal                                6.631424         230
 rpromu_hf                               6.373797         837
 w1_copy                                 5.007685        2365
 pdssyex_zheevx                          2.496616          97
 lincom                                  2.393382         282
 orth1                                   2.039016         411
 racc0mu_hf                              1.410841         837
 eddiag                                  1.172335          46
 kinhamil                                0.631468         330
 rpro1_hf                                0.293303         240
 hamilt_local                            0.000614         230
 overl                                   0.000537         590
 overl1                                  0.000348         560
 ---------------------------------------------------------------
  summed up times    7078.43173599243     
 
Profiling took   0.011331  0.005395  0.003325  0.003295 seconds
Profiling took   0.007084 seconds
