 vasp.5.4.1 24Jun15 (build Jan 02 2020 16:21:29) gamma-only                     
  
 executed on           IFC15_impi date 2020.04.22  19:57:15
 running on   32 total cores
 distrk:  each k-point on   32 cores,    1 groups
 distr:  one band on NCORES_PER_BAND=   8 cores,    4 groups


--------------------------------------------------------------------------------------------------------


 INCAR:
 POTCAR:    PAW_PBE C_h 06Feb2004                 
 POTCAR:    PAW_PBE H_h 06Feb2004                 
 POTCAR:    PAW_PBE C_h 06Feb2004                 
   VRHFIN =C: s2p2                                                              
   LEXCH  = PE                                                                  
   EATOM  =   147.1560 eV,   10.8157 Ry                                         
                                                                                
   TITEL  = PAW_PBE C_h 06Feb2004                                               
   LULTRA =        F    use ultrasoft PP ?                                      
   IUNSCR =        1    unscreen: 0-lin 1-nonlin 2-no                           
   RPACOR =    0.800    partial core radius                                     
   POMASS =   12.011; ZVAL   =    4.000    mass and valenz                      
   RCORE  =    1.100    outmost cutoff radius                                   
   RWIGS  =    1.630; RWIGS  =    0.863    wigner-seitz radius (au A)           
   ENMAX  =  700.000; ENMIN  =  500.000 eV                                      
   ICORE  =        2    local potential                                         
   LCOR   =        T    correct aug charges                                     
   LPAW   =        T    paw PP                                                  
   EAUG   =  946.768                                                            
   DEXC   =    0.000                                                            
   RMAX   =    1.128    core radius for proj-oper                               
   RAUG   =    1.300    factor for augmentation sphere                          
   RDEP   =    1.162    radius for radial grids                                 
   RDEPT  =    1.088    core radius for aug-charge                              
                                                                                
   Atomic configuration                                                         
    4 entries                                                                   
     n  l   j            E        occ.                                          
     1  0  0.50      -273.3789   2.0000                                         
     2  0  0.50       -13.7508   2.0000                                         
     2  1  0.50        -5.2854   2.0000                                         
     3  2  1.50        -5.4423   0.0000                                         
   Description                                                                  
     l       E           TYP  RCUT    TYP  RCUT                                 
     0    -13.7508458     23  1.100                                             
     0     -8.2022199     23  1.100                                             
     1     -5.2854383     23  1.100                                             
     1      1.1560700     23  1.100                                             
     2     -5.4423304      7  1.100                                             
  local pseudopotential read in
  partial core-charges read in
  partial kinetic energy density read in
  atomic valenz-charges read in
  non local Contribution for L=           0  read in
    real space projection operators read in
  non local Contribution for L=           0  read in
    real space projection operators read in
  non local Contribution for L=           1  read in
    real space projection operators read in
  non local Contribution for L=           1  read in
    real space projection operators read in
    PAW grid and wavefunctions read in
 
   number of l-projection  operators is LMAX  =           4
   number of lm-projection operators is LMMAX =           8
 
 POTCAR:    PAW_PBE H_h 06Feb2004                 
   VRHFIN =H: ultrasoft test                                                    
   LEXCH  = PE                                                                  
   EATOM  =    12.4884 eV,    0.9179 Ry                                         
                                                                                
   TITEL  = PAW_PBE H_h 06Feb2004                                               
   LULTRA =        F    use ultrasoft PP ?                                      
   IUNSCR =        0    unscreen: 0-lin 1-nonlin 2-no                           
   RPACOR =    0.000    partial core radius                                     
   POMASS =    1.000; ZVAL   =    1.000    mass and valenz                      
   RCORE  =    0.800    outmost cutoff radius                                   
   RWIGS  =    0.700; RWIGS  =    0.370    wigner-seitz radius (au A)           
   ENMAX  =  700.000; ENMIN  =  350.000 eV                                      
   RCLOC  =    0.701    cutoff for local pot                                    
   LCOR   =        T    correct aug charges                                     
   LPAW   =        T    paw PP                                                  
   EAUG   = 1000.000                                                            
   RMAX   =    0.819    core radius for proj-oper                               
   RAUG   =    1.000    factor for augmentation sphere                          
   RDEP   =    0.817    radius for radial grids                                 
   RDEPT  =    0.817    core radius for aug-charge                              
                                                                                
   Atomic configuration                                                         
    2 entries                                                                   
     n  l   j            E        occ.                                          
     1  0  0.50        -6.4927   1.0000                                         
     2  1  0.50        -3.4015   0.0000                                         
   Description                                                                  
     l       E           TYP  RCUT    TYP  RCUT                                 
     0     -6.4927493     23  0.800                                             
     0      6.8029130     23  0.800                                             
     1     -6.8029130     23  0.800                                             
  local pseudopotential read in
  atomic valenz-charges read in
  non local Contribution for L=           0  read in
    real space projection operators read in
  non local Contribution for L=           0  read in
    real space projection operators read in
  non local Contribution for L=           1  read in
    real space projection operators read in
    PAW grid and wavefunctions read in
 
   number of l-projection  operators is LMAX  =           3
   number of lm-projection operators is LMMAX =           5
 
  PAW_PBE C_h 06Feb2004                 :
 energy of atom  1       EATOM= -147.1560
 kinetic energy error for atom=    0.0004 (will be added to EATOM!!)
  PAW_PBE H_h 06Feb2004                 :
 energy of atom  2       EATOM=  -12.4884
 kinetic energy error for atom=    0.0001 (will be added to EATOM!!)
 
 
 POSCAR: C H                                     
  positions in cartesian coordinates
  No initial velocities read in
 exchange correlation table for  LEXCH =        8
   RHO(1)=    0.500       N(1)  =     2000
   RHO(2)=  100.500       N(2)  =     4000
 


--------------------------------------------------------------------------------------------------------


 ion  position               nearest neighbor table
   1  0.017  0.038  0.009-   7 1.08   2 1.39   6 1.39
   2  0.032  0.002  0.020-   8 1.08   1 1.39   3 1.39
   3  0.008  0.970  0.019-   9 1.08   2 1.39   4 1.39
   4  0.970  0.974  0.008-  10 1.08   3 1.39   5 1.39
   5  0.956  0.009  0.998-  11 1.08   6 1.39   4 1.39
   6  0.979  0.041  0.998-  12 1.08   1 1.39   5 1.39
   7  0.036  0.063  0.009-   1 1.08
   8  0.061  1.000  0.028-   2 1.08
   9  0.020  0.943  0.027-   3 1.08
  10  0.952  0.949  0.008-   4 1.08
  11  0.926  0.012  0.989-   5 1.08
  12  0.968  0.069  0.990-   6 1.08
 
  LATTYP: Found a simple cubic cell.
 ALAT       =    35.0000000000
  
  Lattice vectors:
  
 A1 = (  35.0000000000,   0.0000000000,   0.0000000000)
 A2 = (   0.0000000000,  35.0000000000,   0.0000000000)
 A3 = (   0.0000000000,   0.0000000000,  35.0000000000)


Analysis of symmetry for initial positions (statically):
=====================================================================
 Subroutine PRICEL returns:
 Original cell was already a primitive cell.
 

 Routine SETGRP: Setting up the symmetry group for a 
 simple cubic supercell.


 Subroutine GETGRP returns: Found  1 space group operations
 (whereof  1 operations were pure point group operations)
 out of a pool of 48 trial point group operations.


The static configuration has the point symmetry C_1 .


Analysis of symmetry for dynamics (positions and initial velocities):
=====================================================================
 Subroutine PRICEL returns:
 Original cell was already a primitive cell.
 

 Routine SETGRP: Setting up the symmetry group for a 
 simple cubic supercell.


 Subroutine GETGRP returns: Found  1 space group operations
 (whereof  1 operations were pure point group operations)
 out of a pool of 48 trial point group operations.


The dynamic configuration has the point symmetry C_1 .
 
 
 KPOINTS: automatic mesh                          

Automatic generation of k-mesh.
Space group operators:
 irot       det(A)        alpha          n_x          n_y          n_z        tau_x        tau_y        tau_z
    1     1.000000     0.000000     1.000000     0.000000     0.000000     0.000000     0.000000     0.000000
 
 Subroutine IBZKPT returns following result:
 ===========================================
 
 Found      1 irreducible k-points:
 
 Following reciprocal coordinates:
            Coordinates               Weight
  0.000000  0.000000  0.000000      1.000000
 
 Following cartesian coordinates:
            Coordinates               Weight
  0.000000  0.000000  0.000000      1.000000
 
 
 Subroutine IBZKPT_HF returns following result:
 ==============================================
 
 Found      1 k-points in 1st BZ
 the following      1 k-points will be used (e.g. in the exchange kernel)
 Following reciprocal coordinates:   # in IRBZ
  0.000000  0.000000  0.000000    1.00000000   1 t-inv F


--------------------------------------------------------------------------------------------------------




 Dimension of arrays:
   k-points           NKPTS =      1   k-points in BZ     NKDIM =      1   number of bands    NBANDS=     24
   number of dos      NEDOS =    301   number of ions     NIONS =     12
   non local maximal  LDIM  =      4   non local SUM 2l+1 LMDIM =      8
   total plane-waves  NPLWV = ******
   max r-space proj   IRMAX =      1   max aug-charges    IRDMAX=  20964
   dimension x,y,z NGX =   512 NGY =  512 NGZ =  512
   dimension x,y,z NGXF=  1024 NGYF= 1024 NGZF= 1024
   support grid    NGXF=  1024 NGYF= 1024 NGZF= 1024
   ions per type =               6   6
 NGX,Y,Z   is equivalent  to a cutoff of  24.32, 24.32, 24.32 a.u.
 NGXF,Y,Z  is equivalent  to a cutoff of  48.64, 48.64, 48.64 a.u.


 I would recommend the setting:
   dimension x,y,z NGX =   511 NGY =  511 NGZ =  511
 SYSTEM =  C                                       
 POSCAR =  C H                                     

 Startparameter for this run:
   NWRITE =      2    write-flag & timer
   PREC   = accura    normal or accurate (medium, high low for compatibility)
   ISTART =      0    job   : 0-new  1-cont  2-samecut
   ICHARG =      2    charge: 1-file 2-atom 10-const
   ISPIN  =      1    spin polarized calculation?
   LNONCOLLINEAR =      F non collinear calculations
   LSORBIT =      F    spin-orbit coupling
   INIWAV =      1    electr: 0-lowe 1-rand  2-diag
   LASPH  =      T    aspherical Exc in radial PAW
   METAGGA=      F    non-selfconsistent MetaGGA calc.

 Electronic Relaxation 1
   ENCUT  = 2000.0 eV 147.00 Ry   12.12 a.u. 127.63127.63127.63*2*pi/ulx,y,z
   ENINI  = 2000.0     initial cutoff
   ENAUG  = 1000.0 eV  augmentation charge cutoff
   NELM   =     60;   NELMIN=  2; NELMDL= -5     # of ELM steps 
   EDIFF  = 0.1E-06   stopping-criterion for ELM
   LREAL  =      F    real-space projection
   NLSPLINE    = F    spline interpolate recip. space projectors
   LCOMPAT=      F    compatible to vasp.4.4
   GGA_COMPAT  = T    GGA compatible to vasp.4.4-vasp.4.6
   LMAXPAW     = -100 max onsite density
   LMAXMIX     =    2 max onsite mixed and CHGCAR
   VOSKOWN=      0    Vosko Wilk Nusair interpolation
   ROPT   =    0.00000   0.00000
 Ionic relaxation
   EDIFFG = 0.1E-05   stopping-criterion for IOM
   NSW    =      0    number of steps for IOM
   NBLOCK =      1;   KBLOCK =      1    inner block; outer block 
   IBRION =     -1    ionic relax: 0-MD 1-quasi-New 2-CG
   NFREE  =      0    steps in history (QN), initial steepest desc. (CG)
   ISIF   =      0    stress and relaxation
   IWAVPR =     10    prediction:  0-non 1-charg 2-wave 3-comb
   ISYM   =      3    0-nonsym 1-usesym 2-fastsym
   LCORR  =      T    Harris-Foulkes like correction to forces

   POTIM  = 0.5000    time-step for ionic-motion
   TEIN   =    0.0    initial temperature
   TEBEG  =    0.0;   TEEND  =   0.0 temperature during run
   SMASS  =  -3.00    Nose mass-parameter (am)
   estimated Nose-frequenzy (Omega)   =  0.10E-29 period in steps =****** mass=  -0.280E-25a.u.
   SCALEE = 1.0000    scale energy and forces
   NPACO  =    256;   APACO  = 16.0  distance and # of slots for P.C.
   PSTRESS=    0.0 pullay stress

  Mass of Ions in am
   POMASS =  12.01  1.00
  Ionic Valenz
   ZVAL   =   4.00  1.00
  Atomic Wigner-Seitz radii
   RWIGS  =  -1.00 -1.00
  virtual crystal weights 
   VCA    =   1.00  1.00
   NELECT =      30.0000    total number of electrons
   NUPDOWN=      -1.0000    fix difference up-down

 DOS related values:
   EMIN   =  10.00;   EMAX   =-10.00  energy-range for DOS
   EFERMI =   0.00
   ISMEAR =     0;   SIGMA  =   0.01  broadening in eV -4-tet -1-fermi 0-gaus

 Electronic relaxation 2 (details)
   IALGO  =     58    algorithm
   LDIAG  =      T    sub-space diagonalisation (order eigenvalues)
   LSUBROT=      F    optimize rotation matrix (better conditioning)
   TURBO    =      0    0=normal 1=particle mesh
   IRESTART =      0    0=no restart 2=restart with 2 vectors
   NREBOOT  =      0    no. of reboots
   NMIN     =      0    reboot dimension
   EREF     =   0.00    reference energy to select bands
   IMIX   =      4    mixing-type and parameters
     AMIX     =   0.40;   BMIX     =  1.00
     AMIX_MAG =   1.60;   BMIX_MAG =  1.00
     AMIN     =   0.10
     WC   =   100.;   INIMIX=   1;  MIXPRE=   1;  MAXMIX= -45

 Intra band minimization:
   WEIMIN = 0.0000     energy-eigenvalue tresh-hold
   EBREAK =  0.10E-08  absolut break condition
   DEPER  =   0.30     relativ break condition  

   TIME   =   0.40     timestep for ELM

  volume/ion in A,a.u.               =    3572.92     24111.23
  Fermi-wavevector in a.u.,A,eV,Ry     =   0.145338  0.274650  0.287399  0.021123
  Thomas-Fermi vector in A             =   0.812913
 
 Write flags
   LWAVE  =      F    write WAVECAR
   LCHARG =      T    write CHGCAR
   LVTOT  =      F    write LOCPOT, total local potential
   LVHAR  =      F    write LOCPOT, Hartree potential only
   LELF   =      F    write electronic localiz. function (ELF)
   LORBIT =      0    0 simple, 1 ext, 2 COOP (PROOUT)


 Dipole corrections
   LMONO  =      F    monopole corrections only (constant potential shift)
   LDIPOL =      F    correct potential (dipole corrections)
   IDIPOL =      0    1-x, 2-y, 3-z, 4-all directions 
   EPSILON=  1.0000000 bulk dielectric constant

 Exchange correlation treatment:
   GGA     =    --    GGA type
   LEXCH   =     8    internal setting for exchange type
   VOSKOWN=      0    Vosko Wilk Nusair interpolation
   EXXOEP  =     0    0=HF, 1=EXX-LHF (local Hartree Fock) 2=EXX OEP
   LHFCALC =     T    Hartree Fock is set to
   LSYMGRAD=     F    symmetrize gradient (conserves proper symmetry)
   PRECFOCK=normal    Normal, Fast or Accurate (Low or Medium for compatibility)
   LRHFCALC=     F    long range Hartree Fock
   LRSCOR  =     F    long range correlation only (use DFT for short range part)
   LTHOMAS =     F    Thomas Fermi screening in HF
   LMODELHF=     F    short range full HF, long range fraction AEXX
   ENCUT4O =  -1.0   cutoff for four orbital integrals eV
   LMAXFOCK=     4    L truncation for augmentation on plane wave grid
   LMAXFOCKAE=  -1    L truncation for all-electron charge restoration on plane wave grid
   NMAXFOCKAE=   1    number of basis functions for all-electron charge restoration
   LFOCKAEDFT=     F  apply the AE augmentation even for DFT
   NKREDX  =     1    reduce k-point grid by
   NKREDY  =     1    reduce k-point grid by
   NKREDZ  =     1    reduce k-point grid by
   SHIFTRED=     F    shift reduced grid of Gamma
   HFKIDENT=     F    idential grid for each k-point
   ODDONLY =     F    use only odd q-grid points
   EVENONLY=     F    use only even q-grid points
   HFALPHA =   -1.0000 decay constant for conv. correction
   MCALPHA =    0.0000 extent of test-charge in conv. correction in multipole expansion
   AEXX    =    1.0000 exact exchange contribution
   HFSCREEN=    0.0000 screening length (either q_TF or 0.3 A-1)
   HFSCREENC=   0.0000 screening length for correlation (either q_TF or 0.3 A-1)
   HFRCUT  =    0.0000 spherical cutoff for potential kernel
   ALDAX   =    0.0000 LDA exchange part
   AGGAX   =    0.0000 GGA exchange part
   ALDAC   =    0.0000 LDA correlation
   AGGAC   =    0.0000 GGA correlation
   NBANDSGWLOW=     1    first orbital included in HF term
   ENCUTFOCK=  -1.0 apply spherical cutoff to Coloumb kernel
 Linear response parameters
   LEPSILON=     F    determine dielectric tensor
   LRPA    =     F    only Hartree local field effects (RPA)
   LNABLA  =     F    use nabla operator in PAW spheres
   LVEL    =     F    velocity operator in full k-point grid
   LINTERFAST=   F  fast interpolation
   KINTER  =     0    interpolate to denser k-point grid
   CSHIFT  =0.1000    complex shift for real part using Kramers Kronig
   OMEGAMAX=  -1.0    maximum frequency
   DEG_THRESHOLD= 0.2000000E-02 threshold for treating states as degnerate
   RTIME   =    0.100 relaxation time in fs

 Orbital magnetization related:
   ORBITALMAG=     F  switch on orbital magnetization
   LCHIMAG   =     F  perturbation theory with respect to B field
   DQ        =  0.001000  dq finite difference perturbation B field



--------------------------------------------------------------------------------------------------------


 Static calculation
 charge density and potential will be updated during run
 non-spin polarized calculation
 Conjugate gradient for all bands (Freysoldt, et al. PRB 79, 241103 (2009))
 preconditioned conjugated gradient                                        
 perform sub-space diagonalisation
    before iterative eigenvector-optimisation
 modified Broyden-mixing scheme, WC =      100.0
 initial mixing is a Kerker type mixing with AMIX =  0.4000 and BMIX =      1.0000
 Hartree-type preconditioning will be used
 using additional bands            9
 reciprocal scheme for non local part
 use partial core corrections
 no Harris-corrections to forces 
 use gradient corrections 
 use of overlap-Matrix (Vanderbilt PP)
 Gauss-broadening in eV      SIGMA  =   0.01


--------------------------------------------------------------------------------------------------------


  energy-cutoff  :     2000.00
  volume of cell :    42875.00
      direct lattice vectors                 reciprocal lattice vectors
    35.000000000  0.000000000  0.000000000     0.028571429  0.000000000  0.000000000
     0.000000000 35.000000000  0.000000000     0.000000000  0.028571429  0.000000000
     0.000000000  0.000000000 35.000000000     0.000000000  0.000000000  0.028571429

  length of vectors
    35.000000000 35.000000000 35.000000000     0.028571429  0.028571429  0.028571429


 
 k-points in units of 2pi/SCALE and weight: automatic mesh                          
   0.00000000  0.00000000  0.00000000       1.000
 
 k-points in reciprocal lattice and weights: automatic mesh                          
   0.00000000  0.00000000  0.00000000       1.000
 
 position of ions in fractional coordinates (direct lattice) 
   0.01733671  0.03801205  0.00904099
   0.03194528  0.00249282  0.01957476
   0.00836864  0.97039750  0.01911735
   0.97020481  0.97380825  0.00823399
   0.95561176  0.00935283  0.99771591
   0.97919881  0.04145266  0.99809005
   0.03561424  0.06292184  0.00943864
   0.06143022  0.99988895  0.02839309
   0.01967134  0.94282967  0.02729651
   0.95192258  0.94890034  0.00798140
   0.92602186  0.01200826  0.98921868
   0.96789646  0.06901882  0.98988967
 
 position of ions in cartesian coordinates  (Angst):
   0.60678496  1.33042185  0.31643451
   1.11808466  0.08724886  0.68511652
   0.29290229 33.96391263  0.66910727
  33.95716826 34.08328888  0.28818964
  33.44641162  0.32734899 34.92005683
  34.27195836  1.45084316 34.93315166
   1.24649846  2.20226434  0.33035231
   2.15005753 34.99611322  0.99375824
   0.68849686 32.99903851  0.95537797
  33.31729044 33.21151175  0.27934903
  32.41076505  0.42028908 34.62265380
  33.87637621  2.41565865 34.64613857
 


--------------------------------------------------------------------------------------------------------


 use parallel FFT for wavefunctions z direction half grid
 k-point  1 :   0.0000 0.0000 0.0000  plane waves: 4353902

 maximum and minimum number of plane-waves per node :    544247   544233

 maximum number of plane-waves:   4353902
 maximum index in each direction: 
   IXMAX=  127   IYMAX=  127   IZMAX=  127
   IXMIN= -127   IYMIN= -127   IZMIN=    0

 NGX is ok and might be reduce to 510
 NGY is ok and might be reduce to 510
 NGZ is ok and might be reduce to 510

 parallel 3D FFT for wavefunctions:
    minimum data exchange during FFTs selected (reduces bandwidth)
 parallel 3D FFT for charge:
    minimum data exchange during FFTs selected (reduces bandwidth)


 FFT grid for exact exchange (Hartree Fock) 
  NGX =384; NGY =384; NGZ =384

 use parallel FFT for wavefunctions z direction half grid
 
 Radii for the augmentation spheres in the non-local exchange
 for species   1 augmentation radius   0.721 (default was   0.577)
       energy cutoff for augmentation   8000.0
 for species   2 augmentation radius   0.541 (default was   0.432)
       energy cutoff for augmentation   8000.0

 real space projection operators:
  total allocation   :       1244.46 KBytes
  max/ min on nodes  :        161.79        151.59

 Maximum index for augmentation-charges in exchange          293
  SETUP_FOCK is finished

 total amount of memory used by VASP on root node  4627387. kBytes
========================================================================

   base      :      30000. kBytes
   nonl-proj :     174155. kBytes
   fftplans  :    1713006. kBytes
   grid      :    2553282. kBytes
   one-center:          3. kBytes
   HF        :          9. kBytes
   nonlr-proj:        191. kBytes
   wavefun   :     156741. kBytes
 
     INWAV:  cpu time    0.0000: real time    0.0002
 Broyden mixing: mesh for mixing (old mesh)
   NGX =255   NGY =255   NGZ =255
  (NGX  =***   NGY  =***   NGZ  =***)
  gives a total of ****** points

 initial charge density was supplied:
 charge density of overlapping atoms calculated
 number of electron      30.0000000 magnetization 
 keeping initial charge density in first step


--------------------------------------------------------------------------------------------------------


 Maximum index for augmentation-charges          895 (set IRDMAX)


--------------------------------------------------------------------------------------------------------


 FEWALD executed in parallel
    FEWALD:  cpu time    0.0016: real time    0.0016


----------------------------------------- Iteration    1(   1)  ---------------------------------------


    POTLOK:  cpu time   17.6190: real time   17.6637
    SETDIJ:  cpu time    0.0558: real time    0.0560
    TRIAL :  cpu time   12.8632: real time   12.9007
    CORREC:  cpu time    0.0001: real time    0.0001
    --------------------------------------------
      LOOP:  cpu time   30.6565: real time   30.7410

 eigenvalue-minimisations  :    48
 total energy-change (2. order) : 0.2583117E+03  (-0.5692392E+03)
 number of electron      30.0000000 magnetization 
 augmentation part       30.0000000 magnetization 

 Free energy of the ion-electron system (eV)
  ---------------------------------------------------
  alpha Z        PSCENC =         0.06769965
  Ewald energy   TEWEN  =      2286.34836289
  -Hartree energ DENC   =     -2895.05169313
  -exchange      EXHF   =         0.00000000
  -V(xc)+E(xc)   XCENC  =         0.00000000
  PAW double counting   =       726.39343035     -727.38220658
  entropy T*S    EENTRO =        -0.00000313
  eigenvalues    EBANDS =        -3.36003757
  atomic energy  EATOM  =       871.29613560
  ---------------------------------------------------
  free energy    TOTEN  =       258.31168807 eV

  energy without entropy =      258.31169120  energy(sigma->0) =      258.31168963
  exchange ACFDT corr.  =         0.00000000  see jH, gK, PRB 81, 115126


--------------------------------------------------------------------------------------------------------




----------------------------------------- Iteration    1(   2)  ---------------------------------------


    TRIAL :  cpu time   15.7007: real time   15.7476
    CORREC:  cpu time    0.0002: real time    0.0002
    --------------------------------------------
      LOOP:  cpu time   15.7032: real time   15.7528

 eigenvalue-minimisations  :    64
 total energy-change (2. order) :-0.4892854E+02  (-0.4797007E+02)
 number of electron      30.0000000 magnetization 
 augmentation part       30.0000000 magnetization 

 Free energy of the ion-electron system (eV)
  ---------------------------------------------------
  alpha Z        PSCENC =         0.06769965
  Ewald energy   TEWEN  =      2286.34836289
  -Hartree energ DENC   =     -2895.05169313
  -exchange      EXHF   =         0.00000000
  -V(xc)+E(xc)   XCENC  =         0.00000000
  PAW double counting   =       726.39343035     -727.38220658
  entropy T*S    EENTRO =        -0.00693309
  eigenvalues    EBANDS =       -52.28164763
  atomic energy  EATOM  =       871.29613560
  ---------------------------------------------------
  free energy    TOTEN  =       209.38314805 eV

  energy without entropy =      209.39008114  energy(sigma->0) =      209.38661460
  exchange ACFDT corr.  =         0.00000000  see jH, gK, PRB 81, 115126


--------------------------------------------------------------------------------------------------------




----------------------------------------- Iteration    1(   3)  ---------------------------------------


    TRIAL :  cpu time   20.0662: real time   20.1259
    CORREC:  cpu time    0.0002: real time    0.0002
    --------------------------------------------
      LOOP:  cpu time   20.0687: real time   20.1307

 eigenvalue-minimisations  :    88
 total energy-change (2. order) :-0.3161144E+02  (-0.3135605E+02)
 number of electron      30.0000000 magnetization 
 augmentation part       30.0000000 magnetization 

 Free energy of the ion-electron system (eV)
  ---------------------------------------------------
  alpha Z        PSCENC =         0.06769965
  Ewald energy   TEWEN  =      2286.34836289
  -Hartree energ DENC   =     -2895.05169313
  -exchange      EXHF   =         0.00000000
  -V(xc)+E(xc)   XCENC  =         0.00000000
  PAW double counting   =       726.39343035     -727.38220658
  entropy T*S    EENTRO =        -0.01375993
  eigenvalues    EBANDS =       -83.88626352
  atomic energy  EATOM  =       871.29613560
  ---------------------------------------------------
  free energy    TOTEN  =       177.77170532 eV

  energy without entropy =      177.78546525  energy(sigma->0) =      177.77858529
  exchange ACFDT corr.  =         0.00000000  see jH, gK, PRB 81, 115126


--------------------------------------------------------------------------------------------------------




----------------------------------------- Iteration    1(   4)  ---------------------------------------


    TRIAL :  cpu time   18.6161: real time   18.6716
    CORREC:  cpu time    0.0001: real time    0.0001
    --------------------------------------------
      LOOP:  cpu time   18.6185: real time   18.6764

 eigenvalue-minimisations  :    80
 total energy-change (2. order) :-0.8606344E+01  (-0.7925841E+01)
 number of electron      30.0000000 magnetization 
 augmentation part       30.0000000 magnetization 

 Free energy of the ion-electron system (eV)
  ---------------------------------------------------
  alpha Z        PSCENC =         0.06769965
  Ewald energy   TEWEN  =      2286.34836289
  -Hartree energ DENC   =     -2895.05169313
  -exchange      EXHF   =         0.00000000
  -V(xc)+E(xc)   XCENC  =         0.00000000
  PAW double counting   =       726.39343035     -727.38220658
  entropy T*S    EENTRO =        -0.00000000
  eigenvalues    EBANDS =       -92.50636698
  atomic energy  EATOM  =       871.29613560
  ---------------------------------------------------
  free energy    TOTEN  =       169.16536179 eV

  energy without entropy =      169.16536179  energy(sigma->0) =      169.16536179
  exchange ACFDT corr.  =         0.00000000  see jH, gK, PRB 81, 115126


--------------------------------------------------------------------------------------------------------




----------------------------------------- Iteration    1(   5)  ---------------------------------------


    TRIAL :  cpu time   18.6176: real time   18.6732
    CORREC:  cpu time    0.0002: real time    0.0002
    CHARGE:  cpu time    3.2453: real time    3.2575
    --------------------------------------------
      LOOP:  cpu time   21.8654: real time   21.9355

 eigenvalue-minimisations  :    80
 total energy-change (2. order) :-0.7806451E+01  (-0.7731844E+01)
 number of electron      30.0000000 magnetization 
 augmentation part       -0.1644615 magnetization 

 Free energy of the ion-electron system (eV)
  ---------------------------------------------------
  alpha Z        PSCENC =         0.06769965
  Ewald energy   TEWEN  =      2286.34836289
  -Hartree energ DENC   =     -2895.05169313
  -exchange      EXHF   =         0.00000000
  -V(xc)+E(xc)   XCENC  =         0.00000000
  PAW double counting   =       726.39343035     -727.38220658
  entropy T*S    EENTRO =        -0.02258007
  eigenvalues    EBANDS =      -100.29023827
  atomic energy  EATOM  =       871.29613560
  ---------------------------------------------------
  free energy    TOTEN  =       161.35891043 eV

  energy without entropy =      161.38149050  energy(sigma->0) =      161.37020046
  exchange ACFDT corr.  =         0.00000000  see jH, gK, PRB 81, 115126


--------------------------------------------------------------------------------------------------------




----------------------------------------- Iteration    1(   6)  ---------------------------------------


    POTLOK:  cpu time   19.2128: real time   19.2595
    SETDIJ:  cpu time    0.0510: real time    0.0511
    TRIAL :  cpu time   59.9580: real time   60.1892
    CORREC:  cpu time   68.1931: real time   68.4453
    CHARGE:  cpu time    3.2294: real time    3.2409
    --------------------------------------------
      LOOP:  cpu time  150.6493: real time  151.1927

 eigenvalue-minimisations  :     0
 total energy-change (2. order) : 0.2112087E+03  (-0.1400407E+03)
 number of electron      30.0000000 magnetization 
 augmentation part       -0.1984801 magnetization 

 Free energy of the ion-electron system (eV)
  ---------------------------------------------------
  alpha Z        PSCENC =         0.06769965
  Ewald energy   TEWEN  =      2286.34836289
  -Hartree energ DENC   =     -1196.58378508
  -exchange      EXHF   =       163.67120874
  -V(xc)+E(xc)   XCENC  =         0.00000000
  PAW double counting   =     16658.79914206   -16659.17934669
  entropy T*S    EENTRO =        -0.00650023
  eigenvalues    EBANDS =     -1751.82923085
  atomic energy  EATOM  =       871.29613560
  ---------------------------------------------------
  free energy    TOTEN  =       372.56760624 eV

  energy without entropy =      372.57410646  energy(sigma->0) =      372.57085635
  exchange ACFDT corr.  =        -1.19087732  see jH, gK, PRB 81, 115126


--------------------------------------------------------------------------------------------------------




----------------------------------------- Iteration    1(   7)  ---------------------------------------


    POTLOK:  cpu time   20.1728: real time   20.2219
    SETDIJ:  cpu time    0.2025: real time    0.2030
    TRIAL :  cpu time   60.6360: real time   60.8656
    CORREC:  cpu time   70.0356: real time   70.2905
    CHARGE:  cpu time    2.9188: real time    2.9294
    --------------------------------------------
      LOOP:  cpu time  153.9705: real time  154.5173

 eigenvalue-minimisations  :     0
 total energy-change (2. order) :-0.9961247E+02  (-0.5216966E+02)
 number of electron      30.0000000 magnetization 
 augmentation part       -0.2216868 magnetization 

 Free energy of the ion-electron system (eV)
  ---------------------------------------------------
  alpha Z        PSCENC =         0.06769965
  Ewald energy   TEWEN  =      2286.34836289
  -Hartree energ DENC   =     -1382.20659816
  -exchange      EXHF   =       182.08590073
  -V(xc)+E(xc)   XCENC  =         0.00000000
  PAW double counting   =     18371.67840894   -18372.20461692
  entropy T*S    EENTRO =        -0.00000000
  eigenvalues    EBANDS =     -1684.10365849
  atomic energy  EATOM  =       871.29613560
  ---------------------------------------------------
  free energy    TOTEN  =       272.95513400 eV

  energy without entropy =      272.95513400  energy(sigma->0) =      272.95513400
  exchange ACFDT corr.  =        -0.30846943  see jH, gK, PRB 81, 115126


--------------------------------------------------------------------------------------------------------




----------------------------------------- Iteration    1(   8)  ---------------------------------------


    POTLOK:  cpu time   20.2672: real time   20.3165
    SETDIJ:  cpu time    0.2038: real time    0.2043
    TRIAL :  cpu time   53.2923: real time   53.5086
    CORREC:  cpu time   70.2243: real time   70.4813
    CHARGE:  cpu time    2.9238: real time    2.9347
    --------------------------------------------
      LOOP:  cpu time  146.9619: real time  147.4987

 eigenvalue-minimisations  :     0
 total energy-change (2. order) :-0.4046329E+02  (-0.3559775E+02)
 number of electron      30.0000000 magnetization 
 augmentation part       -0.2473196 magnetization 

 Free energy of the ion-electron system (eV)
  ---------------------------------------------------
  alpha Z        PSCENC =         0.06769965
  Ewald energy   TEWEN  =      2286.34836289
  -Hartree energ DENC   =     -1493.82153061
  -exchange      EXHF   =       192.57250545
  -V(xc)+E(xc)   XCENC  =         0.00000000
  PAW double counting   =     18487.50636965   -18488.14838826
  entropy T*S    EENTRO =        -0.00000000
  eigenvalues    EBANDS =     -1623.32930856
  atomic energy  EATOM  =       871.29613560
  ---------------------------------------------------
  free energy    TOTEN  =       232.49184580 eV

  energy without entropy =      232.49184580  energy(sigma->0) =      232.49184580
  exchange ACFDT corr.  =        -0.00000000  see jH, gK, PRB 81, 115126


--------------------------------------------------------------------------------------------------------




----------------------------------------- Iteration    1(   9)  ---------------------------------------


    POTLOK:  cpu time   20.2797: real time   20.3290
    SETDIJ:  cpu time    0.2033: real time    0.2038
    TRIAL :  cpu time   53.2522: real time   53.4683
    CORREC:  cpu time   70.2489: real time   70.5070
    CHARGE:  cpu time    2.9176: real time    2.9286
    --------------------------------------------
      LOOP:  cpu time  146.9520: real time  147.4901

 eigenvalue-minimisations  :     0
 total energy-change (2. order) :-0.3289976E+02  (-0.4428548E+02)
 number of electron      30.0000000 magnetization 
 augmentation part       -0.2822502 magnetization 

 Free energy of the ion-electron system (eV)
  ---------------------------------------------------
  alpha Z        PSCENC =         0.06769965
  Ewald energy   TEWEN  =      2286.34836289
  -Hartree energ DENC   =     -1631.56727327
  -exchange      EXHF   =       201.29252128
  -V(xc)+E(xc)   XCENC  =         0.00000000
  PAW double counting   =     17269.31264924   -17270.09348556
  entropy T*S    EENTRO =        -0.00000000
  eigenvalues    EBANDS =     -1527.06452872
  atomic energy  EATOM  =       871.29613560
  ---------------------------------------------------
  free energy    TOTEN  =       199.59208111 eV

  energy without entropy =      199.59208111  energy(sigma->0) =      199.59208111
  exchange ACFDT corr.  =         0.00000000  see jH, gK, PRB 81, 115126


--------------------------------------------------------------------------------------------------------




----------------------------------------- Iteration    1(  10)  ---------------------------------------


    POTLOK:  cpu time   20.2707: real time   20.3200
    SETDIJ:  cpu time    0.2115: real time    0.2120
    TRIAL :  cpu time   53.1511: real time   53.3650
    CORREC:  cpu time   70.3546: real time   70.6111
    CHARGE:  cpu time    2.9160: real time    2.9267
    --------------------------------------------
      LOOP:  cpu time  146.9569: real time  147.4903

 eigenvalue-minimisations  :     0
 total energy-change (2. order) :-0.4250443E+02  (-0.5032803E+02)
 number of electron      30.0000000 magnetization 
 augmentation part       -0.3093898 magnetization 

 Free energy of the ion-electron system (eV)
  ---------------------------------------------------
  alpha Z        PSCENC =         0.06769965
  Ewald energy   TEWEN  =      2286.34836289
  -Hartree energ DENC   =     -1864.92181261
  -exchange      EXHF   =       211.22462250
  -V(xc)+E(xc)   XCENC  =         0.00000000
  PAW double counting   =     15334.07573764   -15335.01994766
  entropy T*S    EENTRO =        -0.00000000
  eigenvalues    EBANDS =     -1345.98314391
  atomic energy  EATOM  =       871.29613560
  ---------------------------------------------------
  free energy    TOTEN  =       157.08765409 eV

  energy without entropy =      157.08765409  energy(sigma->0) =      157.08765409
  exchange ACFDT corr.  =         0.00000000  see jH, gK, PRB 81, 115126


--------------------------------------------------------------------------------------------------------




----------------------------------------- Iteration    1(  11)  ---------------------------------------


    POTLOK:  cpu time   20.2936: real time   20.3429
    SETDIJ:  cpu time    0.2033: real time    0.2038
    TRIAL :  cpu time   53.1309: real time   53.3457
    CORREC:  cpu time   70.3922: real time   70.6496
    CHARGE:  cpu time    2.9162: real time    2.9269
    --------------------------------------------
      LOOP:  cpu time  146.9868: real time  147.5225

 eigenvalue-minimisations  :     0
 total energy-change (2. order) :-0.4422663E+02  (-0.4589625E+02)
 number of electron      30.0000000 magnetization 
 augmentation part       -0.3183150 magnetization 

 Free energy of the ion-electron system (eV)
  ---------------------------------------------------
  alpha Z        PSCENC =         0.06769965
  Ewald energy   TEWEN  =      2286.34836289
  -Hartree energ DENC   =     -2103.75396662
  -exchange      EXHF   =       220.37353853
  -V(xc)+E(xc)   XCENC  =         0.00000000
  PAW double counting   =     14999.08570686   -15000.12172612
  entropy T*S    EENTRO =        -0.00000000
  eigenvalues    EBANDS =     -1160.43472385
  atomic energy  EATOM  =       871.29613560
  ---------------------------------------------------
  free energy    TOTEN  =       112.86102692 eV

  energy without entropy =      112.86102692  energy(sigma->0) =      112.86102692
  exchange ACFDT corr.  =         0.00000000  see jH, gK, PRB 81, 115126


--------------------------------------------------------------------------------------------------------




----------------------------------------- Iteration    1(  12)  ---------------------------------------


    POTLOK:  cpu time   20.2943: real time   20.3436
    SETDIJ:  cpu time    0.2037: real time    0.2042
    TRIAL :  cpu time   53.2039: real time   53.4191
    CORREC:  cpu time   70.4388: real time   70.6973
    CHARGE:  cpu time    2.9125: real time    2.9233
    --------------------------------------------
      LOOP:  cpu time  147.1044: real time  147.6414

 eigenvalue-minimisations  :     0
 total energy-change (2. order) :-0.4221468E+02  (-0.3564787E+02)
 number of electron      30.0000000 magnetization 
 augmentation part       -0.3076133 magnetization 

 Free energy of the ion-electron system (eV)
  ---------------------------------------------------
  alpha Z        PSCENC =         0.06769965
  Ewald energy   TEWEN  =      2286.34836289
  -Hartree energ DENC   =     -2267.33496159
  -exchange      EXHF   =       225.97580685
  -V(xc)+E(xc)   XCENC  =         0.00000000
  PAW double counting   =     16181.95259565   -16182.97089832
  entropy T*S    EENTRO =        -0.00000000
  eigenvalues    EBANDS =     -1044.68839462
  atomic energy  EATOM  =       871.29613560
  ---------------------------------------------------
  free energy    TOTEN  =        70.64634609 eV

  energy without entropy =       70.64634609  energy(sigma->0) =       70.64634609
  exchange ACFDT corr.  =         0.00000000  see jH, gK, PRB 81, 115126


--------------------------------------------------------------------------------------------------------




----------------------------------------- Iteration    1(  13)  ---------------------------------------


    POTLOK:  cpu time   20.2925: real time   20.3418
    SETDIJ:  cpu time    0.2050: real time    0.2055
    TRIAL :  cpu time   53.0623: real time   53.2771
    CORREC:  cpu time   70.0012: real time   70.2576
    CHARGE:  cpu time    2.9177: real time    2.9284
    --------------------------------------------
      LOOP:  cpu time  146.5322: real time  147.0668

 eigenvalue-minimisations  :     0
 total energy-change (2. order) :-0.3694502E+02  (-0.3843639E+02)
 number of electron      30.0000000 magnetization 
 augmentation part       -0.2801046 magnetization 

 Free energy of the ion-electron system (eV)
  ---------------------------------------------------
  alpha Z        PSCENC =         0.06769965
  Ewald energy   TEWEN  =      2286.34836289
  -Hartree energ DENC   =     -2388.30053999
  -exchange      EXHF   =       230.39327113
  -V(xc)+E(xc)   XCENC  =         0.00000000
  PAW double counting   =     18942.45699710   -18943.38909786
  entropy T*S    EENTRO =         0.00000000
  eigenvalues    EBANDS =      -965.17150105
  atomic energy  EATOM  =       871.29613560
  ---------------------------------------------------
  free energy    TOTEN  =        33.70132746 eV

  energy without entropy =       33.70132746  energy(sigma->0) =       33.70132746
  exchange ACFDT corr.  =         0.00000000  see jH, gK, PRB 81, 115126


--------------------------------------------------------------------------------------------------------




----------------------------------------- Iteration    1(  14)  ---------------------------------------


    POTLOK:  cpu time   20.2873: real time   20.3367
    SETDIJ:  cpu time    0.2117: real time    0.2123
    TRIAL :  cpu time   53.1849: real time   53.3986
    CORREC:  cpu time   70.1683: real time   70.4245
    CHARGE:  cpu time    2.9296: real time    2.9405
    --------------------------------------------
      LOOP:  cpu time  146.8343: real time  147.3678

 eigenvalue-minimisations  :     0
 total energy-change (2. order) :-0.4249574E+02  (-0.2539868E+02)
 number of electron      30.0000000 magnetization 
 augmentation part       -0.2529862 magnetization 

 Free energy of the ion-electron system (eV)
  ---------------------------------------------------
  alpha Z        PSCENC =         0.06769965
  Ewald energy   TEWEN  =      2286.34836289
  -Hartree energ DENC   =     -2578.72708772
  -exchange      EXHF   =       243.40405622
  -V(xc)+E(xc)   XCENC  =         0.00000000
  PAW double counting   =     26379.10118816   -26379.95172481
  entropy T*S    EENTRO =         0.00000000
  eigenvalues    EBANDS =      -830.33304030
  atomic energy  EATOM  =       871.29613560
  ---------------------------------------------------
  free energy    TOTEN  =        -8.79441031 eV

  energy without entropy =       -8.79441031  energy(sigma->0) =       -8.79441031
  exchange ACFDT corr.  =         0.00000000  see jH, gK, PRB 81, 115126


--------------------------------------------------------------------------------------------------------




----------------------------------------- Iteration    1(  15)  ---------------------------------------


    POTLOK:  cpu time   20.3005: real time   20.3498
    SETDIJ:  cpu time    0.2038: real time    0.2042
    TRIAL :  cpu time   53.5200: real time   53.7464
    CORREC:  cpu time   70.2603: real time   70.5180
    CHARGE:  cpu time    2.9107: real time    2.9217
    --------------------------------------------
      LOOP:  cpu time  147.2476: real time  147.7956

 eigenvalue-minimisations  :     0
 total energy-change (2. order) :-0.2771597E+02  (-0.2221526E+02)
 number of electron      30.0000000 magnetization 
 augmentation part       -0.2205998 magnetization 

 Free energy of the ion-electron system (eV)
  ---------------------------------------------------
  alpha Z        PSCENC =         0.06769965
  Ewald energy   TEWEN  =      2286.34836289
  -Hartree energ DENC   =     -2712.60602972
  -exchange      EXHF   =       257.07007366
  -V(xc)+E(xc)   XCENC  =         0.00000000
  PAW double counting   =     33995.25609216   -33996.08866013
  entropy T*S    EENTRO =        -0.00000000
  eigenvalues    EBANDS =      -737.85405294
  atomic energy  EATOM  =       871.29613560
  ---------------------------------------------------
  free energy    TOTEN  =       -36.51037885 eV

  energy without entropy =      -36.51037885  energy(sigma->0) =      -36.51037885
  exchange ACFDT corr.  =         0.00000000  see jH, gK, PRB 81, 115126


--------------------------------------------------------------------------------------------------------




----------------------------------------- Iteration    1(  16)  ---------------------------------------


    POTLOK:  cpu time   20.3030: real time   20.3523
    SETDIJ:  cpu time    0.2036: real time    0.2041
    TRIAL :  cpu time   53.5639: real time   53.7785
    CORREC:  cpu time   70.2006: real time   70.4589
    CHARGE:  cpu time    2.9103: real time    2.9213
    --------------------------------------------
      LOOP:  cpu time  147.2352: real time  147.7713

 eigenvalue-minimisations  :     0
 total energy-change (2. order) :-0.2519494E+02  (-0.1855063E+02)
 number of electron      30.0000000 magnetization 
 augmentation part       -0.1595418 magnetization 

 Free energy of the ion-electron system (eV)
  ---------------------------------------------------
  alpha Z        PSCENC =         0.06769965
  Ewald energy   TEWEN  =      2286.34836289
  -Hartree energ DENC   =     -2827.70947122
  -exchange      EXHF   =       271.39013690
  -V(xc)+E(xc)   XCENC  =         0.00000000
  PAW double counting   =     41255.46924195   -41256.32075642
  entropy T*S    EENTRO =        -0.00000000
  eigenvalues    EBANDS =      -662.24667259
  atomic energy  EATOM  =       871.29613560
  ---------------------------------------------------
  free energy    TOTEN  =       -61.70532325 eV

  energy without entropy =      -61.70532325  energy(sigma->0) =      -61.70532325
  exchange ACFDT corr.  =        -0.00000000  see jH, gK, PRB 81, 115126


--------------------------------------------------------------------------------------------------------




----------------------------------------- Iteration    1(  17)  ---------------------------------------


    POTLOK:  cpu time   20.3223: real time   20.3718
    SETDIJ:  cpu time    0.2036: real time    0.2041
    TRIAL :  cpu time   53.2029: real time   53.4177
    CORREC:  cpu time   70.2595: real time   70.5164
    CHARGE:  cpu time    2.9120: real time    2.9228
    --------------------------------------------
      LOOP:  cpu time  146.9484: real time  147.4835

 eigenvalue-minimisations  :     0
 total energy-change (2. order) :-0.4113402E+02  (-0.1360803E+02)
 number of electron      30.0000000 magnetization 
 augmentation part       -0.1225091 magnetization 

 Free energy of the ion-electron system (eV)
  ---------------------------------------------------
  alpha Z        PSCENC =         0.06769965
  Ewald energy   TEWEN  =      2286.34836289
  -Hartree energ DENC   =     -2994.21284190
  -exchange      EXHF   =       300.09138071
  -V(xc)+E(xc)   XCENC  =         0.00000000
  PAW double counting   =     52869.09273524   -52870.00045818
  entropy T*S    EENTRO =        -0.00000000
  eigenvalues    EBANDS =      -565.52235679
  atomic energy  EATOM  =       871.29613560
  ---------------------------------------------------
  free energy    TOTEN  =      -102.83934279 eV

  energy without entropy =     -102.83934279  energy(sigma->0) =     -102.83934279
  exchange ACFDT corr.  =        -0.00000000  see jH, gK, PRB 81, 115126


--------------------------------------------------------------------------------------------------------




----------------------------------------- Iteration    1(  18)  ---------------------------------------


    POTLOK:  cpu time   20.3213: real time   20.3707
    SETDIJ:  cpu time    0.2057: real time    0.2062
    TRIAL :  cpu time   53.5462: real time   53.7618
    CORREC:  cpu time   70.2946: real time   70.5533
    CHARGE:  cpu time    2.9145: real time    2.9255
    --------------------------------------------
      LOOP:  cpu time  147.3301: real time  147.8680

 eigenvalue-minimisations  :     0
 total energy-change (2. order) :-0.1518113E+02  (-0.6106822E+01)
 number of electron      30.0000000 magnetization 
 augmentation part       -0.0765645 magnetization 

 Free energy of the ion-electron system (eV)
  ---------------------------------------------------
  alpha Z        PSCENC =         0.06769965
  Ewald energy   TEWEN  =      2286.34836289
  -Hartree energ DENC   =     -3004.87395407
  -exchange      EXHF   =       303.26517739
  -V(xc)+E(xc)   XCENC  =         0.00000000
  PAW double counting   =     45423.75365049   -45424.65143027
  entropy T*S    EENTRO =        -0.00000000
  eigenvalues    EBANDS =      -573.22611445
  atomic energy  EATOM  =       871.29613560
  ---------------------------------------------------
  free energy    TOTEN  =      -118.02047276 eV

  energy without entropy =     -118.02047276  energy(sigma->0) =     -118.02047276
  exchange ACFDT corr.  =        -0.00000000  see jH, gK, PRB 81, 115126


--------------------------------------------------------------------------------------------------------




----------------------------------------- Iteration    1(  19)  ---------------------------------------


    POTLOK:  cpu time   20.3300: real time   20.3795
    SETDIJ:  cpu time    0.2029: real time    0.2034
    TRIAL :  cpu time   53.5382: real time   53.7533
    CORREC:  cpu time   70.1933: real time   70.4503
    CHARGE:  cpu time    2.9055: real time    2.9162
    --------------------------------------------
      LOOP:  cpu time  147.2212: real time  147.7569

 eigenvalue-minimisations  :     0
 total energy-change (2. order) :-0.6379021E+01  (-0.1663119E+01)
 number of electron      30.0000000 magnetization 
 augmentation part       -0.0527679 magnetization 

 Free energy of the ion-electron system (eV)
  ---------------------------------------------------
  alpha Z        PSCENC =         0.06769965
  Ewald energy   TEWEN  =      2286.34836289
  -Hartree energ DENC   =     -3043.56303234
  -exchange      EXHF   =       309.28149826
  -V(xc)+E(xc)   XCENC  =         0.00000000
  PAW double counting   =     38180.13964033   -38181.10197250
  entropy T*S    EENTRO =        -0.00000000
  eigenvalues    EBANDS =      -546.86782612
  atomic energy  EATOM  =       871.29613560
  ---------------------------------------------------
  free energy    TOTEN  =      -124.39949425 eV

  energy without entropy =     -124.39949425  energy(sigma->0) =     -124.39949425
  exchange ACFDT corr.  =         0.00000000  see jH, gK, PRB 81, 115126


--------------------------------------------------------------------------------------------------------




----------------------------------------- Iteration    1(  20)  ---------------------------------------


    POTLOK:  cpu time   20.3353: real time   20.3847
    SETDIJ:  cpu time    0.2035: real time    0.2040
    TRIAL :  cpu time   53.4514: real time   53.6865
    CORREC:  cpu time   70.4215: real time   70.6800
    CHARGE:  cpu time    2.9000: real time    2.9109
    --------------------------------------------
      LOOP:  cpu time  147.3601: real time  147.9171

 eigenvalue-minimisations  :     0
 total energy-change (2. order) :-0.1703566E+01  (-0.4165798E+00)
 number of electron      30.0000000 magnetization 
 augmentation part       -0.0470541 magnetization 

 Free energy of the ion-electron system (eV)
  ---------------------------------------------------
  alpha Z        PSCENC =         0.06769965
  Ewald energy   TEWEN  =      2286.34836289
  -Hartree energ DENC   =     -3045.10067189
  -exchange      EXHF   =       310.10383408
  -V(xc)+E(xc)   XCENC  =         0.00000000
  PAW double counting   =     35384.05875332   -35385.04115409
  entropy T*S    EENTRO =        -0.00000000
  eigenvalues    EBANDS =      -547.83601960
  atomic energy  EATOM  =       871.29613560
  ---------------------------------------------------
  free energy    TOTEN  =      -126.10306004 eV

  energy without entropy =     -126.10306004  energy(sigma->0) =     -126.10306004
  exchange ACFDT corr.  =         0.00000000  see jH, gK, PRB 81, 115126


--------------------------------------------------------------------------------------------------------




----------------------------------------- Iteration    1(  21)  ---------------------------------------


    POTLOK:  cpu time   20.3366: real time   20.3860
    SETDIJ:  cpu time    0.2033: real time    0.2038
    TRIAL :  cpu time   53.3853: real time   53.5994
    CORREC:  cpu time   70.2786: real time   70.5347
    CHARGE:  cpu time    2.9000: real time    2.9109
    --------------------------------------------
      LOOP:  cpu time  147.1551: real time  147.6888

 eigenvalue-minimisations  :     0
 total energy-change (2. order) :-0.4236234E+00  (-0.1115103E+00)
 number of electron      30.0000000 magnetization 
 augmentation part       -0.0464771 magnetization 

 Free energy of the ion-electron system (eV)
  ---------------------------------------------------
  alpha Z        PSCENC =         0.06769965
  Ewald energy   TEWEN  =      2286.34836289
  -Hartree energ DENC   =     -3040.25865031
  -exchange      EXHF   =       309.67946621
  -V(xc)+E(xc)   XCENC  =         0.00000000
  PAW double counting   =     35502.36910967   -35503.34567680
  entropy T*S    EENTRO =        -0.00000000
  eigenvalues    EBANDS =      -552.68313033
  atomic energy  EATOM  =       871.29613560
  ---------------------------------------------------
  free energy    TOTEN  =      -126.52668344 eV

  energy without entropy =     -126.52668344  energy(sigma->0) =     -126.52668344
  exchange ACFDT corr.  =         0.00000000  see jH, gK, PRB 81, 115126


--------------------------------------------------------------------------------------------------------




----------------------------------------- Iteration    1(  22)  ---------------------------------------


    POTLOK:  cpu time   20.3388: real time   20.3882
    SETDIJ:  cpu time    0.2039: real time    0.2043
    TRIAL :  cpu time   53.5824: real time   53.7972
    CORREC:  cpu time   70.2393: real time   70.4981
    CHARGE:  cpu time    2.8945: real time    2.9054
    --------------------------------------------
      LOOP:  cpu time  147.3077: real time  147.8448

 eigenvalue-minimisations  :     0
 total energy-change (2. order) :-0.1125815E+00  (-0.3159535E-01)
 number of electron      30.0000000 magnetization 
 augmentation part       -0.0467301 magnetization 

 Free energy of the ion-electron system (eV)
  ---------------------------------------------------
  alpha Z        PSCENC =         0.06769965
  Ewald energy   TEWEN  =      2286.34836289
  -Hartree energ DENC   =     -3042.28226929
  -exchange      EXHF   =       309.94842401
  -V(xc)+E(xc)   XCENC  =         0.00000000
  PAW double counting   =     36212.60146007   -36213.57455507
  entropy T*S    EENTRO =        -0.00000000
  eigenvalues    EBANDS =      -551.04452276
  atomic energy  EATOM  =       871.29613560
  ---------------------------------------------------
  free energy    TOTEN  =      -126.63926492 eV

  energy without entropy =     -126.63926492  energy(sigma->0) =     -126.63926492
  exchange ACFDT corr.  =         0.00000000  see jH, gK, PRB 81, 115126


--------------------------------------------------------------------------------------------------------




----------------------------------------- Iteration    1(  23)  ---------------------------------------


    POTLOK:  cpu time   20.3409: real time   20.3904
    SETDIJ:  cpu time    0.2036: real time    0.2040
    TRIAL :  cpu time   53.2556: real time   53.4704
    CORREC:  cpu time   70.0719: real time   70.3287
    CHARGE:  cpu time    2.9023: real time    2.9129
    --------------------------------------------
      LOOP:  cpu time  146.8238: real time  147.3587

 eigenvalue-minimisations  :     0
 total energy-change (2. order) :-0.3174832E-01  (-0.9159007E-02)
 number of electron      30.0000000 magnetization 
 augmentation part       -0.0467379 magnetization 

 Free energy of the ion-electron system (eV)
  ---------------------------------------------------
  alpha Z        PSCENC =         0.06769965
  Ewald energy   TEWEN  =      2286.34836289
  -Hartree energ DENC   =     -3040.74242726
  -exchange      EXHF   =       309.82104202
  -V(xc)+E(xc)   XCENC  =         0.00000000
  PAW double counting   =     36495.97339124   -36496.94248451
  entropy T*S    EENTRO =        -0.00000000
  eigenvalues    EBANDS =      -552.49273287
  atomic energy  EATOM  =       871.29613560
  ---------------------------------------------------
  free energy    TOTEN  =      -126.67101324 eV

  energy without entropy =     -126.67101324  energy(sigma->0) =     -126.67101324
  exchange ACFDT corr.  =         0.00000000  see jH, gK, PRB 81, 115126


--------------------------------------------------------------------------------------------------------




----------------------------------------- Iteration    1(  24)  ---------------------------------------


    POTLOK:  cpu time   20.2542: real time   20.3035
    SETDIJ:  cpu time    0.2026: real time    0.2031
    TRIAL :  cpu time   53.2744: real time   53.4883
    CORREC:  cpu time   69.9702: real time   70.2266
    CHARGE:  cpu time    2.9035: real time    2.9143
    --------------------------------------------
      LOOP:  cpu time  146.6574: real time  147.1906

 eigenvalue-minimisations  :     0
 total energy-change (2. order) :-0.9176188E-02  (-0.2629862E-02)
 number of electron      30.0000000 magnetization 
 augmentation part       -0.0467411 magnetization 

 Free energy of the ion-electron system (eV)
  ---------------------------------------------------
  alpha Z        PSCENC =         0.06769965
  Ewald energy   TEWEN  =      2286.34836289
  -Hartree energ DENC   =     -3041.13949917
  -exchange      EXHF   =       309.88034342
  -V(xc)+E(xc)   XCENC  =         0.00000000
  PAW double counting   =     36486.46576088   -36487.43462525
  entropy T*S    EENTRO =        -0.00000000
  eigenvalues    EBANDS =      -552.16436744
  atomic energy  EATOM  =       871.29613560
  ---------------------------------------------------
  free energy    TOTEN  =      -126.68018943 eV

  energy without entropy =     -126.68018943  energy(sigma->0) =     -126.68018943
  exchange ACFDT corr.  =         0.00000000  see jH, gK, PRB 81, 115126


--------------------------------------------------------------------------------------------------------




----------------------------------------- Iteration    1(  25)  ---------------------------------------


    POTLOK:  cpu time   19.8685: real time   19.9168
    SETDIJ:  cpu time    0.2041: real time    0.2046
    TRIAL :  cpu time   53.3465: real time   53.5608
    CORREC:  cpu time   69.2653: real time   69.5201
    CHARGE:  cpu time    2.9047: real time    2.9157
    --------------------------------------------
      LOOP:  cpu time  145.6400: real time  146.1715

 eigenvalue-minimisations  :     0
 total energy-change (2. order) :-0.2630293E-02  (-0.8335200E-03)
 number of electron      30.0000000 magnetization 
 augmentation part       -0.0467687 magnetization 

 Free energy of the ion-electron system (eV)
  ---------------------------------------------------
  alpha Z        PSCENC =         0.06769965
  Ewald energy   TEWEN  =      2286.34836289
  -Hartree energ DENC   =     -3041.55423946
  -exchange      EXHF   =       309.92642167
  -V(xc)+E(xc)   XCENC  =         0.00000000
  PAW double counting   =     36390.93397970   -36391.90342772
  entropy T*S    EENTRO =        -0.00000000
  eigenvalues    EBANDS =      -551.79775206
  atomic energy  EATOM  =       871.29613560
  ---------------------------------------------------
  free energy    TOTEN  =      -126.68281972 eV

  energy without entropy =     -126.68281972  energy(sigma->0) =     -126.68281972
  exchange ACFDT corr.  =         0.00000000  see jH, gK, PRB 81, 115126


--------------------------------------------------------------------------------------------------------




----------------------------------------- Iteration    1(  26)  ---------------------------------------


    POTLOK:  cpu time   19.3159: real time   19.3628
    SETDIJ:  cpu time    0.2035: real time    0.2040
    TRIAL :  cpu time   53.2448: real time   53.4590
    CORREC:  cpu time   68.7336: real time   68.9879
    CHARGE:  cpu time    2.9147: real time    2.9256
    --------------------------------------------
      LOOP:  cpu time  144.4661: real time  144.9960

 eigenvalue-minimisations  :     0
 total energy-change (2. order) :-0.8336738E-03  (-0.3083207E-03)
 number of electron      30.0000000 magnetization 
 augmentation part       -0.0467753 magnetization 

 Free energy of the ion-electron system (eV)
  ---------------------------------------------------
  alpha Z        PSCENC =         0.06769965
  Ewald energy   TEWEN  =      2286.34836289
  -Hartree energ DENC   =     -3041.40651463
  -exchange      EXHF   =       309.90671747
  -V(xc)+E(xc)   XCENC  =         0.00000000
  PAW double counting   =     36325.31201275   -36326.28156605
  entropy T*S    EENTRO =        -0.00000000
  eigenvalues    EBANDS =      -551.92650107
  atomic energy  EATOM  =       871.29613560
  ---------------------------------------------------
  free energy    TOTEN  =      -126.68365340 eV

  energy without entropy =     -126.68365340  energy(sigma->0) =     -126.68365340
  exchange ACFDT corr.  =         0.00000000  see jH, gK, PRB 81, 115126


--------------------------------------------------------------------------------------------------------




----------------------------------------- Iteration    1(  27)  ---------------------------------------


    POTLOK:  cpu time   18.9533: real time   18.9994
    SETDIJ:  cpu time    0.2039: real time    0.2044
    TRIAL :  cpu time   53.1951: real time   53.4079
    CORREC:  cpu time   68.4757: real time   68.7265
    CHARGE:  cpu time    2.9098: real time    2.9207
    --------------------------------------------
      LOOP:  cpu time  143.7862: real time  144.3100

 eigenvalue-minimisations  :     0
 total energy-change (2. order) :-0.3083367E-03  (-0.1384623E-03)
 number of electron      30.0000000 magnetization 
 augmentation part       -0.0467680 magnetization 

 Free energy of the ion-electron system (eV)
  ---------------------------------------------------
  alpha Z        PSCENC =         0.06769965
  Ewald energy   TEWEN  =      2286.34836289
  -Hartree energ DENC   =     -3041.38943462
  -exchange      EXHF   =       309.90230905
  -V(xc)+E(xc)   XCENC  =         0.00000000
  PAW double counting   =     36302.60191380   -36303.57157339
  entropy T*S    EENTRO =        -0.00000000
  eigenvalues    EBANDS =      -551.93937469
  atomic energy  EATOM  =       871.29613560
  ---------------------------------------------------
  free energy    TOTEN  =      -126.68396173 eV

  energy without entropy =     -126.68396173  energy(sigma->0) =     -126.68396173
  exchange ACFDT corr.  =        -0.00000000  see jH, gK, PRB 81, 115126


--------------------------------------------------------------------------------------------------------




----------------------------------------- Iteration    1(  28)  ---------------------------------------


    POTLOK:  cpu time   18.7240: real time   18.7696
    SETDIJ:  cpu time    0.2030: real time    0.2035
    TRIAL :  cpu time   53.1185: real time   53.3330
    CORREC:  cpu time   68.6028: real time   68.8557
    CHARGE:  cpu time    2.9122: real time    2.9231
    --------------------------------------------
      LOOP:  cpu time  143.6089: real time  144.1360

 eigenvalue-minimisations  :     0
 total energy-change (2. order) :-0.1386940E-03  (-0.6491415E-04)
 number of electron      30.0000000 magnetization 
 augmentation part       -0.0467648 magnetization 

 Free energy of the ion-electron system (eV)
  ---------------------------------------------------
  alpha Z        PSCENC =         0.06769965
  Ewald energy   TEWEN  =      2286.34836289
  -Hartree energ DENC   =     -3041.45279774
  -exchange      EXHF   =       309.90850222
  -V(xc)+E(xc)   XCENC  =         0.00000000
  PAW double counting   =     36302.22479288   -36303.19453771
  entropy T*S    EENTRO =        -0.00000000
  eigenvalues    EBANDS =      -551.88225820
  atomic energy  EATOM  =       871.29613560
  ---------------------------------------------------
  free energy    TOTEN  =      -126.68410043 eV

  energy without entropy =     -126.68410043  energy(sigma->0) =     -126.68410043
  exchange ACFDT corr.  =         0.00000000  see jH, gK, PRB 81, 115126


--------------------------------------------------------------------------------------------------------




----------------------------------------- Iteration    1(  29)  ---------------------------------------


    POTLOK:  cpu time   18.6574: real time   18.7028
    SETDIJ:  cpu time    0.2028: real time    0.2033
    TRIAL :  cpu time   53.1972: real time   53.4110
    CORREC:  cpu time   68.4101: real time   68.6631
    CHARGE:  cpu time    2.9004: real time    2.9113
    --------------------------------------------
      LOOP:  cpu time  143.4198: real time  143.9460

 eigenvalue-minimisations  :     0
 total energy-change (2. order) :-0.6492861E-04  (-0.3179792E-04)
 number of electron      30.0000000 magnetization 
 augmentation part       -0.0467595 magnetization 

 Free energy of the ion-electron system (eV)
  ---------------------------------------------------
  alpha Z        PSCENC =         0.06769965
  Ewald energy   TEWEN  =      2286.34836289
  -Hartree energ DENC   =     -3041.44426296
  -exchange      EXHF   =       309.90780025
  -V(xc)+E(xc)   XCENC  =         0.00000000
  PAW double counting   =     36307.34554667   -36308.31525968
  entropy T*S    EENTRO =        -0.00000000
  eigenvalues    EBANDS =      -551.89018777
  atomic energy  EATOM  =       871.29613560
  ---------------------------------------------------
  free energy    TOTEN  =      -126.68416536 eV

  energy without entropy =     -126.68416536  energy(sigma->0) =     -126.68416536
  exchange ACFDT corr.  =         0.00000000  see jH, gK, PRB 81, 115126


--------------------------------------------------------------------------------------------------------




----------------------------------------- Iteration    1(  30)  ---------------------------------------


    POTLOK:  cpu time   18.6486: real time   18.6940
    SETDIJ:  cpu time    0.2032: real time    0.2037
    TRIAL :  cpu time   53.2211: real time   53.4372
    CORREC:  cpu time   68.6543: real time   68.9063
    CHARGE:  cpu time    2.9077: real time    2.9187
    --------------------------------------------
      LOOP:  cpu time  143.6838: real time  144.2109

 eigenvalue-minimisations  :     0
 total energy-change (2. order) :-0.3179689E-04  (-0.1471851E-04)
 number of electron      30.0000000 magnetization 
 augmentation part       -0.0467532 magnetization 

 Free energy of the ion-electron system (eV)
  ---------------------------------------------------
  alpha Z        PSCENC =         0.06769965
  Ewald energy   TEWEN  =      2286.34836289
  -Hartree energ DENC   =     -3041.42458438
  -exchange      EXHF   =       309.90594806
  -V(xc)+E(xc)   XCENC  =         0.00000000
  PAW double counting   =     36308.11032678   -36309.07998999
  entropy T*S    EENTRO =        -0.00000000
  eigenvalues    EBANDS =      -551.90809575
  atomic energy  EATOM  =       871.29613560
  ---------------------------------------------------
  free energy    TOTEN  =      -126.68419715 eV

  energy without entropy =     -126.68419715  energy(sigma->0) =     -126.68419715
  exchange ACFDT corr.  =         0.00000000  see jH, gK, PRB 81, 115126


--------------------------------------------------------------------------------------------------------




----------------------------------------- Iteration    1(  31)  ---------------------------------------


    POTLOK:  cpu time   18.5949: real time   18.6401
    SETDIJ:  cpu time    0.2040: real time    0.2045
    TRIAL :  cpu time   53.3174: real time   53.5337
    CORREC:  cpu time   68.4112: real time   68.6642
    CHARGE:  cpu time    2.9102: real time    2.9209
    --------------------------------------------
      LOOP:  cpu time  143.4893: real time  144.0182

 eigenvalue-minimisations  :     0
 total energy-change (2. order) :-0.1472089E-04  (-0.6859033E-05)
 number of electron      30.0000000 magnetization 
 augmentation part       -0.0467533 magnetization 

 Free energy of the ion-electron system (eV)
  ---------------------------------------------------
  alpha Z        PSCENC =         0.06769965
  Ewald energy   TEWEN  =      2286.34836289
  -Hartree energ DENC   =     -3041.43656648
  -exchange      EXHF   =       309.90737948
  -V(xc)+E(xc)   XCENC  =         0.00000000
  PAW double counting   =     36304.49071197   -36305.46036983
  entropy T*S    EENTRO =        -0.00000000
  eigenvalues    EBANDS =      -551.89756515
  atomic energy  EATOM  =       871.29613560
  ---------------------------------------------------
  free energy    TOTEN  =      -126.68421187 eV

  energy without entropy =     -126.68421187  energy(sigma->0) =     -126.68421187
  exchange ACFDT corr.  =         0.00000000  see jH, gK, PRB 81, 115126


--------------------------------------------------------------------------------------------------------




----------------------------------------- Iteration    1(  32)  ---------------------------------------


    POTLOK:  cpu time   18.5906: real time   18.6358
    SETDIJ:  cpu time    0.2040: real time    0.2045
    TRIAL :  cpu time   53.2623: real time   53.4766
    CORREC:  cpu time   68.4623: real time   68.7155
    CHARGE:  cpu time    2.9008: real time    2.9116
    --------------------------------------------
      LOOP:  cpu time  143.4699: real time  143.9962

 eigenvalue-minimisations  :     0
 total energy-change (2. order) :-0.6857437E-05  (-0.2742868E-05)
 number of electron      30.0000000 magnetization 
 augmentation part       -0.0467557 magnetization 

 Free energy of the ion-electron system (eV)
  ---------------------------------------------------
  alpha Z        PSCENC =         0.06769965
  Ewald energy   TEWEN  =      2286.34836289
  -Hartree energ DENC   =     -3041.43586825
  -exchange      EXHF   =       309.90727051
  -V(xc)+E(xc)   XCENC  =         0.00000000
  PAW double counting   =     36300.43572541   -36301.40537911
  entropy T*S    EENTRO =        -0.00000000
  eigenvalues    EBANDS =      -551.89816541
  atomic energy  EATOM  =       871.29613560
  ---------------------------------------------------
  free energy    TOTEN  =      -126.68421873 eV

  energy without entropy =     -126.68421873  energy(sigma->0) =     -126.68421873
  exchange ACFDT corr.  =         0.00000000  see jH, gK, PRB 81, 115126


--------------------------------------------------------------------------------------------------------




----------------------------------------- Iteration    1(  33)  ---------------------------------------


    POTLOK:  cpu time   18.5885: real time   18.6337
    SETDIJ:  cpu time    0.2035: real time    0.2040
    TRIAL :  cpu time   53.3041: real time   53.5187
    CORREC:  cpu time   68.4282: real time   68.6806
    CHARGE:  cpu time    2.9110: real time    2.9217
    --------------------------------------------
      LOOP:  cpu time  143.4860: real time  144.0119

 eigenvalue-minimisations  :     0
 total energy-change (2. order) :-0.2742347E-05  (-0.1273123E-05)
 number of electron      30.0000000 magnetization 
 augmentation part       -0.0467570 magnetization 

 Free energy of the ion-electron system (eV)
  ---------------------------------------------------
  alpha Z        PSCENC =         0.06769965
  Ewald energy   TEWEN  =      2286.34836289
  -Hartree energ DENC   =     -3041.43091015
  -exchange      EXHF   =       309.90659525
  -V(xc)+E(xc)   XCENC  =         0.00000000
  PAW double counting   =     36298.82608734   -36299.79573784
  entropy T*S    EENTRO =        -0.00000000
  eigenvalues    EBANDS =      -551.90245421
  atomic energy  EATOM  =       871.29613560
  ---------------------------------------------------
  free energy    TOTEN  =      -126.68422147 eV

  energy without entropy =     -126.68422147  energy(sigma->0) =     -126.68422147
  exchange ACFDT corr.  =         0.00000000  see jH, gK, PRB 81, 115126


--------------------------------------------------------------------------------------------------------




----------------------------------------- Iteration    1(  34)  ---------------------------------------


    POTLOK:  cpu time   18.5831: real time   18.6284
    SETDIJ:  cpu time    0.2029: real time    0.2034
    TRIAL :  cpu time   53.2318: real time   53.4474
    CORREC:  cpu time   68.4234: real time   68.6759
    CHARGE:  cpu time    2.9117: real time    2.9226
    --------------------------------------------
      LOOP:  cpu time  143.4008: real time  143.9276

 eigenvalue-minimisations  :     0
 total energy-change (2. order) :-0.1272213E-05  (-0.6100524E-06)
 number of electron      30.0000000 magnetization 
 augmentation part       -0.0467573 magnetization 

 Free energy of the ion-electron system (eV)
  ---------------------------------------------------
  alpha Z        PSCENC =         0.06769965
  Ewald energy   TEWEN  =      2286.34836289
  -Hartree energ DENC   =     -3041.43294930
  -exchange      EXHF   =       309.90668318
  -V(xc)+E(xc)   XCENC  =         0.00000000
  PAW double counting   =     36299.07384240   -36300.04349749
  entropy T*S    EENTRO =        -0.00000000
  eigenvalues    EBANDS =      -551.90049965
  atomic energy  EATOM  =       871.29613560
  ---------------------------------------------------
  free energy    TOTEN  =      -126.68422275 eV

  energy without entropy =     -126.68422275  energy(sigma->0) =     -126.68422275
  exchange ACFDT corr.  =        -0.00000000  see jH, gK, PRB 81, 115126


--------------------------------------------------------------------------------------------------------




----------------------------------------- Iteration    1(  35)  ---------------------------------------


    POTLOK:  cpu time   18.5908: real time   18.6360
    SETDIJ:  cpu time    0.2041: real time    0.2046
    TRIAL :  cpu time   53.2918: real time   53.5064
    CORREC:  cpu time   68.4576: real time   68.7103
    CHARGE:  cpu time    2.9054: real time    2.9162
    --------------------------------------------
      LOOP:  cpu time  143.5017: real time  144.0281

 eigenvalue-minimisations  :     0
 total energy-change (2. order) :-0.6091891E-06  (-0.2639608E-06)
 number of electron      30.0000000 magnetization 
 augmentation part       -0.0467574 magnetization 

 Free energy of the ion-electron system (eV)
  ---------------------------------------------------
  alpha Z        PSCENC =         0.06769965
  Ewald energy   TEWEN  =      2286.34836289
  -Hartree energ DENC   =     -3041.43434016
  -exchange      EXHF   =       309.90676551
  -V(xc)+E(xc)   XCENC  =         0.00000000
  PAW double counting   =     36300.00033255   -36300.96999193
  entropy T*S    EENTRO =        -0.00000000
  eigenvalues    EBANDS =      -551.89918745
  atomic energy  EATOM  =       871.29613560
  ---------------------------------------------------
  free energy    TOTEN  =      -126.68422335 eV

  energy without entropy =     -126.68422335  energy(sigma->0) =     -126.68422335
  exchange ACFDT corr.  =        -0.00000000  see jH, gK, PRB 81, 115126


--------------------------------------------------------------------------------------------------------




----------------------------------------- Iteration    1(  36)  ---------------------------------------


    POTLOK:  cpu time   18.5834: real time   18.6286
    SETDIJ:  cpu time    0.2034: real time    0.2039
    TRIAL :  cpu time   53.1970: real time   53.4112
    CORREC:  cpu time   68.5373: real time   68.7911
    CHARGE:  cpu time    2.8926: real time    2.9035
    --------------------------------------------
      LOOP:  cpu time  143.4650: real time  143.9917

 eigenvalue-minimisations  :     0
 total energy-change (2. order) :-0.2632767E-06  (-0.1442208E-06)
 number of electron      30.0000000 magnetization 
 augmentation part       -0.0467572 magnetization 

 Free energy of the ion-electron system (eV)
  ---------------------------------------------------
  alpha Z        PSCENC =         0.06769965
  Ewald energy   TEWEN  =      2286.34836289
  -Hartree energ DENC   =     -3041.43294548
  -exchange      EXHF   =       309.90662157
  -V(xc)+E(xc)   XCENC  =         0.00000000
  PAW double counting   =     36300.68546883   -36301.65512863
  entropy T*S    EENTRO =        -0.00000000
  eigenvalues    EBANDS =      -551.90043803
  atomic energy  EATOM  =       871.29613560
  ---------------------------------------------------
  free energy    TOTEN  =      -126.68422362 eV

  energy without entropy =     -126.68422362  energy(sigma->0) =     -126.68422362
  exchange ACFDT corr.  =        -0.00000000  see jH, gK, PRB 81, 115126


--------------------------------------------------------------------------------------------------------




----------------------------------------- Iteration    1(  37)  ---------------------------------------


    POTLOK:  cpu time   18.5865: real time   18.6317
    SETDIJ:  cpu time    0.2023: real time    0.2028
    TRIAL :  cpu time   53.0506: real time   53.2742
    CORREC:  cpu time   68.4169: real time   68.6676
    CHARGE:  cpu time    2.9180: real time    2.9290
    --------------------------------------------
      LOOP:  cpu time  143.2303: real time  143.7640

 eigenvalue-minimisations  :     0
 total energy-change (2. order) :-0.1435039E-06  (-0.7574423E-07)
 number of electron      30.0000000 magnetization 
 augmentation part       -0.0467570 magnetization 

 Free energy of the ion-electron system (eV)
  ---------------------------------------------------
  alpha Z        PSCENC =         0.06769965
  Ewald energy   TEWEN  =      2286.34836289
  -Hartree energ DENC   =     -3041.43283906
  -exchange      EXHF   =       309.90666593
  -V(xc)+E(xc)   XCENC  =         0.00000000
  PAW double counting   =     36301.18425655   -36302.15391662
  entropy T*S    EENTRO =        -0.00000000
  eigenvalues    EBANDS =      -551.90058868
  atomic energy  EATOM  =       871.29613560
  ---------------------------------------------------
  free energy    TOTEN  =      -126.68422376 eV

  energy without entropy =     -126.68422376  energy(sigma->0) =     -126.68422376
  exchange ACFDT corr.  =        -0.00000000  see jH, gK, PRB 81, 115126


--------------------------------------------------------------------------------------------------------




----------------------------------------- Iteration    1(  38)  ---------------------------------------


    POTLOK:  cpu time   18.5890: real time   18.6342
    SETDIJ:  cpu time    0.2033: real time    0.2037
    TRIAL :  cpu time   53.4020: real time   53.6165
    CORREC:  cpu time   68.6635: real time   68.9163
    CHARGE:  cpu time    2.9031: real time    2.9141
    --------------------------------------------
      LOOP:  cpu time  143.8109: real time  144.3378

 eigenvalue-minimisations  :     0
 total energy-change (2. order) :-0.7465985E-07  (-0.3683384E-07)
 number of electron      30.0000000 magnetization 
 augmentation part       -0.0467573 magnetization 

 Free energy of the ion-electron system (eV)
  ---------------------------------------------------
  alpha Z        PSCENC =         0.06769965
  Ewald energy   TEWEN  =      2286.34836289
  -Hartree energ DENC   =     -3041.43347896
  -exchange      EXHF   =       309.90680606
  -V(xc)+E(xc)   XCENC  =         0.00000000
  PAW double counting   =     36301.56111472   -36302.53077476
  entropy T*S    EENTRO =        -0.00000000
  eigenvalues    EBANDS =      -551.90008903
  atomic energy  EATOM  =       871.29613560
  ---------------------------------------------------
  free energy    TOTEN  =      -126.68422384 eV

  energy without entropy =     -126.68422384  energy(sigma->0) =     -126.68422384
  exchange ACFDT corr.  =        -0.00000000  see jH, gK, PRB 81, 115126


--------------------------------------------------------------------------------------------------------


  average scaling for gradient   1.0601


 average (electrostatic) potential at core
  the test charge radii are     0.5770  0.4325
  (the norm of the test charge is              1.0000)
       1 -63.7146       2 -63.7133       3 -63.7143       4 -63.7161       5 -63.7180
       6 -63.7162       7 -25.2607       8 -25.2682       9 -25.2596      10 -25.2655
      11 -25.2653      12 -25.2643
 
 
 
 E-fermi :  -9.0966     XC(G=0):   0.0000     alpha+bet : -0.0186


 k-point     1 :       0.0000    0.0000    0.0000
  band No.  band energies     occupation 
      1     -31.2901      2.00000
      2     -27.6084      2.00000
      3     -27.6044      2.00000
      4     -22.4242      2.00000
      5     -22.4221      2.00000
      6     -19.3044      2.00000
      7     -17.5290      2.00000
      8     -16.8452      2.00000
      9     -16.0024      2.00000
     10     -15.9944      2.00000
     11     -13.6664      2.00000
     12     -13.4702      2.00000
     13     -13.4605      2.00000
     14      -9.1652      2.00000
     15      -9.1634      2.00000
     16       0.0159      0.00000
     17       0.1379      0.00000
     18       0.1436      0.00000
     19       0.1808      0.00000
     20       0.2380      0.00000
     21       0.3957      0.00000
     22       0.2994      0.00000
     23       0.3061      0.00000
     24       0.3455      0.00000


--------------------------------------------------------------------------------------------------------


 soft charge-density along one line, spin component           1
         0         1         2         3         4         5         6         7         8         9
 total charge-density along one line
 
 pseudopotential strength for first ion, spin component:           1
 11.600  19.509   0.002  -0.000   0.002   0.004  -0.000   0.003
 19.509  32.809   0.004  -0.000   0.003   0.007  -0.000   0.005
  0.002   0.004  -3.271  -0.001  -0.000  -5.826  -0.001  -0.000
 -0.000  -0.000  -0.001  -3.275   0.001  -0.001  -5.832   0.002
  0.002   0.003  -0.000   0.001  -3.271  -0.000   0.002  -5.826
  0.004   0.007  -5.826  -0.001  -0.000 -10.354  -0.003  -0.000
 -0.000  -0.000  -0.001  -5.832   0.002  -0.003 -10.366   0.004
  0.003   0.005  -0.000   0.002  -5.826  -0.000   0.004 -10.354
 total augmentation occupancy for first ion, spin component:           1
 16.834  -7.160  -0.851  -0.006  -0.623   0.398   0.003   0.291
 -7.160   3.056   0.418   0.003   0.306  -0.194  -0.002  -0.142
 -0.851   0.418  11.302  -1.080  -0.275  -4.365   0.452   0.128
 -0.006   0.003  -1.080   6.473   1.566   0.452  -2.360  -0.655
 -0.623   0.306  -0.275   1.566  11.434   0.128  -0.655  -4.428
  0.398  -0.194  -4.365   0.452   0.128   1.691  -0.188  -0.058
  0.003  -0.002   0.452  -2.360  -0.655  -0.188   0.863   0.273
  0.291  -0.142   0.128  -0.655  -4.428  -0.058   0.273   1.720


------------------------ aborting loop because EDIFF is reached ----------------------------------------


    FORLOC:  cpu time    1.9495: real time    1.9542
    FORHF :  cpu time   37.4139: real time   37.5065
    FORNL :  cpu time    1.6751: real time    1.6792
    FORCOR:  cpu time   17.5158: real time   17.5584
    OFIELD:  cpu time    0.0557: real time    0.0559

 VOLUME and BASIS-vectors are now :
 -----------------------------------------------------------------------------
  energy-cutoff  :     2000.00
  volume of cell :    42875.00
      direct lattice vectors                 reciprocal lattice vectors
    35.000000000  0.000000000  0.000000000     0.028571429  0.000000000  0.000000000
     0.000000000 35.000000000  0.000000000     0.000000000  0.028571429  0.000000000
     0.000000000  0.000000000 35.000000000     0.000000000  0.000000000  0.028571429

  length of vectors
    35.000000000 35.000000000 35.000000000     0.028571429  0.028571429  0.028571429


 FORCES acting on ions:
    Electron-Ion                     Ewald-Force                    Non-Local-Force
 -----------------------------------------------------------------------------------------------
   -.108E+03 -.147E+03 -.165E+01   0.107E+03 0.146E+03 0.168E+01   0.378E+00 0.505E+00 -.211E-01
   -.174E+03 0.158E+02 -.495E+02   0.173E+03 -.156E+02 0.492E+02   0.555E+00 -.572E-01 0.173E+00
   -.667E+02 0.162E+03 -.476E+02   0.662E+02 -.161E+03 0.472E+02   0.228E+00 -.572E+00 0.140E+00
   0.108E+03 0.147E+03 0.184E+01   -.107E+03 -.146E+03 -.182E+01   -.355E+00 -.481E+00 -.151E-01
   0.174E+03 -.157E+02 0.497E+02   -.173E+03 0.156E+02 -.494E+02   -.578E+00 0.470E-01 -.180E+00
   0.666E+02 -.162E+03 0.482E+02   -.661E+02 0.161E+03 -.479E+02   -.225E+00 0.538E+00 -.168E+00
   -.481E+02 -.655E+02 -.988E+00   0.516E+02 0.704E+02 0.106E+01   -.357E+01 -.486E+01 -.786E-01
   -.777E+02 0.688E+01 -.230E+02   0.834E+02 -.739E+01 0.247E+02   -.576E+01 0.508E+00 -.173E+01
   -.298E+02 0.725E+02 -.215E+02   0.319E+02 -.779E+02 0.231E+02   -.221E+01 0.538E+01 -.160E+01
   0.481E+02 0.655E+02 0.691E+00   -.516E+02 -.703E+02 -.744E+00   0.357E+01 0.486E+01 0.482E-01
   0.778E+02 -.699E+01 0.223E+02   -.835E+02 0.750E+01 -.240E+02   0.578E+01 -.518E+00 0.166E+01
   0.297E+02 -.725E+02 0.216E+02   -.319E+02 0.778E+02 -.232E+02   0.221E+01 -.538E+01 0.160E+01
 -----------------------------------------------------------------------------------------------
   -.158E-01 0.302E-01 0.193E+00   0.107E-13 0.000E+00 -.711E-14   0.146E-01 -.266E-01 -.169E+00
 
 
 POSITION                                       TOTAL-FORCE (eV/Angst)
 -----------------------------------------------------------------------------------
      0.60678      1.33042      0.31643        -0.209610     -0.291169      0.003416
      1.11808      0.08725      0.68512        -0.424642      0.038163     -0.073363
      0.29290     33.96391      0.66911        -0.141180      0.320710     -0.084570
     33.95717     34.08329      0.28819         0.234833      0.331667     -0.005355
     33.44641      0.32735     34.92006         0.383315     -0.041400      0.096995
     34.27196      1.45084     34.93315         0.131773     -0.354254      0.093256
      1.24650      2.20226      0.33035        -0.221716     -0.289759     -0.009383
      2.15006     34.99611      0.99376        -0.326847      0.024991     -0.133893
      0.68850     32.99904      0.95538        -0.133873      0.323786     -0.093786
     33.31729     33.21151      0.27935         0.218948      0.295369     -0.001848
     32.41077      0.42029     34.62265         0.352058     -0.029149      0.106588
     33.87638      2.41566     34.64614         0.136943     -0.328955      0.101943
 -----------------------------------------------------------------------------------
    total drift:                                0.000313     -0.000073      0.000119


--------------------------------------------------------------------------------------------------------



  FREE ENERGIE OF THE ION-ELECTRON SYSTEM (eV)
  ---------------------------------------------------
  free  energy   TOTEN  =      -126.68422384 eV

  energy  without entropy=     -126.68422384  energy(sigma->0) =     -126.68422384
 


--------------------------------------------------------------------------------------------------------


    POTLOK:  cpu time   18.8010: real time   18.8468


--------------------------------------------------------------------------------------------------------


     LOOP+:  cpu time 5702.5397: real time 5722.8814
    4ORBIT:  cpu time    0.0000: real time    0.0000

 total amount of memory used by VASP on root node  4627387. kBytes
========================================================================

   base      :      30000. kBytes
   nonl-proj :     174155. kBytes
   fftplans  :    1713006. kBytes
   grid      :    2553282. kBytes
   one-center:          3. kBytes
   HF        :          9. kBytes
   nonlr-proj:        191. kBytes
   wavefun   :     156741. kBytes
 
  
  
 General timing and accounting informations for this job:
 ========================================================
  
                  Total CPU time used (sec):     6642.143
                            User time (sec):     6027.729
                          System time (sec):      614.414
                         Elapsed time (sec):     6665.278
  
                   Maximum memory used (kb):     6907876.
                   Average memory used (kb):           0.
  
                          Minor page faults:      1528678
                          Major page faults:            4
                 Voluntary context switches:       736703
 
 PROFILE, used timers:      39
 =============================
 
 index                 routine                    time                            calls level
----------------------------------------------------------------------------------------------
    1    total_time                         6665.279176                                1   1
    2      w1_copy                               1.969147                           1056   2
    3      fftwav_mpi                          209.247825                            810   2
    4      fftext_mpi                            1.021416                              6   2
    5      overl                                 0.000587                            541   2
    6      orth1                                 1.999926                            346   2
    7      lincom                                2.054380                            204   2
    8      eccp                                 30.663029                            624   2
    9      hamiltmu                             39.789505                             60   2
   10        vhamil                                7.306442                          120   3
   11        overl1                                0.000103                          120   3
   12        kinhamil                             19.090392                          120   3
   13          fftext_mpi                           18.857138                        120   4
   14      pdssyex_zheevx                        1.991329                             71   2
   15      fock_acc                           1502.968322                             99   2
   16        w1_copy                               1.571851                          600   3
   17        fftwav_mpi                           79.803705                          600   3
   18        fock_charge_mu                       86.313685                          402   3
   19          racc0mu_hf                            1.600188                        402   4
   20        rpromu_hf                             3.686500                          402   3
   21        overl1                                0.000157                          198   3
   22        fftext_mpi                           24.060225                          198   3
   23      hamilt_local                         52.927377                            198   2
   24        vhamil                               11.784591                          198   3
   25        kinhamil                             41.142273                          198   3
   26          fftext_mpi                           40.767001                        198   4
   27      w1_dscal                              5.729479                            198   2
   28      eddiag                             1544.919702                             33   2
   29        fock_acc                           1485.826114                           99   3
   30          w1_copy                               1.162076                        594   4
   31          fftwav_mpi                           78.799641                        594   4
   32          fock_charge_mu                       85.160554                        396   4
   33            racc0mu_hf                            1.620642                      396   5
   34          rpromu_hf                             3.667576                        396   4
   35          overl1                                0.000147                        198   4
   36          fftext_mpi                           23.678563                        198   4
   37        fftwav_mpi                           48.224272                          198   3
   38        eccp                                  9.138924                          198   3
   39      rpro1_hf                              0.909176                            384   2
 
 Flat profile
 ============
 
             routine name                   CPU           calls
 ---------------------------------------------------------------
 total_time                           3269.087975           1
 fock_acc                             2600.889758         198
 fftwav_mpi                            416.075442        2202
 fock_charge_mu                        168.253409         798
 fftext_mpi                            108.384343         720
 eccp                                   39.801953         822
 vhamil                                 19.091033         318
 hamiltmu                               13.392567          60
 rpromu_hf                               7.354076         798
 w1_dscal                                5.729479         198
 w1_copy                                 4.703074        2250
 racc0mu_hf                              3.220830         798
 lincom                                  2.054380         204
 orth1                                   1.999926         346
 pdssyex_zheevx                          1.991329          71
 eddiag                                  1.730392          33
 rpro1_hf                                0.909176         384
 kinhamil                                0.608526         318
 overl                                   0.000587         541
 hamilt_local                            0.000513         198
 overl1                                  0.000407         516
 ---------------------------------------------------------------
  summed up times    6665.27917599678     
 
Profiling took   0.010736  0.005379  0.003371  0.003345 seconds
Profiling took   0.006460 seconds
