 vasp.5.4.1 24Jun15 (build Jan 02 2020 16:21:29) gamma-only                     
  
 executed on           IFC15_impi date 2020.04.23  00:39:35
 running on   32 total cores
 distrk:  each k-point on   32 cores,    1 groups
 distr:  one band on NCORES_PER_BAND=   8 cores,    4 groups


--------------------------------------------------------------------------------------------------------


 INCAR:
 POTCAR:    PAW_PBE N_h 06Feb2004                 
 POTCAR:    PAW_PBE C_h 06Feb2004                 
 POTCAR:    PAW_PBE H_h 06Feb2004                 
 POTCAR:    PAW_PBE N_h 06Feb2004                 
   VRHFIN =N: s2p3                                                              
   LEXCH  = PE                                                                  
   EATOM  =   264.5486 eV,   19.4438 Ry                                         
                                                                                
   TITEL  = PAW_PBE N_h 06Feb2004                                               
   LULTRA =        F    use ultrasoft PP ?                                      
   IUNSCR =        1    unscreen: 0-lin 1-nonlin 2-no                           
   RPACOR =    0.800    partial core radius                                     
   POMASS =   14.001; ZVAL   =    5.000    mass and valenz                      
   RCORE  =    1.100    outmost cutoff radius                                   
   RWIGS  =    1.480; RWIGS  =    0.783    wigner-seitz radius (au A)           
   ENMAX  =  700.000; ENMIN  =  500.000 eV                                      
   ICORE  =        2    local potential                                         
   LCOR   =        T    correct aug charges                                     
   LPAW   =        T    paw PP                                                  
   EAUG   =  904.640                                                            
   DEXC   =    0.000                                                            
   RMAX   =    1.127    core radius for proj-oper                               
   RAUG   =    1.300    factor for augmentation sphere                          
   RDEP   =    1.115    radius for radial grids                                 
   RDEPT  =    1.106    core radius for aug-charge                              
                                                                                
   Atomic configuration                                                         
    4 entries                                                                   
     n  l   j            E        occ.                                          
     1  0  0.50      -384.7179   2.0000                                         
     2  0  0.50       -18.5828   2.0000                                         
     2  1  0.50        -7.0898   3.0000                                         
     3  2  1.50        -6.8029   0.0000                                         
   Description                                                                  
     l       E           TYP  RCUT    TYP  RCUT                                 
     0    -18.5828117     23  1.100                                             
     0    -15.0750597     23  1.100                                             
     1     -7.0897851     23  1.100                                             
     1     -1.9663412     23  1.100                                             
     2     -6.8029130      7  1.100                                             
  local pseudopotential read in
  partial core-charges read in
  partial kinetic energy density read in
  kinetic energy density of atom read in
  atomic valenz-charges read in
  non local Contribution for L=           0  read in
    real space projection operators read in
  non local Contribution for L=           0  read in
    real space projection operators read in
  non local Contribution for L=           1  read in
    real space projection operators read in
  non local Contribution for L=           1  read in
    real space projection operators read in
    PAW grid and wavefunctions read in
 
   number of l-projection  operators is LMAX  =           4
   number of lm-projection operators is LMMAX =           8
 
 POTCAR:    PAW_PBE C_h 06Feb2004                 
   VRHFIN =C: s2p2                                                              
   LEXCH  = PE                                                                  
   EATOM  =   147.1560 eV,   10.8157 Ry                                         
                                                                                
   TITEL  = PAW_PBE C_h 06Feb2004                                               
   LULTRA =        F    use ultrasoft PP ?                                      
   IUNSCR =        1    unscreen: 0-lin 1-nonlin 2-no                           
   RPACOR =    0.800    partial core radius                                     
   POMASS =   12.011; ZVAL   =    4.000    mass and valenz                      
   RCORE  =    1.100    outmost cutoff radius                                   
   RWIGS  =    1.630; RWIGS  =    0.863    wigner-seitz radius (au A)           
   ENMAX  =  700.000; ENMIN  =  500.000 eV                                      
   ICORE  =        2    local potential                                         
   LCOR   =        T    correct aug charges                                     
   LPAW   =        T    paw PP                                                  
   EAUG   =  946.768                                                            
   DEXC   =    0.000                                                            
   RMAX   =    1.128    core radius for proj-oper                               
   RAUG   =    1.300    factor for augmentation sphere                          
   RDEP   =    1.162    radius for radial grids                                 
   RDEPT  =    1.088    core radius for aug-charge                              
                                                                                
   Atomic configuration                                                         
    4 entries                                                                   
     n  l   j            E        occ.                                          
     1  0  0.50      -273.3789   2.0000                                         
     2  0  0.50       -13.7508   2.0000                                         
     2  1  0.50        -5.2854   2.0000                                         
     3  2  1.50        -5.4423   0.0000                                         
   Description                                                                  
     l       E           TYP  RCUT    TYP  RCUT                                 
     0    -13.7508458     23  1.100                                             
     0     -8.2022199     23  1.100                                             
     1     -5.2854383     23  1.100                                             
     1      1.1560700     23  1.100                                             
     2     -5.4423304      7  1.100                                             
  local pseudopotential read in
  partial core-charges read in
  partial kinetic energy density read in
  atomic valenz-charges read in
  non local Contribution for L=           0  read in
    real space projection operators read in
  non local Contribution for L=           0  read in
    real space projection operators read in
  non local Contribution for L=           1  read in
    real space projection operators read in
  non local Contribution for L=           1  read in
    real space projection operators read in
    PAW grid and wavefunctions read in
 
   number of l-projection  operators is LMAX  =           4
   number of lm-projection operators is LMMAX =           8
 
 POTCAR:    PAW_PBE H_h 06Feb2004                 
   VRHFIN =H: ultrasoft test                                                    
   LEXCH  = PE                                                                  
   EATOM  =    12.4884 eV,    0.9179 Ry                                         
                                                                                
   TITEL  = PAW_PBE H_h 06Feb2004                                               
   LULTRA =        F    use ultrasoft PP ?                                      
   IUNSCR =        0    unscreen: 0-lin 1-nonlin 2-no                           
   RPACOR =    0.000    partial core radius                                     
   POMASS =    1.000; ZVAL   =    1.000    mass and valenz                      
   RCORE  =    0.800    outmost cutoff radius                                   
   RWIGS  =    0.700; RWIGS  =    0.370    wigner-seitz radius (au A)           
   ENMAX  =  700.000; ENMIN  =  350.000 eV                                      
   RCLOC  =    0.701    cutoff for local pot                                    
   LCOR   =        T    correct aug charges                                     
   LPAW   =        T    paw PP                                                  
   EAUG   = 1000.000                                                            
   RMAX   =    0.819    core radius for proj-oper                               
   RAUG   =    1.000    factor for augmentation sphere                          
   RDEP   =    0.817    radius for radial grids                                 
   RDEPT  =    0.817    core radius for aug-charge                              
                                                                                
   Atomic configuration                                                         
    2 entries                                                                   
     n  l   j            E        occ.                                          
     1  0  0.50        -6.4927   1.0000                                         
     2  1  0.50        -3.4015   0.0000                                         
   Description                                                                  
     l       E           TYP  RCUT    TYP  RCUT                                 
     0     -6.4927493     23  0.800                                             
     0      6.8029130     23  0.800                                             
     1     -6.8029130     23  0.800                                             
  local pseudopotential read in
  atomic valenz-charges read in
  non local Contribution for L=           0  read in
    real space projection operators read in
  non local Contribution for L=           0  read in
    real space projection operators read in
  non local Contribution for L=           1  read in
    real space projection operators read in
    PAW grid and wavefunctions read in
 
   number of l-projection  operators is LMAX  =           3
   number of lm-projection operators is LMMAX =           5
 
  PAW_PBE N_h 06Feb2004                 :
 energy of atom  1       EATOM= -264.5486
 kinetic energy error for atom=    0.0009 (will be added to EATOM!!)
  PAW_PBE C_h 06Feb2004                 :
 energy of atom  2       EATOM= -147.1560
 kinetic energy error for atom=    0.0004 (will be added to EATOM!!)
  PAW_PBE H_h 06Feb2004                 :
 energy of atom  3       EATOM=  -12.4884
 kinetic energy error for atom=    0.0001 (will be added to EATOM!!)
 
 
 POSCAR: N C H                                   
  positions in cartesian coordinates
  velocities in cartesian coordinates
  No initial velocities read in
 exchange correlation table for  LEXCH =        8
   RHO(1)=    0.500       N(1)  =     2000
   RHO(2)=  100.500       N(2)  =     4000
 


--------------------------------------------------------------------------------------------------------


 ion  position               nearest neighbor table
   1  0.998  0.000  0.030-   6 1.34   2 1.34
   2  0.994  0.967  0.010-   7 1.08   1 1.34   3 1.39
   3  0.987  0.966  0.971-   8 1.08   4 1.39   2 1.39
   4  0.984  0.000  0.951-   9 1.08   3 1.39   5 1.39
   5  0.987  0.034  0.971-  10 1.08   4 1.39   6 1.39
   6  0.994  0.033  0.011-  11 1.08   1 1.34   5 1.39
   7  0.997  0.941  0.027-   2 1.08
   8  0.985  0.939  0.957-   3 1.08
   9  0.978  0.000  0.921-   4 1.08
  10  0.984  0.061  0.957-   5 1.08
  11  0.997  0.059  0.027-   6 1.08
 
  LATTYP: Found a simple cubic cell.
 ALAT       =    35.0000000000
  
  Lattice vectors:
  
 A1 = (  35.0000000000,   0.0000000000,   0.0000000000)
 A2 = (   0.0000000000,  35.0000000000,   0.0000000000)
 A3 = (   0.0000000000,   0.0000000000,  35.0000000000)


Analysis of symmetry for initial positions (statically):
=====================================================================
 Subroutine PRICEL returns:
 Original cell was already a primitive cell.
 

 Routine SETGRP: Setting up the symmetry group for a 
 simple cubic supercell.


 Subroutine GETGRP returns: Found  1 space group operations
 (whereof  1 operations were pure point group operations)
 out of a pool of 48 trial point group operations.


The static configuration has the point symmetry C_1 .


Analysis of symmetry for dynamics (positions and initial velocities):
=====================================================================
 Subroutine PRICEL returns:
 Original cell was already a primitive cell.
 

 Routine SETGRP: Setting up the symmetry group for a 
 simple cubic supercell.


 Subroutine GETGRP returns: Found  1 space group operations
 (whereof  1 operations were pure point group operations)
 out of a pool of 48 trial point group operations.


The dynamic configuration has the point symmetry C_1 .
 
 
 KPOINTS: automatic mesh                          

Automatic generation of k-mesh.
Space group operators:
 irot       det(A)        alpha          n_x          n_y          n_z        tau_x        tau_y        tau_z
    1     1.000000     0.000000     1.000000     0.000000     0.000000     0.000000     0.000000     0.000000
 
 Subroutine IBZKPT returns following result:
 ===========================================
 
 Found      1 irreducible k-points:
 
 Following reciprocal coordinates:
            Coordinates               Weight
  0.000000  0.000000  0.000000      1.000000
 
 Following cartesian coordinates:
            Coordinates               Weight
  0.000000  0.000000  0.000000      1.000000
 
 
 Subroutine IBZKPT_HF returns following result:
 ==============================================
 
 Found      1 k-points in 1st BZ
 the following      1 k-points will be used (e.g. in the exchange kernel)
 Following reciprocal coordinates:   # in IRBZ
  0.000000  0.000000  0.000000    1.00000000   1 t-inv F


--------------------------------------------------------------------------------------------------------




 Dimension of arrays:
   k-points           NKPTS =      1   k-points in BZ     NKDIM =      1   number of bands    NBANDS=     24
   number of dos      NEDOS =    301   number of ions     NIONS =     11
   non local maximal  LDIM  =      4   non local SUM 2l+1 LMDIM =      8
   total plane-waves  NPLWV = ******
   max r-space proj   IRMAX =      1   max aug-charges    IRDMAX=  22431
   dimension x,y,z NGX =   512 NGY =  512 NGZ =  512
   dimension x,y,z NGXF=  1024 NGYF= 1024 NGZF= 1024
   support grid    NGXF=  1024 NGYF= 1024 NGZF= 1024
   ions per type =               1   5   5
 NGX,Y,Z   is equivalent  to a cutoff of  24.32, 24.32, 24.32 a.u.
 NGXF,Y,Z  is equivalent  to a cutoff of  48.64, 48.64, 48.64 a.u.


 I would recommend the setting:
   dimension x,y,z NGX =   511 NGY =  511 NGZ =  511
 SYSTEM =  C                                       
 POSCAR =  N C H                                   

 Startparameter for this run:
   NWRITE =      2    write-flag & timer
   PREC   = accura    normal or accurate (medium, high low for compatibility)
   ISTART =      0    job   : 0-new  1-cont  2-samecut
   ICHARG =      2    charge: 1-file 2-atom 10-const
   ISPIN  =      1    spin polarized calculation?
   LNONCOLLINEAR =      F non collinear calculations
   LSORBIT =      F    spin-orbit coupling
   INIWAV =      1    electr: 0-lowe 1-rand  2-diag
   LASPH  =      T    aspherical Exc in radial PAW
   METAGGA=      F    non-selfconsistent MetaGGA calc.

 Electronic Relaxation 1
   ENCUT  = 2000.0 eV 147.00 Ry   12.12 a.u. 127.63127.63127.63*2*pi/ulx,y,z
   ENINI  = 2000.0     initial cutoff
   ENAUG  = 1000.0 eV  augmentation charge cutoff
   NELM   =     60;   NELMIN=  2; NELMDL= -5     # of ELM steps 
   EDIFF  = 0.1E-06   stopping-criterion for ELM
   LREAL  =      F    real-space projection
   NLSPLINE    = F    spline interpolate recip. space projectors
   LCOMPAT=      F    compatible to vasp.4.4
   GGA_COMPAT  = T    GGA compatible to vasp.4.4-vasp.4.6
   LMAXPAW     = -100 max onsite density
   LMAXMIX     =    2 max onsite mixed and CHGCAR
   VOSKOWN=      0    Vosko Wilk Nusair interpolation
   ROPT   =    0.00000   0.00000   0.00000
 Ionic relaxation
   EDIFFG = 0.1E-05   stopping-criterion for IOM
   NSW    =      0    number of steps for IOM
   NBLOCK =      1;   KBLOCK =      1    inner block; outer block 
   IBRION =     -1    ionic relax: 0-MD 1-quasi-New 2-CG
   NFREE  =      0    steps in history (QN), initial steepest desc. (CG)
   ISIF   =      0    stress and relaxation
   IWAVPR =     10    prediction:  0-non 1-charg 2-wave 3-comb
   ISYM   =      3    0-nonsym 1-usesym 2-fastsym
   LCORR  =      T    Harris-Foulkes like correction to forces

   POTIM  = 0.5000    time-step for ionic-motion
   TEIN   =    0.0    initial temperature
   TEBEG  =    0.0;   TEEND  =   0.0 temperature during run
   SMASS  =  -3.00    Nose mass-parameter (am)
   estimated Nose-frequenzy (Omega)   =  0.10E-29 period in steps =****** mass=  -0.280E-25a.u.
   SCALEE = 1.0000    scale energy and forces
   NPACO  =    256;   APACO  = 16.0  distance and # of slots for P.C.
   PSTRESS=    0.0 pullay stress

  Mass of Ions in am
   POMASS =  14.00 12.01  1.00
  Ionic Valenz
   ZVAL   =   5.00  4.00  1.00
  Atomic Wigner-Seitz radii
   RWIGS  =  -1.00 -1.00 -1.00
  virtual crystal weights 
   VCA    =   1.00  1.00  1.00
   NELECT =      30.0000    total number of electrons
   NUPDOWN=      -1.0000    fix difference up-down

 DOS related values:
   EMIN   =  10.00;   EMAX   =-10.00  energy-range for DOS
   EFERMI =   0.00
   ISMEAR =     0;   SIGMA  =   0.01  broadening in eV -4-tet -1-fermi 0-gaus

 Electronic relaxation 2 (details)
   IALGO  =     58    algorithm
   LDIAG  =      T    sub-space diagonalisation (order eigenvalues)
   LSUBROT=      F    optimize rotation matrix (better conditioning)
   TURBO    =      0    0=normal 1=particle mesh
   IRESTART =      0    0=no restart 2=restart with 2 vectors
   NREBOOT  =      0    no. of reboots
   NMIN     =      0    reboot dimension
   EREF     =   0.00    reference energy to select bands
   IMIX   =      4    mixing-type and parameters
     AMIX     =   0.40;   BMIX     =  1.00
     AMIX_MAG =   1.60;   BMIX_MAG =  1.00
     AMIN     =   0.10
     WC   =   100.;   INIMIX=   1;  MIXPRE=   1;  MAXMIX= -45

 Intra band minimization:
   WEIMIN = 0.0000     energy-eigenvalue tresh-hold
   EBREAK =  0.10E-08  absolut break condition
   DEPER  =   0.30     relativ break condition  

   TIME   =   0.40     timestep for ELM

  volume/ion in A,a.u.               =    3897.73     26303.16
  Fermi-wavevector in a.u.,A,eV,Ry     =   0.145338  0.274650  0.287399  0.021123
  Thomas-Fermi vector in A             =   0.812913
 
 Write flags
   LWAVE  =      F    write WAVECAR
   LCHARG =      T    write CHGCAR
   LVTOT  =      F    write LOCPOT, total local potential
   LVHAR  =      F    write LOCPOT, Hartree potential only
   LELF   =      F    write electronic localiz. function (ELF)
   LORBIT =      0    0 simple, 1 ext, 2 COOP (PROOUT)


 Dipole corrections
   LMONO  =      F    monopole corrections only (constant potential shift)
   LDIPOL =      F    correct potential (dipole corrections)
   IDIPOL =      0    1-x, 2-y, 3-z, 4-all directions 
   EPSILON=  1.0000000 bulk dielectric constant

 Exchange correlation treatment:
   GGA     =    --    GGA type
   LEXCH   =     8    internal setting for exchange type
   VOSKOWN=      0    Vosko Wilk Nusair interpolation
   EXXOEP  =     0    0=HF, 1=EXX-LHF (local Hartree Fock) 2=EXX OEP
   LHFCALC =     T    Hartree Fock is set to
   LSYMGRAD=     F    symmetrize gradient (conserves proper symmetry)
   PRECFOCK=normal    Normal, Fast or Accurate (Low or Medium for compatibility)
   LRHFCALC=     F    long range Hartree Fock
   LRSCOR  =     F    long range correlation only (use DFT for short range part)
   LTHOMAS =     F    Thomas Fermi screening in HF
   LMODELHF=     F    short range full HF, long range fraction AEXX
   ENCUT4O =  -1.0   cutoff for four orbital integrals eV
   LMAXFOCK=     4    L truncation for augmentation on plane wave grid
   LMAXFOCKAE=  -1    L truncation for all-electron charge restoration on plane wave grid
   NMAXFOCKAE=   1    number of basis functions for all-electron charge restoration
   LFOCKAEDFT=     F  apply the AE augmentation even for DFT
   NKREDX  =     1    reduce k-point grid by
   NKREDY  =     1    reduce k-point grid by
   NKREDZ  =     1    reduce k-point grid by
   SHIFTRED=     F    shift reduced grid of Gamma
   HFKIDENT=     F    idential grid for each k-point
   ODDONLY =     F    use only odd q-grid points
   EVENONLY=     F    use only even q-grid points
   HFALPHA =   -1.0000 decay constant for conv. correction
   MCALPHA =    0.0000 extent of test-charge in conv. correction in multipole expansion
   AEXX    =    1.0000 exact exchange contribution
   HFSCREEN=    0.0000 screening length (either q_TF or 0.3 A-1)
   HFSCREENC=   0.0000 screening length for correlation (either q_TF or 0.3 A-1)
   HFRCUT  =    0.0000 spherical cutoff for potential kernel
   ALDAX   =    0.0000 LDA exchange part
   AGGAX   =    0.0000 GGA exchange part
   ALDAC   =    0.0000 LDA correlation
   AGGAC   =    0.0000 GGA correlation
   NBANDSGWLOW=     1    first orbital included in HF term
   ENCUTFOCK=  -1.0 apply spherical cutoff to Coloumb kernel
 Linear response parameters
   LEPSILON=     F    determine dielectric tensor
   LRPA    =     F    only Hartree local field effects (RPA)
   LNABLA  =     F    use nabla operator in PAW spheres
   LVEL    =     F    velocity operator in full k-point grid
   LINTERFAST=   F  fast interpolation
   KINTER  =     0    interpolate to denser k-point grid
   CSHIFT  =0.1000    complex shift for real part using Kramers Kronig
   OMEGAMAX=  -1.0    maximum frequency
   DEG_THRESHOLD= 0.2000000E-02 threshold for treating states as degnerate
   RTIME   =    0.100 relaxation time in fs

 Orbital magnetization related:
   ORBITALMAG=     F  switch on orbital magnetization
   LCHIMAG   =     F  perturbation theory with respect to B field
   DQ        =  0.001000  dq finite difference perturbation B field



--------------------------------------------------------------------------------------------------------


 Static calculation
 charge density and potential will be updated during run
 non-spin polarized calculation
 Conjugate gradient for all bands (Freysoldt, et al. PRB 79, 241103 (2009))
 preconditioned conjugated gradient                                        
 perform sub-space diagonalisation
    before iterative eigenvector-optimisation
 modified Broyden-mixing scheme, WC =      100.0
 initial mixing is a Kerker type mixing with AMIX =  0.4000 and BMIX =      1.0000
 Hartree-type preconditioning will be used
 using additional bands            9
 reciprocal scheme for non local part
 use partial core corrections
 no Harris-corrections to forces 
 use gradient corrections 
 use of overlap-Matrix (Vanderbilt PP)
 Gauss-broadening in eV      SIGMA  =   0.01


--------------------------------------------------------------------------------------------------------


  energy-cutoff  :     2000.00
  volume of cell :    42875.00
      direct lattice vectors                 reciprocal lattice vectors
    35.000000000  0.000000000  0.000000000     0.028571429  0.000000000  0.000000000
     0.000000000 35.000000000  0.000000000     0.000000000  0.028571429  0.000000000
     0.000000000  0.000000000 35.000000000     0.000000000  0.000000000  0.028571429

  length of vectors
    35.000000000 35.000000000 35.000000000     0.028571429  0.028571429  0.028571429


 
 k-points in units of 2pi/SCALE and weight: automatic mesh                          
   0.00000000  0.00000000  0.00000000       1.000
 
 k-points in reciprocal lattice and weights: automatic mesh                          
   0.00000000  0.00000000  0.00000000       1.000
 
 position of ions in fractional coordinates (direct lattice) 
   0.99762764  0.00002042  0.03014857
   0.99420418  0.96737926  0.01042668
   0.98723482  0.96594961  0.97129965
   0.98358051  0.00009827  0.95130544
   0.98704409  0.03420693  0.97140239
   0.99401968  0.03270022  0.01052478
   0.99718612  0.94128292  0.02678379
   0.98475288  0.93868985  0.95702367
   0.97818046  0.00012800  0.92089352
   0.98441055  0.06149350  0.95720585
   0.99685237  0.05876278  0.02695926
 
 position of ions in cartesian coordinates  (Angst):
  34.91696751  0.00071459  1.05519999
  34.79714624 33.85827415  0.36493369
  34.55321856 33.80823633 33.99548774
  34.42531791  0.00343953 33.29569052
  34.54654325  1.19724254 33.99908353
  34.79068889  1.14450759  0.36836730
  34.90151437 32.94490205  0.93743262
  34.46635079 32.85414489 33.49582845
  34.23631609  0.00448010 32.23127330
  34.45436920  2.15227264 33.50220492
  34.88983293  2.05669726  0.94357396
 


--------------------------------------------------------------------------------------------------------


 use parallel FFT for wavefunctions z direction half grid
 k-point  1 :   0.0000 0.0000 0.0000  plane waves: 4353902

 maximum and minimum number of plane-waves per node :    544247   544233

 maximum number of plane-waves:   4353902
 maximum index in each direction: 
   IXMAX=  127   IYMAX=  127   IZMAX=  127
   IXMIN= -127   IYMIN= -127   IZMIN=    0

 NGX is ok and might be reduce to 510
 NGY is ok and might be reduce to 510
 NGZ is ok and might be reduce to 510

 parallel 3D FFT for wavefunctions:
    minimum data exchange during FFTs selected (reduces bandwidth)
 parallel 3D FFT for charge:
    minimum data exchange during FFTs selected (reduces bandwidth)


 FFT grid for exact exchange (Hartree Fock) 
  NGX =384; NGY =384; NGZ =384

 use parallel FFT for wavefunctions z direction half grid
 
 Radii for the augmentation spheres in the non-local exchange
 for species   1 augmentation radius   0.738 (default was   0.590)
       energy cutoff for augmentation   8000.0
 for species   2 augmentation radius   0.721 (default was   0.577)
       energy cutoff for augmentation   8000.0
 for species   3 augmentation radius   0.541 (default was   0.432)
       energy cutoff for augmentation   8000.0

 real space projection operators:
  total allocation   :       1190.39 KBytes
  max/ min on nodes  :        151.73        145.69

 Maximum index for augmentation-charges in exchange          293
  SETUP_FOCK is finished

 total amount of memory used by VASP on root node  4922465. kBytes
========================================================================

   base      :      30000. kBytes
   nonl-proj :     200278. kBytes
   fftplans  :    1713006. kBytes
   grid      :    2822242. kBytes
   one-center:          3. kBytes
   HF        :          9. kBytes
   nonlr-proj:        186. kBytes
   wavefun   :     156741. kBytes
 
     INWAV:  cpu time    0.0000: real time    0.0001
 Broyden mixing: mesh for mixing (old mesh)
   NGX =255   NGY =255   NGZ =255
  (NGX  =***   NGY  =***   NGZ  =***)
  gives a total of ****** points

 initial charge density was supplied:
 charge density of overlapping atoms calculated
 number of electron      30.0000000 magnetization 
 keeping initial charge density in first step


--------------------------------------------------------------------------------------------------------


 Maximum index for augmentation-charges          917 (set IRDMAX)


--------------------------------------------------------------------------------------------------------


 FEWALD executed in parallel
    FEWALD:  cpu time    0.0008: real time    0.0008


----------------------------------------- Iteration    1(   1)  ---------------------------------------


    POTLOK:  cpu time   18.0395: real time   18.0902
    SETDIJ:  cpu time    0.0514: real time    0.0515
    TRIAL :  cpu time   12.6096: real time   12.6505
    CORREC:  cpu time    0.0001: real time    0.0001
    --------------------------------------------
      LOOP:  cpu time   30.8186: real time   30.9126

 eigenvalue-minimisations  :    48
 total energy-change (2. order) : 0.2608380E+03  (-0.6169691E+03)
 number of electron      30.0000000 magnetization 
 augmentation part       30.0000000 magnetization 

 Free energy of the ion-electron system (eV)
  ---------------------------------------------------
  alpha Z        PSCENC =         0.06681519
  Ewald energy   TEWEN  =      2321.73379858
  -Hartree energ DENC   =     -3030.47145491
  -exchange      EXHF   =         0.00000000
  -V(xc)+E(xc)   XCENC  =         0.00000000
  PAW double counting   =       827.25381419     -828.39258561
  entropy T*S    EENTRO =        -0.00000000
  eigenvalues    EBANDS =        -3.31964992
  atomic energy  EATOM  =       973.96723249
  ---------------------------------------------------
  free energy    TOTEN  =       260.83797001 eV

  energy without entropy =      260.83797001  energy(sigma->0) =      260.83797001
  exchange ACFDT corr.  =         0.00000000  see jH, gK, PRB 81, 115126


--------------------------------------------------------------------------------------------------------




----------------------------------------- Iteration    1(   2)  ---------------------------------------


    TRIAL :  cpu time   16.8093: real time   16.8664
    CORREC:  cpu time    0.0003: real time    0.0003
    --------------------------------------------
      LOOP:  cpu time   16.8123: real time   16.8719

 eigenvalue-minimisations  :    72
 total energy-change (2. order) :-0.5110787E+02  (-0.4992801E+02)
 number of electron      30.0000000 magnetization 
 augmentation part       30.0000000 magnetization 

 Free energy of the ion-electron system (eV)
  ---------------------------------------------------
  alpha Z        PSCENC =         0.06681519
  Ewald energy   TEWEN  =      2321.73379858
  -Hartree energ DENC   =     -3030.47145491
  -exchange      EXHF   =         0.00000000
  -V(xc)+E(xc)   XCENC  =         0.00000000
  PAW double counting   =       827.25381419     -828.39258561
  entropy T*S    EENTRO =        -0.00067107
  eigenvalues    EBANDS =       -54.42684539
  atomic energy  EATOM  =       973.96723249
  ---------------------------------------------------
  free energy    TOTEN  =       209.73010347 eV

  energy without entropy =      209.73077454  energy(sigma->0) =      209.73043901
  exchange ACFDT corr.  =         0.00000000  see jH, gK, PRB 81, 115126


--------------------------------------------------------------------------------------------------------




----------------------------------------- Iteration    1(   3)  ---------------------------------------


    TRIAL :  cpu time   19.6513: real time   19.7176
    CORREC:  cpu time    0.0002: real time    0.0002
    --------------------------------------------
      LOOP:  cpu time   19.6538: real time   19.7227

 eigenvalue-minimisations  :    88
 total energy-change (2. order) :-0.2959158E+02  (-0.2916231E+02)
 number of electron      30.0000000 magnetization 
 augmentation part       30.0000000 magnetization 

 Free energy of the ion-electron system (eV)
  ---------------------------------------------------
  alpha Z        PSCENC =         0.06681519
  Ewald energy   TEWEN  =      2321.73379858
  -Hartree energ DENC   =     -3030.47145491
  -exchange      EXHF   =         0.00000000
  -V(xc)+E(xc)   XCENC  =         0.00000000
  PAW double counting   =       827.25381419     -828.39258561
  entropy T*S    EENTRO =        -0.01701142
  eigenvalues    EBANDS =       -84.00208134
  atomic energy  EATOM  =       973.96723249
  ---------------------------------------------------
  free energy    TOTEN  =       180.13852717 eV

  energy without entropy =      180.15553859  energy(sigma->0) =      180.14703288
  exchange ACFDT corr.  =         0.00000000  see jH, gK, PRB 81, 115126


--------------------------------------------------------------------------------------------------------




----------------------------------------- Iteration    1(   4)  ---------------------------------------


    TRIAL :  cpu time   18.2301: real time   18.2909
    CORREC:  cpu time    0.0001: real time    0.0001
    --------------------------------------------
      LOOP:  cpu time   18.2326: real time   18.2957

 eigenvalue-minimisations  :    80
 total energy-change (2. order) :-0.1000623E+02  (-0.9577839E+01)
 number of electron      30.0000000 magnetization 
 augmentation part       30.0000000 magnetization 

 Free energy of the ion-electron system (eV)
  ---------------------------------------------------
  alpha Z        PSCENC =         0.06681519
  Ewald energy   TEWEN  =      2321.73379858
  -Hartree energ DENC   =     -3030.47145491
  -exchange      EXHF   =         0.00000000
  -V(xc)+E(xc)   XCENC  =         0.00000000
  PAW double counting   =       827.25381419     -828.39258561
  entropy T*S    EENTRO =        -0.00000000
  eigenvalues    EBANDS =       -94.02532499
  atomic energy  EATOM  =       973.96723249
  ---------------------------------------------------
  free energy    TOTEN  =       170.13229494 eV

  energy without entropy =      170.13229494  energy(sigma->0) =      170.13229494
  exchange ACFDT corr.  =         0.00000000  see jH, gK, PRB 81, 115126


--------------------------------------------------------------------------------------------------------




----------------------------------------- Iteration    1(   5)  ---------------------------------------


    TRIAL :  cpu time   18.2374: real time   18.2984
    CORREC:  cpu time    0.0002: real time    0.0002
    CHARGE:  cpu time    2.9683: real time    2.9800
    --------------------------------------------
      LOOP:  cpu time   21.2082: real time   21.2830

 eigenvalue-minimisations  :    80
 total energy-change (2. order) :-0.4457024E+01  (-0.4363922E+01)
 number of electron      30.0000000 magnetization 
 augmentation part       -0.2280158 magnetization 

 Free energy of the ion-electron system (eV)
  ---------------------------------------------------
  alpha Z        PSCENC =         0.06681519
  Ewald energy   TEWEN  =      2321.73379858
  -Hartree energ DENC   =     -3030.47145491
  -exchange      EXHF   =         0.00000000
  -V(xc)+E(xc)   XCENC  =         0.00000000
  PAW double counting   =       827.25381419     -828.39258561
  entropy T*S    EENTRO =        -0.01561663
  eigenvalues    EBANDS =       -98.46673232
  atomic energy  EATOM  =       973.96723249
  ---------------------------------------------------
  free energy    TOTEN  =       165.67527099 eV

  energy without entropy =      165.69088761  energy(sigma->0) =      165.68307930
  exchange ACFDT corr.  =         0.00000000  see jH, gK, PRB 81, 115126


--------------------------------------------------------------------------------------------------------




----------------------------------------- Iteration    1(   6)  ---------------------------------------


    POTLOK:  cpu time   19.6706: real time   19.7239
    SETDIJ:  cpu time    0.0526: real time    0.0528
    TRIAL :  cpu time   51.3654: real time   51.5723
    CORREC:  cpu time   68.2865: real time   68.5398
    CHARGE:  cpu time    2.9191: real time    2.9298
    --------------------------------------------
      LOOP:  cpu time  142.2983: real time  142.8253

 eigenvalue-minimisations  :     0
 total energy-change (2. order) : 0.3692394E+03  (-0.4475691E+03)
 number of electron      30.0000000 magnetization 
 augmentation part       -0.2758793 magnetization 

 Free energy of the ion-electron system (eV)
  ---------------------------------------------------
  alpha Z        PSCENC =         0.06681519
  Ewald energy   TEWEN  =      2321.73379858
  -Hartree energ DENC   =     -1065.93526405
  -exchange      EXHF   =       153.95215486
  -V(xc)+E(xc)   XCENC  =         0.00000000
  PAW double counting   =     16304.67952449   -16305.02309971
  entropy T*S    EENTRO =        -0.00941437
  eigenvalues    EBANDS =     -1848.51086267
  atomic energy  EATOM  =       973.96723249
  ---------------------------------------------------
  free energy    TOTEN  =       534.91468255 eV

  energy without entropy =      534.92409693  energy(sigma->0) =      534.91938974
  exchange ACFDT corr.  =        -0.78830920  see jH, gK, PRB 81, 115126


--------------------------------------------------------------------------------------------------------




----------------------------------------- Iteration    1(   7)  ---------------------------------------


    POTLOK:  cpu time   19.7073: real time   19.7611
    SETDIJ:  cpu time    0.0519: real time    0.0520
    TRIAL :  cpu time   50.9923: real time   51.1994
    CORREC:  cpu time   68.2880: real time   68.5423
    CHARGE:  cpu time    2.9203: real time    2.9311
    --------------------------------------------
      LOOP:  cpu time  141.9626: real time  142.4918

 eigenvalue-minimisations  :     0
 total energy-change (2. order) :-0.1321273E+03  (-0.1270256E+03)
 number of electron      30.0000000 magnetization 
 augmentation part       -0.3005518 magnetization 

 Free energy of the ion-electron system (eV)
  ---------------------------------------------------
  alpha Z        PSCENC =         0.06681519
  Ewald energy   TEWEN  =      2321.73379858
  -Hartree energ DENC   =     -1276.93255753
  -exchange      EXHF   =       172.50374699
  -V(xc)+E(xc)   XCENC  =         0.00000000
  PAW double counting   =     17588.07477684   -17588.56875895
  entropy T*S    EENTRO =        -0.00000011
  eigenvalues    EBANDS =     -1788.04828267
  atomic energy  EATOM  =       973.96723249
  ---------------------------------------------------
  free energy    TOTEN  =       402.78735656 eV

  energy without entropy =      402.78735666  energy(sigma->0) =      402.78735661
  exchange ACFDT corr.  =        -0.48996860  see jH, gK, PRB 81, 115126


--------------------------------------------------------------------------------------------------------




----------------------------------------- Iteration    1(   8)  ---------------------------------------


    POTLOK:  cpu time   19.6994: real time   19.7532
    SETDIJ:  cpu time    0.0523: real time    0.0524
    TRIAL :  cpu time   51.2905: real time   51.4984
    CORREC:  cpu time   68.2385: real time   68.4931
    CHARGE:  cpu time    2.9304: real time    2.9414
    --------------------------------------------
      LOOP:  cpu time  142.2134: real time  142.7432

 eigenvalue-minimisations  :     0
 total energy-change (2. order) :-0.6479952E+02  (-0.1237767E+03)
 number of electron      30.0000000 magnetization 
 augmentation part       -0.3304329 magnetization 

 Free energy of the ion-electron system (eV)
  ---------------------------------------------------
  alpha Z        PSCENC =         0.06681519
  Ewald energy   TEWEN  =      2321.73379858
  -Hartree energ DENC   =     -1408.81754590
  -exchange      EXHF   =       184.15527655
  -V(xc)+E(xc)   XCENC  =         0.00000000
  PAW double counting   =     17775.28255495   -17775.88421328
  entropy T*S    EENTRO =        -0.00000000
  eigenvalues    EBANDS =     -1732.51608033
  atomic energy  EATOM  =       973.96723249
  ---------------------------------------------------
  free energy    TOTEN  =       337.98783814 eV

  energy without entropy =      337.98783814  energy(sigma->0) =      337.98783814
  exchange ACFDT corr.  =        -0.00000184  see jH, gK, PRB 81, 115126


--------------------------------------------------------------------------------------------------------




----------------------------------------- Iteration    1(   9)  ---------------------------------------


    POTLOK:  cpu time   19.7536: real time   19.8072
    SETDIJ:  cpu time    0.0528: real time    0.0529
    TRIAL :  cpu time   52.5045: real time   52.7150
    CORREC:  cpu time   69.9558: real time   70.2101
    CHARGE:  cpu time    2.9023: real time    2.9131
    --------------------------------------------
      LOOP:  cpu time  145.1761: real time  145.7081

 eigenvalue-minimisations  :     0
 total energy-change (2. order) : 0.7153084E+01  (-0.9060104E+02)
 number of electron      30.0000000 magnetization 
 augmentation part       -0.3291692 magnetization 

 Free energy of the ion-electron system (eV)
  ---------------------------------------------------
  alpha Z        PSCENC =         0.06681519
  Ewald energy   TEWEN  =      2321.73379858
  -Hartree energ DENC   =     -1445.46799249
  -exchange      EXHF   =       185.34173480
  -V(xc)+E(xc)   XCENC  =         0.00000000
  PAW double counting   =     16046.68650796   -16047.36389527
  entropy T*S    EENTRO =        -0.00000000
  eigenvalues    EBANDS =     -1689.82327868
  atomic energy  EATOM  =       973.96723249
  ---------------------------------------------------
  free energy    TOTEN  =       345.14092258 eV

  energy without entropy =      345.14092258  energy(sigma->0) =      345.14092258
  exchange ACFDT corr.  =         0.00000000  see jH, gK, PRB 81, 115126


--------------------------------------------------------------------------------------------------------




----------------------------------------- Iteration    1(  10)  ---------------------------------------


    POTLOK:  cpu time   20.5416: real time   20.5977
    SETDIJ:  cpu time    0.2095: real time    0.2100
    TRIAL :  cpu time   52.9049: real time   53.1279
    CORREC:  cpu time   69.9723: real time   70.2325
    CHARGE:  cpu time    2.9021: real time    2.9126
    --------------------------------------------
      LOOP:  cpu time  146.5823: real time  147.1353

 eigenvalue-minimisations  :     0
 total energy-change (2. order) :-0.8954286E+02  (-0.1410509E+03)
 number of electron      30.0000000 magnetization 
 augmentation part       -0.3347607 magnetization 

 Free energy of the ion-electron system (eV)
  ---------------------------------------------------
  alpha Z        PSCENC =         0.06681519
  Ewald energy   TEWEN  =      2321.73379858
  -Hartree energ DENC   =     -1644.24431280
  -exchange      EXHF   =       188.16481992
  -V(xc)+E(xc)   XCENC  =         0.00000000
  PAW double counting   =     16112.69538782   -16113.37202518
  entropy T*S    EENTRO =        -0.00000000
  eigenvalues    EBANDS =     -1583.41365705
  atomic energy  EATOM  =       973.96723249
  ---------------------------------------------------
  free energy    TOTEN  =       255.59805897 eV

  energy without entropy =      255.59805897  energy(sigma->0) =      255.59805897
  exchange ACFDT corr.  =         0.00000000  see jH, gK, PRB 81, 115126


--------------------------------------------------------------------------------------------------------




----------------------------------------- Iteration    1(  11)  ---------------------------------------


    POTLOK:  cpu time   20.5654: real time   20.6216
    SETDIJ:  cpu time    0.2071: real time    0.2076
    TRIAL :  cpu time   52.6570: real time   52.8699
    CORREC:  cpu time   70.0842: real time   70.3448
    CHARGE:  cpu time    2.8980: real time    2.9086
    --------------------------------------------
      LOOP:  cpu time  146.4664: real time  147.0098

 eigenvalue-minimisations  :     0
 total energy-change (2. order) :-0.8195152E+02  (-0.1391972E+03)
 number of electron      30.0000000 magnetization 
 augmentation part       -0.3357180 magnetization 

 Free energy of the ion-electron system (eV)
  ---------------------------------------------------
  alpha Z        PSCENC =         0.06681519
  Ewald energy   TEWEN  =      2321.73379858
  -Hartree energ DENC   =     -1943.67061921
  -exchange      EXHF   =       196.79498713
  -V(xc)+E(xc)   XCENC  =         0.00000000
  PAW double counting   =     17224.61455089   -17225.27948508
  entropy T*S    EENTRO =        -0.00000000
  eigenvalues    EBANDS =     -1374.58074285
  atomic energy  EATOM  =       973.96723249
  ---------------------------------------------------
  free energy    TOTEN  =       173.64653713 eV

  energy without entropy =      173.64653713  energy(sigma->0) =      173.64653713
  exchange ACFDT corr.  =         0.00000000  see jH, gK, PRB 81, 115126


--------------------------------------------------------------------------------------------------------




----------------------------------------- Iteration    1(  12)  ---------------------------------------


    POTLOK:  cpu time   20.5284: real time   20.5845
    SETDIJ:  cpu time    0.2102: real time    0.2108
    TRIAL :  cpu time   52.8262: real time   53.0393
    CORREC:  cpu time   70.2316: real time   70.4923
    CHARGE:  cpu time    2.9125: real time    2.9234
    --------------------------------------------
      LOOP:  cpu time  146.7650: real time  147.3091

 eigenvalue-minimisations  :     0
 total energy-change (2. order) :-0.5745495E+02  (-0.7029588E+02)
 number of electron      30.0000000 magnetization 
 augmentation part       -0.3344002 magnetization 

 Free energy of the ion-electron system (eV)
  ---------------------------------------------------
  alpha Z        PSCENC =         0.06681519
  Ewald energy   TEWEN  =      2321.73379858
  -Hartree energ DENC   =     -2178.44935684
  -exchange      EXHF   =       211.31332349
  -V(xc)+E(xc)   XCENC  =         0.00000000
  PAW double counting   =     19489.49282332   -19490.20877730
  entropy T*S    EENTRO =        -0.00000000
  eigenvalues    EBANDS =     -1211.72427359
  atomic energy  EATOM  =       973.96723249
  ---------------------------------------------------
  free energy    TOTEN  =       116.19158534 eV

  energy without entropy =      116.19158534  energy(sigma->0) =      116.19158534
  exchange ACFDT corr.  =         0.00000000  see jH, gK, PRB 81, 115126


--------------------------------------------------------------------------------------------------------




----------------------------------------- Iteration    1(  13)  ---------------------------------------


    POTLOK:  cpu time   20.5484: real time   20.6043
    SETDIJ:  cpu time    0.2120: real time    0.2128
    TRIAL :  cpu time   52.6532: real time   52.8790
    CORREC:  cpu time   70.2401: real time   70.4974
    CHARGE:  cpu time    2.9188: real time    2.9299
    --------------------------------------------
      LOOP:  cpu time  146.6238: real time  147.1775

 eigenvalue-minimisations  :     0
 total energy-change (2. order) :-0.6996668E+02  (-0.9783903E+02)
 number of electron      30.0000000 magnetization 
 augmentation part       -0.2883772 magnetization 

 Free energy of the ion-electron system (eV)
  ---------------------------------------------------
  alpha Z        PSCENC =         0.06681519
  Ewald energy   TEWEN  =      2321.73379858
  -Hartree energ DENC   =     -2509.35636207
  -exchange      EXHF   =       236.59828802
  -V(xc)+E(xc)   XCENC  =         0.00000000
  PAW double counting   =     27064.13069030   -27064.94966396
  entropy T*S    EENTRO =        -0.00000000
  eigenvalues    EBANDS =      -975.96589626
  atomic energy  EATOM  =       973.96723249
  ---------------------------------------------------
  free energy    TOTEN  =        46.22490229 eV

  energy without entropy =       46.22490229  energy(sigma->0) =       46.22490229
  exchange ACFDT corr.  =         0.00000000  see jH, gK, PRB 81, 115126


--------------------------------------------------------------------------------------------------------




----------------------------------------- Iteration    1(  14)  ---------------------------------------


    POTLOK:  cpu time   20.5454: real time   20.6015
    SETDIJ:  cpu time    0.2129: real time    0.2134
    TRIAL :  cpu time   52.7551: real time   52.9688
    CORREC:  cpu time   70.2248: real time   70.4842
    CHARGE:  cpu time    2.8979: real time    2.9087
    --------------------------------------------
      LOOP:  cpu time  146.6887: real time  147.2321

 eigenvalue-minimisations  :     0
 total energy-change (2. order) :-0.3858957E+02  (-0.5392447E+02)
 number of electron      30.0000000 magnetization 
 augmentation part       -0.2838150 magnetization 

 Free energy of the ion-electron system (eV)
  ---------------------------------------------------
  alpha Z        PSCENC =         0.06681519
  Ewald energy   TEWEN  =      2321.73379858
  -Hartree energ DENC   =     -2780.73843216
  -exchange      EXHF   =       258.58082313
  -V(xc)+E(xc)   XCENC  =         0.00000000
  PAW double counting   =     48428.50252241   -48429.39833167
  entropy T*S    EENTRO =        -0.00000000
  eigenvalues    EBANDS =      -765.07909835
  atomic energy  EATOM  =       973.96723249
  ---------------------------------------------------
  free energy    TOTEN  =         7.63532961 eV

  energy without entropy =        7.63532961  energy(sigma->0) =        7.63532961
  exchange ACFDT corr.  =         0.00000000  see jH, gK, PRB 81, 115126


--------------------------------------------------------------------------------------------------------




----------------------------------------- Iteration    1(  15)  ---------------------------------------


    POTLOK:  cpu time   20.5435: real time   20.5995
    SETDIJ:  cpu time    0.2115: real time    0.2120
    TRIAL :  cpu time   52.6921: real time   52.9064
    CORREC:  cpu time   69.8127: real time   70.0733
    CHARGE:  cpu time    2.9119: real time    2.9229
    --------------------------------------------
      LOOP:  cpu time  146.2274: real time  146.7726

 eigenvalue-minimisations  :     0
 total energy-change (2. order) :-0.5392455E+02  (-0.2924246E+02)
 number of electron      30.0000000 magnetization 
 augmentation part       -0.2327405 magnetization 

 Free energy of the ion-electron system (eV)
  ---------------------------------------------------
  alpha Z        PSCENC =         0.06681519
  Ewald energy   TEWEN  =      2321.73379858
  -Hartree energ DENC   =     -2987.31683185
  -exchange      EXHF   =       281.80545810
  -V(xc)+E(xc)   XCENC  =         0.00000000
  PAW double counting   =     54301.23153728   -54302.15573991
  entropy T*S    EENTRO =        -0.00000000
  eigenvalues    EBANDS =      -635.62149122
  atomic energy  EATOM  =       973.96723249
  ---------------------------------------------------
  free energy    TOTEN  =       -46.28922135 eV

  energy without entropy =      -46.28922135  energy(sigma->0) =      -46.28922135
  exchange ACFDT corr.  =        -0.00000000  see jH, gK, PRB 81, 115126


--------------------------------------------------------------------------------------------------------




----------------------------------------- Iteration    1(  16)  ---------------------------------------


    POTLOK:  cpu time   20.5552: real time   20.6114
    SETDIJ:  cpu time    0.2116: real time    0.2121
    TRIAL :  cpu time   52.8208: real time   53.0320
    CORREC:  cpu time   70.1580: real time   70.4184
    CHARGE:  cpu time    2.9061: real time    2.9169
    --------------------------------------------
      LOOP:  cpu time  146.7059: real time  147.2477

 eigenvalue-minimisations  :     0
 total energy-change (2. order) :-0.3296790E+02  (-0.2520226E+02)
 number of electron      30.0000000 magnetization 
 augmentation part       -0.1682283 magnetization 

 Free energy of the ion-electron system (eV)
  ---------------------------------------------------
  alpha Z        PSCENC =         0.06681519
  Ewald energy   TEWEN  =      2321.73379858
  -Hartree energ DENC   =     -2949.93798910
  -exchange      EXHF   =       286.26470926
  -V(xc)+E(xc)   XCENC  =         0.00000000
  PAW double counting   =     46529.52630526   -46530.44780794
  entropy T*S    EENTRO =        -0.00000000
  eigenvalues    EBANDS =      -710.43018024
  atomic energy  EATOM  =       973.96723249
  ---------------------------------------------------
  free energy    TOTEN  =       -79.25711651 eV

  energy without entropy =      -79.25711651  energy(sigma->0) =      -79.25711651
  exchange ACFDT corr.  =        -0.00000000  see jH, gK, PRB 81, 115126


--------------------------------------------------------------------------------------------------------




----------------------------------------- Iteration    1(  17)  ---------------------------------------


    POTLOK:  cpu time   20.5628: real time   20.6189
    SETDIJ:  cpu time    0.2091: real time    0.2096
    TRIAL :  cpu time   52.7362: real time   52.9683
    CORREC:  cpu time   70.2675: real time   70.5241
    CHARGE:  cpu time    2.9086: real time    2.9191
    --------------------------------------------
      LOOP:  cpu time  146.7434: real time  147.3023

 eigenvalue-minimisations  :     0
 total energy-change (2. order) :-0.2484381E+02  (-0.1003056E+02)
 number of electron      30.0000000 magnetization 
 augmentation part       -0.1264232 magnetization 

 Free energy of the ion-electron system (eV)
  ---------------------------------------------------
  alpha Z        PSCENC =         0.06681519
  Ewald energy   TEWEN  =      2321.73379858
  -Hartree energ DENC   =     -3047.28463732
  -exchange      EXHF   =       305.99964715
  -V(xc)+E(xc)   XCENC  =         0.00000000
  PAW double counting   =     41682.89152208   -41683.93204966
  entropy T*S    EENTRO =        -0.00000000
  eigenvalues    EBANDS =      -657.54325699
  atomic energy  EATOM  =       973.96723249
  ---------------------------------------------------
  free energy    TOTEN  =      -104.10092848 eV

  energy without entropy =     -104.10092848  energy(sigma->0) =     -104.10092848
  exchange ACFDT corr.  =        -0.00000000  see jH, gK, PRB 81, 115126


--------------------------------------------------------------------------------------------------------




----------------------------------------- Iteration    1(  18)  ---------------------------------------


    POTLOK:  cpu time   20.5441: real time   20.5997
    SETDIJ:  cpu time    0.2144: real time    0.2149
    TRIAL :  cpu time   52.6825: real time   52.8962
    CORREC:  cpu time   69.9225: real time   70.1841
    CHARGE:  cpu time    2.9137: real time    2.9246
    --------------------------------------------
      LOOP:  cpu time  146.3305: real time  146.8757

 eigenvalue-minimisations  :     0
 total energy-change (2. order) :-0.1031766E+02  (-0.5144072E+01)
 number of electron      30.0000000 magnetization 
 augmentation part       -0.1030179 magnetization 

 Free energy of the ion-electron system (eV)
  ---------------------------------------------------
  alpha Z        PSCENC =         0.06681519
  Ewald energy   TEWEN  =      2321.73379858
  -Hartree energ DENC   =     -3156.23829478
  -exchange      EXHF   =       318.92863931
  -V(xc)+E(xc)   XCENC  =         0.00000000
  PAW double counting   =     37590.20687575   -37591.35724304
  entropy T*S    EENTRO =        -0.00000000
  eigenvalues    EBANDS =      -571.72640948
  atomic energy  EATOM  =       973.96723249
  ---------------------------------------------------
  free energy    TOTEN  =      -114.41858598 eV

  energy without entropy =     -114.41858598  energy(sigma->0) =     -114.41858598
  exchange ACFDT corr.  =         0.00000000  see jH, gK, PRB 81, 115126


--------------------------------------------------------------------------------------------------------




----------------------------------------- Iteration    1(  19)  ---------------------------------------


    POTLOK:  cpu time   20.5453: real time   20.6010
    SETDIJ:  cpu time    0.2151: real time    0.2156
    TRIAL :  cpu time   52.5329: real time   52.7456
    CORREC:  cpu time   70.2005: real time   70.4611
    CHARGE:  cpu time    2.8976: real time    2.9083
    --------------------------------------------
      LOOP:  cpu time  146.4439: real time  146.9870

 eigenvalue-minimisations  :     0
 total energy-change (2. order) :-0.5258742E+01  (-0.1724089E+01)
 number of electron      30.0000000 magnetization 
 augmentation part       -0.0949780 magnetization 

 Free energy of the ion-electron system (eV)
  ---------------------------------------------------
  alpha Z        PSCENC =         0.06681519
  Ewald energy   TEWEN  =      2321.73379858
  -Hartree energ DENC   =     -3174.43514961
  -exchange      EXHF   =       320.91099614
  -V(xc)+E(xc)   XCENC  =         0.00000000
  PAW double counting   =     35611.30944991   -35612.46919087
  entropy T*S    EENTRO =        -0.00000000
  eigenvalues    EBANDS =      -560.76128004
  atomic energy  EATOM  =       973.96723249
  ---------------------------------------------------
  free energy    TOTEN  =      -119.67732823 eV

  energy without entropy =     -119.67732823  energy(sigma->0) =     -119.67732823
  exchange ACFDT corr.  =        -0.00000000  see jH, gK, PRB 81, 115126


--------------------------------------------------------------------------------------------------------




----------------------------------------- Iteration    1(  20)  ---------------------------------------


    POTLOK:  cpu time   20.5545: real time   20.6050
    SETDIJ:  cpu time    0.2143: real time    0.2149
    TRIAL :  cpu time   52.4919: real time   52.7037
    CORREC:  cpu time   70.1765: real time   70.4306
    CHARGE:  cpu time    2.9187: real time    2.9296
    --------------------------------------------
      LOOP:  cpu time  146.4153: real time  146.9459

 eigenvalue-minimisations  :     0
 total energy-change (2. order) :-0.1725966E+01  (-0.6648217E+00)
 number of electron      30.0000000 magnetization 
 augmentation part       -0.0892427 magnetization 

 Free energy of the ion-electron system (eV)
  ---------------------------------------------------
  alpha Z        PSCENC =         0.06681519
  Ewald energy   TEWEN  =      2321.73379858
  -Hartree energ DENC   =     -3156.00908723
  -exchange      EXHF   =       318.74744852
  -V(xc)+E(xc)   XCENC  =         0.00000000
  PAW double counting   =     34946.21373600   -34947.35151392
  entropy T*S    EENTRO =        -0.00000000
  eigenvalues    EBANDS =      -578.77172374
  atomic energy  EATOM  =       973.96723249
  ---------------------------------------------------
  free energy    TOTEN  =      -121.40329411 eV

  energy without entropy =     -121.40329411  energy(sigma->0) =     -121.40329411
  exchange ACFDT corr.  =        -0.00000000  see jH, gK, PRB 81, 115126


--------------------------------------------------------------------------------------------------------




----------------------------------------- Iteration    1(  21)  ---------------------------------------


    POTLOK:  cpu time   20.6712: real time   20.7276
    SETDIJ:  cpu time    0.2073: real time    0.2078
    TRIAL :  cpu time   52.9887: real time   53.2242
    CORREC:  cpu time   70.3067: real time   70.5663
    CHARGE:  cpu time    2.9187: real time    2.9297
    --------------------------------------------
      LOOP:  cpu time  147.1418: real time  147.7076

 eigenvalue-minimisations  :     0
 total energy-change (2. order) :-0.6684269E+00  (-0.3197867E+00)
 number of electron      30.0000000 magnetization 
 augmentation part       -0.0844187 magnetization 

 Free energy of the ion-electron system (eV)
  ---------------------------------------------------
  alpha Z        PSCENC =         0.06681519
  Ewald energy   TEWEN  =      2321.73379858
  -Hartree energ DENC   =     -3153.36107724
  -exchange      EXHF   =       318.51907657
  -V(xc)+E(xc)   XCENC  =         0.00000000
  PAW double counting   =     34832.64003570   -34833.77977544
  entropy T*S    EENTRO =        -0.00000000
  eigenvalues    EBANDS =      -581.85782683
  atomic energy  EATOM  =       973.96723249
  ---------------------------------------------------
  free energy    TOTEN  =      -122.07172098 eV

  energy without entropy =     -122.07172098  energy(sigma->0) =     -122.07172098
  exchange ACFDT corr.  =         0.00000000  see jH, gK, PRB 81, 115126


--------------------------------------------------------------------------------------------------------




----------------------------------------- Iteration    1(  22)  ---------------------------------------


    POTLOK:  cpu time   20.6686: real time   20.7250
    SETDIJ:  cpu time    0.2072: real time    0.2077
    TRIAL :  cpu time   52.7702: real time   52.9815
    CORREC:  cpu time   70.3886: real time   70.6493
    CHARGE:  cpu time    2.9251: real time    2.9361
    --------------------------------------------
      LOOP:  cpu time  147.0130: real time  147.5556

 eigenvalue-minimisations  :     0
 total energy-change (2. order) :-0.3228925E+00  (-0.1446794E+00)
 number of electron      30.0000000 magnetization 
 augmentation part       -0.0820906 magnetization 

 Free energy of the ion-electron system (eV)
  ---------------------------------------------------
  alpha Z        PSCENC =         0.06681519
  Ewald energy   TEWEN  =      2321.73379858
  -Hartree energ DENC   =     -3161.40710282
  -exchange      EXHF   =       319.49295397
  -V(xc)+E(xc)   XCENC  =         0.00000000
  PAW double counting   =     35011.65276916   -35012.80480114
  entropy T*S    EENTRO =        -0.00000000
  eigenvalues    EBANDS =      -575.09627888
  atomic energy  EATOM  =       973.96723249
  ---------------------------------------------------
  free energy    TOTEN  =      -122.39461345 eV

  energy without entropy =     -122.39461345  energy(sigma->0) =     -122.39461345
  exchange ACFDT corr.  =         0.00000000  see jH, gK, PRB 81, 115126


--------------------------------------------------------------------------------------------------------




----------------------------------------- Iteration    1(  23)  ---------------------------------------


    POTLOK:  cpu time   20.6755: real time   20.7316
    SETDIJ:  cpu time    0.2070: real time    0.2078
    TRIAL :  cpu time   52.8905: real time   53.1026
    CORREC:  cpu time   70.6293: real time   70.8915
    CHARGE:  cpu time    2.9194: real time    2.9300
    --------------------------------------------
      LOOP:  cpu time  147.3723: real time  147.9160

 eigenvalue-minimisations  :     0
 total energy-change (2. order) :-0.1458135E+00  (-0.7285007E-01)
 number of electron      30.0000000 magnetization 
 augmentation part       -0.0817111 magnetization 

 Free energy of the ion-electron system (eV)
  ---------------------------------------------------
  alpha Z        PSCENC =         0.06681519
  Ewald energy   TEWEN  =      2321.73379858
  -Hartree energ DENC   =     -3165.75614084
  -exchange      EXHF   =       320.01256626
  -V(xc)+E(xc)   XCENC  =         0.00000000
  PAW double counting   =     35333.61738183   -35334.77331589
  entropy T*S    EENTRO =        -0.00000000
  eigenvalues    EBANDS =      -571.40876457
  atomic energy  EATOM  =       973.96723249
  ---------------------------------------------------
  free energy    TOTEN  =      -122.54042696 eV

  energy without entropy =     -122.54042696  energy(sigma->0) =     -122.54042696
  exchange ACFDT corr.  =         0.00000000  see jH, gK, PRB 81, 115126


--------------------------------------------------------------------------------------------------------




----------------------------------------- Iteration    1(  24)  ---------------------------------------


    POTLOK:  cpu time   20.6604: real time   20.7165
    SETDIJ:  cpu time    0.2107: real time    0.2112
    TRIAL :  cpu time   52.7027: real time   52.9159
    CORREC:  cpu time   70.2665: real time   70.5251
    CHARGE:  cpu time    2.9194: real time    2.9304
    --------------------------------------------
      LOOP:  cpu time  146.8115: real time  147.3540

 eigenvalue-minimisations  :     0
 total energy-change (2. order) :-0.7301395E-01  (-0.3112833E-01)
 number of electron      30.0000000 magnetization 
 augmentation part       -0.0820243 magnetization 

 Free energy of the ion-electron system (eV)
  ---------------------------------------------------
  alpha Z        PSCENC =         0.06681519
  Ewald energy   TEWEN  =      2321.73379858
  -Hartree energ DENC   =     -3165.18706542
  -exchange      EXHF   =       319.96968135
  -V(xc)+E(xc)   XCENC  =         0.00000000
  PAW double counting   =     35662.57684871   -35663.72921117
  entropy T*S    EENTRO =        -0.00000000
  eigenvalues    EBANDS =      -572.01154063
  atomic energy  EATOM  =       973.96723249
  ---------------------------------------------------
  free energy    TOTEN  =      -122.61344090 eV

  energy without entropy =     -122.61344090  energy(sigma->0) =     -122.61344090
  exchange ACFDT corr.  =         0.00000000  see jH, gK, PRB 81, 115126


--------------------------------------------------------------------------------------------------------




----------------------------------------- Iteration    1(  25)  ---------------------------------------


    POTLOK:  cpu time   20.6733: real time   20.7298
    SETDIJ:  cpu time    0.2082: real time    0.2087
    TRIAL :  cpu time   52.6485: real time   52.8765
    CORREC:  cpu time   70.3823: real time   70.6415
    CHARGE:  cpu time    2.9202: real time    2.9309
    --------------------------------------------
      LOOP:  cpu time  146.8815: real time  147.4392

 eigenvalue-minimisations  :     0
 total energy-change (2. order) :-0.3112047E-01  (-0.1400853E-01)
 number of electron      30.0000000 magnetization 
 augmentation part       -0.0821177 magnetization 

 Free energy of the ion-electron system (eV)
  ---------------------------------------------------
  alpha Z        PSCENC =         0.06681519
  Ewald energy   TEWEN  =      2321.73379858
  -Hartree energ DENC   =     -3164.10699902
  -exchange      EXHF   =       319.89354505
  -V(xc)+E(xc)   XCENC  =         0.00000000
  PAW double counting   =     35832.80590540   -35833.95521107
  entropy T*S    EENTRO =        -0.00000000
  eigenvalues    EBANDS =      -573.04964800
  atomic energy  EATOM  =       973.96723249
  ---------------------------------------------------
  free energy    TOTEN  =      -122.64456138 eV

  energy without entropy =     -122.64456138  energy(sigma->0) =     -122.64456138
  exchange ACFDT corr.  =         0.00000000  see jH, gK, PRB 81, 115126


--------------------------------------------------------------------------------------------------------




----------------------------------------- Iteration    1(  26)  ---------------------------------------


    POTLOK:  cpu time   20.6663: real time   20.7227
    SETDIJ:  cpu time    0.2080: real time    0.2085
    TRIAL :  cpu time   52.9122: real time   53.1237
    CORREC:  cpu time   70.4977: real time   70.7584
    CHARGE:  cpu time    2.9312: real time    2.9422
    --------------------------------------------
      LOOP:  cpu time  147.2678: real time  147.8104

 eigenvalue-minimisations  :     0
 total energy-change (2. order) :-0.1400742E-01  (-0.6449770E-02)
 number of electron      30.0000000 magnetization 
 augmentation part       -0.0819898 magnetization 

 Free energy of the ion-electron system (eV)
  ---------------------------------------------------
  alpha Z        PSCENC =         0.06681519
  Ewald energy   TEWEN  =      2321.73379858
  -Hartree energ DENC   =     -3164.24618690
  -exchange      EXHF   =       319.95432038
  -V(xc)+E(xc)   XCENC  =         0.00000000
  PAW double counting   =     35860.37663840   -35861.52552413
  entropy T*S    EENTRO =        -0.00000000
  eigenvalues    EBANDS =      -572.98566281
  atomic energy  EATOM  =       973.96723249
  ---------------------------------------------------
  free energy    TOTEN  =      -122.65856880 eV

  energy without entropy =     -122.65856880  energy(sigma->0) =     -122.65856880
  exchange ACFDT corr.  =         0.00000000  see jH, gK, PRB 81, 115126


--------------------------------------------------------------------------------------------------------




----------------------------------------- Iteration    1(  27)  ---------------------------------------


    POTLOK:  cpu time   20.6748: real time   20.7312
    SETDIJ:  cpu time    0.2099: real time    0.2104
    TRIAL :  cpu time   53.2831: real time   53.4964
    CORREC:  cpu time   70.4112: real time   70.6713
    CHARGE:  cpu time    2.9245: real time    2.9352
    --------------------------------------------
      LOOP:  cpu time  147.5564: real time  148.1001

 eigenvalue-minimisations  :     0
 total energy-change (2. order) :-0.6450578E-02  (-0.3430506E-02)
 number of electron      30.0000000 magnetization 
 augmentation part       -0.0817998 magnetization 

 Free energy of the ion-electron system (eV)
  ---------------------------------------------------
  alpha Z        PSCENC =         0.06681519
  Ewald energy   TEWEN  =      2321.73379858
  -Hartree energ DENC   =     -3164.54408103
  -exchange      EXHF   =       320.00812701
  -V(xc)+E(xc)   XCENC  =         0.00000000
  PAW double counting   =     35813.23420886   -35814.38351611
  entropy T*S    EENTRO =        -0.00000000
  eigenvalues    EBANDS =      -572.74760436
  atomic energy  EATOM  =       973.96723249
  ---------------------------------------------------
  free energy    TOTEN  =      -122.66501938 eV

  energy without entropy =     -122.66501938  energy(sigma->0) =     -122.66501938
  exchange ACFDT corr.  =         0.00000000  see jH, gK, PRB 81, 115126


--------------------------------------------------------------------------------------------------------




----------------------------------------- Iteration    1(  28)  ---------------------------------------


    POTLOK:  cpu time   20.6564: real time   20.7128
    SETDIJ:  cpu time    0.2078: real time    0.2083
    TRIAL :  cpu time   52.9296: real time   53.1432
    CORREC:  cpu time   70.1496: real time   70.4098
    CHARGE:  cpu time    2.9303: real time    2.9410
    --------------------------------------------
      LOOP:  cpu time  146.9265: real time  147.4703

 eigenvalue-minimisations  :     0
 total energy-change (2. order) :-0.3429947E-02  (-0.2121768E-02)
 number of electron      30.0000000 magnetization 
 augmentation part       -0.0816075 magnetization 

 Free energy of the ion-electron system (eV)
  ---------------------------------------------------
  alpha Z        PSCENC =         0.06681519
  Ewald energy   TEWEN  =      2321.73379858
  -Hartree energ DENC   =     -3164.44943708
  -exchange      EXHF   =       319.99861302
  -V(xc)+E(xc)   XCENC  =         0.00000000
  PAW double counting   =     35747.58686349   -35748.73633859
  entropy T*S    EENTRO =        -0.00000000
  eigenvalues    EBANDS =      -572.83599642
  atomic energy  EATOM  =       973.96723249
  ---------------------------------------------------
  free energy    TOTEN  =      -122.66844933 eV

  energy without entropy =     -122.66844933  energy(sigma->0) =     -122.66844933
  exchange ACFDT corr.  =         0.00000000  see jH, gK, PRB 81, 115126


--------------------------------------------------------------------------------------------------------




----------------------------------------- Iteration    1(  29)  ---------------------------------------


    POTLOK:  cpu time   20.4164: real time   20.4719
    SETDIJ:  cpu time    0.2083: real time    0.2088
    TRIAL :  cpu time   52.6894: real time   52.9158
    CORREC:  cpu time   70.3148: real time   70.5747
    CHARGE:  cpu time    2.9352: real time    2.9462
    --------------------------------------------
      LOOP:  cpu time  146.6166: real time  147.1725

 eigenvalue-minimisations  :     0
 total energy-change (2. order) :-0.2122819E-02  (-0.1385577E-02)
 number of electron      30.0000000 magnetization 
 augmentation part       -0.0814693 magnetization 

 Free energy of the ion-electron system (eV)
  ---------------------------------------------------
  alpha Z        PSCENC =         0.06681519
  Ewald energy   TEWEN  =      2321.73379858
  -Hartree energ DENC   =     -3164.35322856
  -exchange      EXHF   =       319.98439651
  -V(xc)+E(xc)   XCENC  =         0.00000000
  PAW double counting   =     35694.50197114   -35695.65167393
  entropy T*S    EENTRO =        -0.00000000
  eigenvalues    EBANDS =      -572.91988356
  atomic energy  EATOM  =       973.96723249
  ---------------------------------------------------
  free energy    TOTEN  =      -122.67057214 eV

  energy without entropy =     -122.67057214  energy(sigma->0) =     -122.67057214
  exchange ACFDT corr.  =         0.00000000  see jH, gK, PRB 81, 115126


--------------------------------------------------------------------------------------------------------




----------------------------------------- Iteration    1(  30)  ---------------------------------------


    POTLOK:  cpu time   20.3696: real time   20.4250
    SETDIJ:  cpu time    0.2075: real time    0.2080
    TRIAL :  cpu time   52.9178: real time   53.1298
    CORREC:  cpu time   69.8115: real time   70.0701
    CHARGE:  cpu time    2.9322: real time    2.9431
    --------------------------------------------
      LOOP:  cpu time  146.2910: real time  146.8313

 eigenvalue-minimisations  :     0
 total energy-change (2. order) :-0.1386670E-02  (-0.9280354E-03)
 number of electron      30.0000000 magnetization 
 augmentation part       -0.0814116 magnetization 

 Free energy of the ion-electron system (eV)
  ---------------------------------------------------
  alpha Z        PSCENC =         0.06681519
  Ewald energy   TEWEN  =      2321.73379858
  -Hartree energ DENC   =     -3164.45980041
  -exchange      EXHF   =       319.99687584
  -V(xc)+E(xc)   XCENC  =         0.00000000
  PAW double counting   =     35667.85737944   -35669.00754125
  entropy T*S    EENTRO =        -0.00000000
  eigenvalues    EBANDS =      -572.82671869
  atomic energy  EATOM  =       973.96723249
  ---------------------------------------------------
  free energy    TOTEN  =      -122.67195881 eV

  energy without entropy =     -122.67195881  energy(sigma->0) =     -122.67195881
  exchange ACFDT corr.  =         0.00000000  see jH, gK, PRB 81, 115126


--------------------------------------------------------------------------------------------------------




----------------------------------------- Iteration    1(  31)  ---------------------------------------


    POTLOK:  cpu time   20.1482: real time   20.2030
    SETDIJ:  cpu time    0.2065: real time    0.2070
    TRIAL :  cpu time   53.2080: real time   53.4219
    CORREC:  cpu time   69.2599: real time   69.5164
    CHARGE:  cpu time    2.9341: real time    2.9450
    --------------------------------------------
      LOOP:  cpu time  145.8032: real time  146.3429

 eigenvalue-minimisations  :     0
 total energy-change (2. order) :-0.9286238E-03  (-0.6606791E-03)
 number of electron      30.0000000 magnetization 
 augmentation part       -0.0814049 magnetization 

 Free energy of the ion-electron system (eV)
  ---------------------------------------------------
  alpha Z        PSCENC =         0.06681519
  Ewald energy   TEWEN  =      2321.73379858
  -Hartree energ DENC   =     -3164.55209323
  -exchange      EXHF   =       320.01034926
  -V(xc)+E(xc)   XCENC  =         0.00000000
  PAW double counting   =     35663.79740256   -35664.94790886
  entropy T*S    EENTRO =        -0.00000000
  eigenvalues    EBANDS =      -572.74848342
  atomic energy  EATOM  =       973.96723249
  ---------------------------------------------------
  free energy    TOTEN  =      -122.67288744 eV

  energy without entropy =     -122.67288744  energy(sigma->0) =     -122.67288744
  exchange ACFDT corr.  =        -0.00000000  see jH, gK, PRB 81, 115126


--------------------------------------------------------------------------------------------------------




----------------------------------------- Iteration    1(  32)  ---------------------------------------


    POTLOK:  cpu time   19.8949: real time   19.9491
    SETDIJ:  cpu time    0.2072: real time    0.2077
    TRIAL :  cpu time   52.9846: real time   53.1982
    CORREC:  cpu time   69.3177: real time   69.5756
    CHARGE:  cpu time    2.9321: real time    2.9431
    --------------------------------------------
      LOOP:  cpu time  145.3876: real time  145.9273

 eigenvalue-minimisations  :     0
 total energy-change (2. order) :-0.6610412E-03  (-0.4876786E-03)
 number of electron      30.0000000 magnetization 
 augmentation part       -0.0814093 magnetization 

 Free energy of the ion-electron system (eV)
  ---------------------------------------------------
  alpha Z        PSCENC =         0.06681519
  Ewald energy   TEWEN  =      2321.73379858
  -Hartree energ DENC   =     -3164.52316032
  -exchange      EXHF   =       320.00825634
  -V(xc)+E(xc)   XCENC  =         0.00000000
  PAW double counting   =     35671.55300245   -35672.70356425
  entropy T*S    EENTRO =        -0.00000000
  eigenvalues    EBANDS =      -572.77592894
  atomic energy  EATOM  =       973.96723249
  ---------------------------------------------------
  free energy    TOTEN  =      -122.67354848 eV

  energy without entropy =     -122.67354848  energy(sigma->0) =     -122.67354848
  exchange ACFDT corr.  =         0.00000000  see jH, gK, PRB 81, 115126


--------------------------------------------------------------------------------------------------------




----------------------------------------- Iteration    1(  33)  ---------------------------------------


    POTLOK:  cpu time   19.8187: real time   19.8727
    SETDIJ:  cpu time    0.2076: real time    0.2081
    TRIAL :  cpu time   52.9060: real time   53.1200
    CORREC:  cpu time   69.2192: real time   69.4759
    CHARGE:  cpu time    2.9401: real time    2.9513
    --------------------------------------------
      LOOP:  cpu time  145.1457: real time  145.6845

 eigenvalue-minimisations  :     0
 total energy-change (2. order) :-0.4880777E-03  (-0.3552831E-03)
 number of electron      30.0000000 magnetization 
 augmentation part       -0.0814052 magnetization 

 Free energy of the ion-electron system (eV)
  ---------------------------------------------------
  alpha Z        PSCENC =         0.06681519
  Ewald energy   TEWEN  =      2321.73379858
  -Hartree energ DENC   =     -3164.48131993
  -exchange      EXHF   =       320.00222791
  -V(xc)+E(xc)   XCENC  =         0.00000000
  PAW double counting   =     35682.77150873   -35683.92200014
  entropy T*S    EENTRO =        -0.00000000
  eigenvalues    EBANDS =      -572.81229938
  atomic energy  EATOM  =       973.96723249
  ---------------------------------------------------
  free energy    TOTEN  =      -122.67403656 eV

  energy without entropy =     -122.67403656  energy(sigma->0) =     -122.67403656
  exchange ACFDT corr.  =         0.00000000  see jH, gK, PRB 81, 115126


--------------------------------------------------------------------------------------------------------




----------------------------------------- Iteration    1(  34)  ---------------------------------------


    POTLOK:  cpu time   19.7235: real time   19.7770
    SETDIJ:  cpu time    0.2072: real time    0.2080
    TRIAL :  cpu time   53.0132: real time   53.2424
    CORREC:  cpu time   68.9535: real time   69.2111
[...]
    TRIAL :  cpu time   53.0635: real time   53.2775
    CORREC:  cpu time   68.5885: real time   68.8450
    CHARGE:  cpu time    2.9250: real time    2.9360
    --------------------------------------------
      LOOP:  cpu time  143.8447: real time  144.3808

 eigenvalue-minimisations  :     0
 total energy-change (2. order) :-0.5354887E-06  (-0.2185673E-06)
 number of electron      30.0000000 magnetization 
 augmentation part       -0.0813843 magnetization 

 Free energy of the ion-electron system (eV)
  ---------------------------------------------------
  alpha Z        PSCENC =         0.06681519
  Ewald energy   TEWEN  =      2321.73379858
  -Hartree energ DENC   =     -3164.57616589
  -exchange      EXHF   =       320.02315635
  -V(xc)+E(xc)   XCENC  =         0.00000000
  PAW double counting   =     35705.19160883   -35706.34209754
  entropy T*S    EENTRO =        -0.00000000
  eigenvalues    EBANDS =      -572.73934690
  atomic energy  EATOM  =       973.96723249
  ---------------------------------------------------
  free energy    TOTEN  =      -122.67499890 eV

  energy without entropy =     -122.67499890  energy(sigma->0) =     -122.67499890
  exchange ACFDT corr.  =         0.00000000  see jH, gK, PRB 81, 115126


--------------------------------------------------------------------------------------------------------




----------------------------------------- Iteration    1(  47)  ---------------------------------------


    POTLOK:  cpu time   19.0270: real time   19.0788
    SETDIJ:  cpu time    0.2066: real time    0.2074
    TRIAL :  cpu time   52.9323: real time   53.1455
    CORREC:  cpu time   68.5147: real time   68.7718
    CHARGE:  cpu time    2.9341: real time    2.9451
    --------------------------------------------
      LOOP:  cpu time  143.6489: real time  144.1856

 eigenvalue-minimisations  :     0
 total energy-change (2. order) :-0.2175968E-06  (-0.1492629E-06)
 number of electron      30.0000000 magnetization 
 augmentation part       -0.0813842 magnetization 

 Free energy of the ion-electron system (eV)
  ---------------------------------------------------
  alpha Z        PSCENC =         0.06681519
  Ewald energy   TEWEN  =      2321.73379858
  -Hartree energ DENC   =     -3164.57532186
  -exchange      EXHF   =       320.02313189
  -V(xc)+E(xc)   XCENC  =         0.00000000
  PAW double counting   =     35705.68461892   -35706.83510640
  entropy T*S    EENTRO =        -0.00000000
  eigenvalues    EBANDS =      -572.74016792
  atomic energy  EATOM  =       973.96723249
  ---------------------------------------------------
  free energy    TOTEN  =      -122.67499912 eV

  energy without entropy =     -122.67499912  energy(sigma->0) =     -122.67499912
  exchange ACFDT corr.  =         0.00000000  see jH, gK, PRB 81, 115126


--------------------------------------------------------------------------------------------------------




----------------------------------------- Iteration    1(  48)  ---------------------------------------


    POTLOK:  cpu time   19.0226: real time   19.0744
    SETDIJ:  cpu time    0.2057: real time    0.2062
    TRIAL :  cpu time   52.9192: real time   53.1341
    CORREC:  cpu time   68.6486: real time   68.9035
    CHARGE:  cpu time    2.9303: real time    2.9412
    --------------------------------------------
      LOOP:  cpu time  143.7631: real time  144.2985

 eigenvalue-minimisations  :     0
 total energy-change (2. order) :-0.1484839E-06  (-0.9316118E-07)
 number of electron      30.0000000 magnetization 
 augmentation part       -0.0813838 magnetization 

 Free energy of the ion-electron system (eV)
  ---------------------------------------------------
  alpha Z        PSCENC =         0.06681519
  Ewald energy   TEWEN  =      2321.73379858
  -Hartree energ DENC   =     -3164.57522787
  -exchange      EXHF   =       320.02318512
  -V(xc)+E(xc)   XCENC  =         0.00000000
  PAW double counting   =     35706.19592838   -35707.34641499
  entropy T*S    EENTRO =        -0.00000000
  eigenvalues    EBANDS =      -572.74031615
  atomic energy  EATOM  =       973.96723249
  ---------------------------------------------------
  free energy    TOTEN  =      -122.67499927 eV

  energy without entropy =     -122.67499927  energy(sigma->0) =     -122.67499927
  exchange ACFDT corr.  =         0.00000000  see jH, gK, PRB 81, 115126


--------------------------------------------------------------------------------------------------------




----------------------------------------- Iteration    1(  49)  ---------------------------------------


    POTLOK:  cpu time   19.0271: real time   19.0789
    SETDIJ:  cpu time    0.2081: real time    0.2086
    TRIAL :  cpu time   52.7638: real time   52.9765
    CORREC:  cpu time   68.7023: real time   68.9583
    CHARGE:  cpu time    2.9272: real time    2.9382
    --------------------------------------------
      LOOP:  cpu time  143.6633: real time  144.1976

 eigenvalue-minimisations  :     0
 total energy-change (2. order) :-0.9231462E-07  (-0.7871748E-07)
 number of electron      30.0000000 magnetization 
 augmentation part       -0.0813832 magnetization 

 Free energy of the ion-electron system (eV)
  ---------------------------------------------------
  alpha Z        PSCENC =         0.06681519
  Ewald energy   TEWEN  =      2321.73379858
  -Hartree energ DENC   =     -3164.57570978
  -exchange      EXHF   =       320.02328461
  -V(xc)+E(xc)   XCENC  =         0.00000000
  PAW double counting   =     35706.50174392   -35707.65223074
  entropy T*S    EENTRO =        -0.00000000
  eigenvalues    EBANDS =      -572.73993363
  atomic energy  EATOM  =       973.96723249
  ---------------------------------------------------
  free energy    TOTEN  =      -122.67499936 eV

  energy without entropy =     -122.67499936  energy(sigma->0) =     -122.67499936
  exchange ACFDT corr.  =         0.00000000  see jH, gK, PRB 81, 115126


--------------------------------------------------------------------------------------------------------


  average scaling for gradient   0.7560


 average (electrostatic) potential at core
  the test charge radii are     0.5902  0.5770  0.4325
  (the norm of the test charge is              1.0000)
       1 -79.1349       2 -64.7991       3 -63.9217       4 -64.4071       5 -63.9218
       6 -64.7990       7 -25.4068       8 -25.6317       9 -25.8352      10 -25.6316
      11 -25.4069
 
 
 
 E-fermi :  -9.3586     XC(G=0):   0.0000     alpha+bet : -0.0176


 k-point     1 :       0.0000    0.0000    0.0000
  band No.  band energies     occupation 
      1     -34.1943      2.00000
      2     -29.6547      2.00000
      3     -28.1413      2.00000
      4     -23.3927      2.00000
      5     -23.2968      2.00000
      6     -19.6520      2.00000
      7     -17.9813      2.00000
      8     -17.8139      2.00000
      9     -16.3007      2.00000
     10     -15.7077      2.00000
     11     -14.7326      2.00000
     12     -14.1645      2.00000
     13     -11.4055      2.00000
     14     -10.4500      2.00000
     15      -9.4820      2.00000
     16       0.0126      0.00000
     17       0.1265      0.00000
     18       0.1326      0.00000
     19       0.1333      0.00000
     20       0.1364      0.00000
     21       0.1390      0.00000
     22       0.1818      0.00000
     23       0.2538      0.00000
     24       0.2557      0.00000


--------------------------------------------------------------------------------------------------------


 soft charge-density along one line, spin component           1
         0         1         2         3         4         5         6         7         8         9
 total charge-density along one line
 
 pseudopotential strength for first ion, spin component:           1
 17.709  24.791   0.000  -0.086  -0.015   0.000  -0.128  -0.023
 24.791  34.706   0.000  -0.120  -0.021   0.000  -0.179  -0.032
  0.000   0.000  -5.566  -0.000  -0.000  -8.316  -0.000  -0.000
 -0.086  -0.120  -0.000  -5.544   0.005  -0.000  -8.282   0.008
 -0.015  -0.021  -0.000   0.005  -5.571  -0.000   0.008  -8.323
  0.000   0.000  -8.316  -0.000  -0.000 -12.404  -0.000  -0.000
 -0.128  -0.179  -0.000  -8.282   0.008  -0.000 -12.350   0.012
 -0.023  -0.032  -0.000   0.008  -8.323  -0.000   0.012 -12.414
 total augmentation occupancy for first ion, spin component:           1
 17.653  -9.224   0.007  -6.763  -1.208  -0.004   3.564   0.637
 -9.224   5.018  -0.005   4.484   0.801   0.002  -2.196  -0.392
  0.007  -0.005  14.207   0.008  -0.020  -6.812  -0.005   0.011
 -6.763   4.484   0.008   9.153   0.350  -0.005  -3.762  -0.121
 -1.208   0.801  -0.020   0.350   7.260   0.011  -0.121  -3.109
 -0.004   0.002  -6.812  -0.005   0.011   3.278   0.003  -0.006
  3.564  -2.196  -0.005  -3.762  -0.121   0.003   1.616   0.052
  0.637  -0.392   0.011  -0.121  -3.109  -0.006   0.052   1.336


------------------------ aborting loop because EDIFF is reached ----------------------------------------


    FORLOC:  cpu time    2.1876: real time    2.1935
    FORHF :  cpu time   37.1332: real time   37.2363
    FORNL :  cpu time    1.5728: real time    1.5769
    FORCOR:  cpu time   18.0109: real time   18.0599
    OFIELD:  cpu time    0.0560: real time    0.0562

 VOLUME and BASIS-vectors are now :
 -----------------------------------------------------------------------------
  energy-cutoff  :     2000.00
  volume of cell :    42875.00
      direct lattice vectors                 reciprocal lattice vectors
    35.000000000  0.000000000  0.000000000     0.028571429  0.000000000  0.000000000
     0.000000000 35.000000000  0.000000000     0.000000000  0.028571429  0.000000000
     0.000000000  0.000000000 35.000000000     0.000000000  0.000000000  0.028571429

  length of vectors
    35.000000000 35.000000000 35.000000000     0.028571429  0.028571429  0.028571429


 FORCES acting on ions:
    Electron-Ion                     Ewald-Force                    Non-Local-Force
 -----------------------------------------------------------------------------------------------
   -.470E+02 0.265E+00 -.263E+03   0.539E+02 -.304E+00 0.302E+03   -.593E+01 0.328E-01 -.332E+02
   -.144E+02 0.183E+03 -.775E+02   0.139E+02 -.186E+03 0.752E+02   0.381E+00 0.308E+01 0.216E+01
   0.165E+02 0.165E+03 0.956E+02   -.164E+02 -.165E+03 -.948E+02   -.757E-01 -.334E-01 -.432E+00
   0.335E+02 -.191E+00 0.189E+03   -.333E+02 0.190E+00 -.187E+03   -.101E+00 0.455E-03 -.578E+00
   0.175E+02 -.166E+03 0.951E+02   -.173E+02 0.165E+03 -.943E+02   -.762E-01 0.335E-01 -.433E+00
   -.133E+02 -.183E+03 -.780E+02   0.129E+02 0.185E+03 0.757E+02   0.398E+00 -.308E+01 0.215E+01
   -.786E+01 0.717E+02 -.430E+02   0.846E+01 -.768E+02 0.463E+02   -.603E+00 0.516E+01 -.331E+01
   0.672E+01 0.721E+02 0.387E+02   -.720E+01 -.774E+02 -.415E+02   0.486E+00 0.534E+01 0.279E+01
   0.143E+02 -.793E-01 0.805E+02   -.154E+02 0.853E-01 -.864E+02   0.107E+01 -.580E-02 0.600E+01
   0.713E+01 -.722E+02 0.385E+02   -.764E+01 0.775E+02 -.412E+02   0.516E+00 -.535E+01 0.278E+01
   -.745E+01 -.716E+02 -.433E+02   0.802E+01 0.767E+02 0.466E+02   -.574E+00 -.515E+01 -.333E+01
 -----------------------------------------------------------------------------------------------
   0.568E+01 -.291E-01 0.320E+02   0.107E-13 0.000E+00 0.853E-13   -.451E+01 0.229E-01 -.254E+02
 
 
 POSITION                                       TOTAL-FORCE (eV/Angst)
 -----------------------------------------------------------------------------------
     34.91697      0.00071      1.05520        -0.266017      0.000087     -1.478801
     34.79715     33.85827      0.36493         0.035501      0.927948      0.218754
     34.55322     33.80824     33.99549         0.021107      0.248719      0.123256
     34.42532      0.00344     33.29569         0.093927     -0.000880      0.530755
     34.54654      1.19724     33.99908         0.022096     -0.249162      0.121103
     34.79069      1.14451      0.36837         0.040636     -0.929042      0.214488
     34.90151     32.94490      0.93743        -0.038093      0.340641     -0.213992
     34.46635     32.85414     33.49583         0.032033      0.323649      0.172813
     34.23632      0.00448     32.23127         0.060919     -0.000101      0.353654
     34.45437      2.15227     33.50220         0.033706     -0.323267      0.172034
     34.88983      2.05670      0.94357        -0.035814     -0.338591     -0.214063
 -----------------------------------------------------------------------------------
    total drift:                                0.000005     -0.000104     -0.000925


--------------------------------------------------------------------------------------------------------



  FREE ENERGIE OF THE ION-ELECTRON SYSTEM (eV)
  ---------------------------------------------------
  free  energy   TOTEN  =      -122.67499936 eV

  energy  without entropy=     -122.67499936  energy(sigma->0) =     -122.67499936
 


--------------------------------------------------------------------------------------------------------


    POTLOK:  cpu time   19.2149: real time   19.2674


--------------------------------------------------------------------------------------------------------


     LOOP+:  cpu time 7280.4997: real time 7306.9834
    4ORBIT:  cpu time    0.0000: real time    0.0000

 total amount of memory used by VASP on root node  4922465. kBytes
========================================================================

   base      :      30000. kBytes
   nonl-proj :     200278. kBytes
   fftplans  :    1713006. kBytes
   grid      :    2822242. kBytes
   one-center:          3. kBytes
   HF        :          9. kBytes
   nonlr-proj:        186. kBytes
   wavefun   :     156741. kBytes
 
  
  
 General timing and accounting informations for this job:
 ========================================================
  
                  Total CPU time used (sec):     8225.300
                            User time (sec):     7478.630
                          System time (sec):      746.670
                         Elapsed time (sec):     8255.587
  
                   Maximum memory used (kb):     7195064.
                   Average memory used (kb):           0.
  
                          Minor page faults:      2067319
                          Major page faults:            5
                 Voluntary context switches:       978538
 
 PROFILE, used timers:      39
 =============================
 
 index                 routine                    time                            calls level
----------------------------------------------------------------------------------------------
    1    total_time                         8255.588446                                1   1
    2      w1_copy                               2.405460                           1280   2
    3      fftwav_mpi                          265.792082                           1030   2
    4      fftext_mpi                            1.010787                              6   2
    5      overl                                 0.000770                            655   2
    6      orth1                                 2.375221                            404   2
    7      lincom                                2.693626                            270   2
    8      eccp                                 40.840908                            822   2
    9      hamiltmu                             39.269820                             61   2
   10        vhamil                                7.504412                          122   3
   11        overl1                                0.000114                          122   3
   12        kinhamil                             19.309968                          122   3
   13          fftext_mpi                           19.073058                        122   4
   14      pdssyex_zheevx                        2.628737                             93   2
   15      fock_acc                           1969.321718                            132   2
   16        w1_copy                               2.077123                          792   3
   17        fftwav_mpi                          107.191282                          792   3
   18        fock_charge_mu                      112.461884                          528   3
   19          racc0mu_hf                            1.026556                        528   4
   20        rpromu_hf                             4.023942                          528   3
   21        overl1                                0.000237                          264   3
   22        fftext_mpi                           31.042199                          264   3
   23      hamilt_local                         70.866349                            264   2
   24        vhamil                               15.696446                          264   3
   25        kinhamil                             55.169206                          264   3
   26          fftext_mpi                           54.651380                        264   4
   27      w1_dscal                              7.659974                            264   2
   28      eddiag                             2046.385201                             44   2
   29        fock_acc                           1968.358299                          132   3
   30          w1_copy                               1.568275                        792   4
   31          fftwav_mpi                          105.552618                        792   4
   32          fock_charge_mu                      112.827702                        528   4
   33            racc0mu_hf                            1.372211                      528   5
   34          rpromu_hf                             4.215175                        528   4
   35          overl1                                0.000229                        264   4
   36          fftext_mpi                           30.340498                        264   4
   37        fftwav_mpi                           64.609647                          264   3
   38        eccp                                 12.084048                          264   3
   39      rpro1_hf                              0.737038                            384   2
 
 Flat profile
 ============
 
             routine name                   CPU           calls
 ---------------------------------------------------------------
 total_time                           3803.600755           1
 fock_acc                             3426.378853         264
 fftwav_mpi                            543.145629        2878
 fock_charge_mu                        222.890819        1056
 fftext_mpi                            136.117922         920
 eccp                                   52.924956        1086
 vhamil                                 23.200857         386
 hamiltmu                               12.455327          61
 rpromu_hf                               8.239118        1056
 w1_dscal                                7.659974         264
 w1_copy                                 6.050858        2864
 lincom                                  2.693626         270
 pdssyex_zheevx                          2.628737          93
 racc0mu_hf                              2.398767        1056
 orth1                                   2.375221         404
 eddiag                                  1.333207          44
 kinhamil                                0.754736         386
 rpro1_hf                                0.737038         384
 overl                                   0.000770         655
 hamilt_local                            0.000697         264
 overl1                                  0.000581         650
 ---------------------------------------------------------------
  summed up times    8255.58844590187     
 
Profiling took   0.012969  0.005659  0.003315  0.003292 seconds
Profiling took   0.008573 seconds
