 vasp.6.1.2 22Jul20 (build Jan  5 2021 21:18:56) complex                         
 executed on             LinuxPGI date 2021.02.18  02:33:14
 running on   32 total cores
 distrk:  each k-point on   32 cores,    1 groups
 distr:  one band on NCORE=   8 cores,    4 groups


--------------------------------------------------------------------------------------------------------


 INCAR:
 POTCAR:    PAW_PBE H_s 15May2010                 
 POTCAR:    PAW_PBE C_s 06Sep2000                 
 POTCAR:    PAW_PBE O_s 07Sep2000                 
 POTCAR:    PAW_PBE H_s 15May2010                 
   VRHFIN =H: ultrasoft test                                                                        
   LEXCH  = PE                                                                                      
   EATOM  =    12.4884 eV,    0.9179 Ry                                                             
                                                                                                    
   TITEL  = PAW_PBE H_s 15May2010                                                                   
   LULTRA =        F    use ultrasoft PP ?                                                          
   IUNSCR =        0    unscreen: 0-lin 1-nonlin 2-no                                               
   RPACOR =    0.000    partial core radius                                                         
   POMASS =    1.000; ZVAL   =    1.000    mass and valenz                                          
   RCORE  =    1.300    outmost cutoff radius                                                       
   RWIGS  =    0.700; RWIGS  =    0.370    wigner-seitz radius (au A)                               
   ENMAX  =  200.000; ENMIN  =  150.000 eV                                                          
   RCLOC  =    0.701    cutoff for local pot                                                        
   LCOR   =        T    correct aug charges                                                         
   LPAW   =        T    paw PP                                                                      
   EAUG   =  300.000                                                                                
   RMAX   =    1.330    core radius for proj-oper                                                   
   RAUG   =    1.200    factor for augmentation sphere                                              
   RDEP   =    1.337    radius for radial grids                                                     
   RDEPT  =    1.114    core radius for aug-charge                                                  
                                                                                                    
   Atomic configuration                                                                             
    2 entries                                                                                       
     n  l   j            E        occ.                                                              
     1  0  0.50        -6.4927   1.0000                                                             
     2  1  0.50        -3.4015   0.0000                                                             
   Description                                                                                      
     l       E           TYP  RCUT    TYP  RCUT                                                     
     0     -6.4927494     23  1.300                                                                 
     0      6.8029130     23  1.300                                                                 
     1     -4.0817478     23  1.300                                                                 
  local pseudopotential read in
  atomic valenz-charges read in
  non local Contribution for L=            0  read in
    real space projection operators read in
  non local Contribution for L=            0  read in
    real space projection operators read in
  non local Contribution for L=            1  read in
    real space projection operators read in
    PAW grid and wavefunctions read in
 
   number of l-projection  operators is LMAX  =            3
   number of lm-projection operators is LMMAX =            5
 
 POTCAR:    PAW_PBE C_s 06Sep2000                 
   VRHFIN =C: s2p2                                                                                  
   LEXCH  = PE                                                                                      
   EATOM  =   147.1560 eV,   10.8157 Ry                                                             
                                                                                                    
   TITEL  = PAW_PBE C_s 06Sep2000                                                                   
   LULTRA =        F    use ultrasoft PP ?                                                          
   IUNSCR =        0    unscreen: 0-lin 1-nonlin 2-no                                               
   RPACOR =    0.000    partial core radius                                                         
   POMASS =   12.011; ZVAL   =    4.000    mass and valenz                                          
   RCORE  =    1.850    outmost cutoff radius                                                       
   RWIGS  =    1.890; RWIGS  =    1.000    wigner-seitz radius (au A)                               
   ENMAX  =  273.911; ENMIN  =  205.433 eV                                                          
   RCLOC  =    0.804    cutoff for local pot                                                        
   LCOR   =        T    correct aug charges                                                         
   LPAW   =        T    paw PP                                                                      
   EAUG   =  439.243                                                                                
   DEXC   =    0.000                                                                                
   RMAX   =    1.897    core radius for proj-oper                                                   
   RAUG   =    1.300    factor for augmentation sphere                                              
   RDEP   =    1.940    radius for radial grids                                                     
   RDEPT  =    1.573    core radius for aug-charge                                                  
                                                                                                    
   Atomic configuration                                                                             
    4 entries                                                                                       
     n  l   j            E        occ.                                                              
     1  0  0.50      -273.3789   2.0000                                                             
     2  0  0.50       -13.7508   2.0000                                                             
     2  1  0.50        -5.2854   2.0000                                                             
     3  2  1.50        -1.3606   0.0000                                                             
   Description                                                                                      
     l       E           TYP  RCUT    TYP  RCUT                                                     
     0    -13.7508457     23  1.500                                                                 
     0    -11.0934578     23  1.500                                                                 
     1     -5.2854381     23  1.850                                                                 
     1     -1.3099858     23  1.850                                                                 
  local pseudopotential read in
  atomic valenz-charges read in
  non local Contribution for L=            0  read in
    real space projection operators read in
  non local Contribution for L=            0  read in
    real space projection operators read in
  non local Contribution for L=            1  read in
    real space projection operators read in
  non local Contribution for L=            1  read in
    real space projection operators read in
    PAW grid and wavefunctions read in
 
   number of l-projection  operators is LMAX  =            4
   number of lm-projection operators is LMMAX =            8
 
 POTCAR:    PAW_PBE O_s 07Sep2000                 
   VRHFIN =O: s2p4                                                                                  
   LEXCH  = PE                                                                                      
   EATOM  =   432.3788 eV,   31.7789 Ry                                                             
                                                                                                    
   TITEL  = PAW_PBE O_s 07Sep2000                                                                   
   LULTRA =        F    use ultrasoft PP ?                                                          
   IUNSCR =        0    unscreen: 0-lin 1-nonlin 2-no                                               
   RPACOR =    0.000    partial core radius                                                         
   POMASS =   16.000; ZVAL   =    6.000    mass and valenz                                          
   RCORE  =    1.850    outmost cutoff radius                                                       
   RWIGS  =    1.700; RWIGS  =    0.900    wigner-seitz radius (au A)                               
   ENMAX  =  282.853; ENMIN  =  212.140 eV                                                          
   RCLOC  =    0.804    cutoff for local pot                                                        
   LCOR   =        T    correct aug charges                                                         
   LPAW   =        T    paw PP                                                                      
   EAUG   =  412.352                                                                                
   RMAX   =    1.897    core radius for proj-oper                                                   
   RAUG   =    1.300    factor for augmentation sphere                                              
   RDEP   =    1.878    radius for radial grids                                                     
   RDEPT  =    1.572    core radius for aug-charge                                                  
                                                                                                    
   Atomic configuration                                                                             
    4 entries                                                                                       
     n  l   j            E        occ.                                                              
     1  0  0.50      -514.6923   2.0000                                                             
     2  0  0.50       -23.9615   2.0000                                                             
     2  1  0.50        -9.0305   4.0000                                                             
     3  2  1.50        -1.3606   0.0000                                                             
   Description                                                                                      
     l       E           TYP  RCUT    TYP  RCUT                                                     
     0    -23.9615315     23  1.500                                                                 
     0    -25.3221141     23  1.500                                                                 
     1     -9.0304908     23  1.850                                                                 
     1     -7.3935399     23  1.850                                                                 
  local pseudopotential read in
  atomic valenz-charges read in
  non local Contribution for L=            0  read in
    real space projection operators read in
  non local Contribution for L=            0  read in
    real space projection operators read in
  non local Contribution for L=            1  read in
    real space projection operators read in
  non local Contribution for L=            1  read in
    real space projection operators read in
    PAW grid and wavefunctions read in
 
   number of l-projection  operators is LMAX  =            4
   number of lm-projection operators is LMMAX =            8
 
  PAW_PBE H_s 15May2010                 :
 energy of atom  1       EATOM=  -12.4884
 kinetic energy error for atom=    0.0000 (will be added to EATOM!!)
  PAW_PBE C_s 06Sep2000                 :
 energy of atom  2       EATOM= -147.1560
 kinetic energy error for atom=    0.0002 (will be added to EATOM!!)
  PAW_PBE O_s 07Sep2000                 :
 energy of atom  3       EATOM= -432.3788
 kinetic energy error for atom=    0.0004 (will be added to EATOM!!)
 
 
 POSCAR:  H  C  O
  positions in cartesian coordinates
  No initial velocities read in
 exchange correlation table for  LEXCH =        8
   RHO(1)=    0.500       N(1)  =     2000
   RHO(2)=  100.500       N(2)  =     4000
 


--------------------------------------------------------------------------------------------------------


 ion  position               nearest neighbor table
   1  0.975  0.958  0.015-   7 1.09
   2  0.025  0.958  0.015-   7 1.09
   3  0.000  0.000  0.000-   7 1.09
   4  0.000  0.958  0.971-   7 1.09
   5  0.989  0.116  0.981-   8 0.96
   6  0.011  0.118  0.018-   8 0.96
   7  0.000  0.969  0.000-   4 1.09   2 1.09   1 1.09   3 1.09
   8  0.000  0.100  0.000-   6 0.96   5 0.96
 
  LATTYP: Found a simple cubic cell.
 ALAT       =    35.0000000000
  
  Lattice vectors:
  
 A1 = (  35.0000000000,   0.0000000000,   0.0000000000)
 A2 = (   0.0000000000,  35.0000000000,   0.0000000000)
 A3 = (   0.0000000000,   0.0000000000,  35.0000000000)


Analysis of symmetry for initial positions (statically):
=====================================================================
 Subroutine PRICEL returns:
 Original cell was already a primitive cell.
 

 Routine SETGRP: Setting up the symmetry group for a 
 simple cubic supercell.


 Subroutine GETGRP returns: Found  1 space group operations
 (whereof  1 operations were pure point group operations)
 out of a pool of 48 trial point group operations.


The static configuration has the point symmetry C_1 .


Analysis of symmetry for dynamics (positions and initial velocities):
=====================================================================
 Subroutine PRICEL returns:
 Original cell was already a primitive cell.
 

 Routine SETGRP: Setting up the symmetry group for a 
 simple cubic supercell.


 Subroutine GETGRP returns: Found  1 space group operations
 (whereof  1 operations were pure point group operations)
 out of a pool of 48 trial point group operations.


The dynamic configuration has the point symmetry C_1 .


 Subroutine INISYM returns: Found  1 space group operations
 (whereof  1 operations are pure point group operations),
 and found     1 'primitive' translations


----------------------------------------------------------------------------------------

                                     Primitive cell                                     

  volume of cell :   42875.0000

  direct lattice vectors                    reciprocal lattice vectors
    35.000000000  0.000000000  0.000000000     0.028571429  0.000000000  0.000000000
     0.000000000 35.000000000  0.000000000     0.000000000  0.028571429  0.000000000
     0.000000000  0.000000000 35.000000000     0.000000000  0.000000000  0.028571429

  length of vectors
    35.000000000 35.000000000 35.000000000     0.028571429  0.028571429  0.028571429

  position of ions in fractional coordinates (direct lattice)
     0.974528115  0.958404585  0.014706200
     0.025471885  0.958404585  0.014706200
     0.000000000  0.000000000  0.000000000
     0.000000000  0.958404585  0.970587600
     0.988854402  0.116049234  0.980695258
     0.011450048  0.117688576  0.017620613
     0.000000000  0.968803439  0.000000000
     0.000000000  0.100000000  0.000000000

  ion indices of the primitive-cell ions
   primitive index   ion index
                 1           1
                 2           2
                 3           3
                 4           4
                 5           5
                 6           6
                 7           7
                 8           8

----------------------------------------------------------------------------------------

 
 
 KPOINTS: automatic mesh                          

Automatic generation of k-mesh.
Space group operators:
 irot       det(A)        alpha          n_x          n_y          n_z        tau_x        tau_y        tau_z
    1     1.000000     0.000000     1.000000     0.000000     0.000000     0.000000     0.000000     0.000000
 
 Subroutine IBZKPT returns following result:
 ===========================================
 
 Found      1 irreducible k-points:
 
 Following reciprocal coordinates:
            Coordinates               Weight
  0.000000  0.000000  0.000000      1.000000
 
 Following cartesian coordinates:
            Coordinates               Weight
  0.000000  0.000000  0.000000      1.000000
 


--------------------------------------------------------------------------------------------------------




 Dimension of arrays:
   k-points           NKPTS =      1   k-points in BZ     NKDIM =      1   number of bands    NBANDS=     16
   number of dos      NEDOS =    301   number of ions     NIONS =      8
   non local maximal  LDIM  =      4   non local SUM 2l+1 LMDIM =      8
   total plane-waves  NPLWV = ******
   max r-space proj   IRMAX =      1   max aug-charges    IRDMAX=  29269
   dimension x,y,z NGX =   378 NGY =  378 NGZ =  378
   dimension x,y,z NGXF=   756 NGYF=  756 NGZF=  756
   support grid    NGXF=   756 NGYF=  756 NGZF=  756
   ions per type =               6   1   1
   NGX,Y,Z   is equivalent  to a cutoff of  17.95, 17.95, 17.95 a.u.
   NGXF,Y,Z  is equivalent  to a cutoff of  35.91, 35.91, 35.91 a.u.

 SYSTEM =  C                                       
 POSCAR =   H  C  O                                

 Startparameter for this run:
   NWRITE =      2    write-flag & timer
   PREC   = acc       normal or accurate (medium, high low for compatibility)
   ISTART =      0    job   : 0-new  1-cont  2-samecut
   ICHARG =      2    charge: 1-file 2-atom 10-const
   ISPIN  =      1    spin polarized calculation?
   LNONCOLLINEAR =      F non collinear calculations
   LSORBIT =      F    spin-orbit coupling
   INIWAV =      1    electr: 0-lowe 1-rand  2-diag
   LASPH  =      T    aspherical Exc in radial PAW
   METAGGA=      F    non-selfconsistent MetaGGA calc.

 Electronic Relaxation 1
   ENCUT  = 1000.0 eV  73.50 Ry    8.57 a.u.  90.25 90.25 90.25*2*pi/ulx,y,z
   ENINI  = 1000.0     initial cutoff
   ENAUG  =  439.2 eV  augmentation charge cutoff
   NELM   =     60;   NELMIN=  2; NELMDL= -5     # of ELM steps 
   EDIFF  = 0.1E-06   stopping-criterion for ELM
   LREAL  =      F    real-space projection
   NLSPLINE    = F    spline interpolate recip. space projectors
   LCOMPAT=      F    compatible to vasp.4.4
   GGA_COMPAT  = T    GGA compatible to vasp.4.4-vasp.4.6
   LMAXPAW     = -100 max onsite density
   LMAXMIX     =    2 max onsite mixed and CHGCAR
   VOSKOWN=      0    Vosko Wilk Nusair interpolation
   ROPT   =    0.00000   0.00000   0.00000
 Ionic relaxation
   EDIFFG = 0.1E-05   stopping-criterion for IOM
   NSW    =      0    number of steps for IOM
   NBLOCK =      1;   KBLOCK =      1    inner block; outer block 
   IBRION =     -1    ionic relax: 0-MD 1-quasi-New 2-CG
   NFREE  =      0    steps in history (QN), initial steepest desc. (CG)
   ISIF   =      2    stress and relaxation
   IWAVPR =     10    prediction:  0-non 1-charg 2-wave 3-comb
   ISYM   =      2    0-nonsym 1-usesym 2-fastsym
   LCORR  =      T    Harris-Foulkes like correction to forces

   POTIM  = 0.5000    time-step for ionic-motion
   TEIN   =    0.0    initial temperature
   TEBEG  =    0.0;   TEEND  =   0.0 temperature during run
   SMASS  =  -3.00    Nose mass-parameter (am)
   estimated Nose-frequenzy (Omega)   =  0.10E-29 period in steps = 0.13E+47 mass=  -0.280E-25a.u.
   SCALEE = 1.0000    scale energy and forces
   NPACO  =    256;   APACO  = 16.0  distance and # of slots for P.C.
   PSTRESS=    0.0 pullay stress

  Mass of Ions in am
   POMASS =   1.00 12.01 16.00
  Ionic Valenz
   ZVAL   =   1.00  4.00  6.00
  Atomic Wigner-Seitz radii
   RWIGS  =  -1.00 -1.00 -1.00
  virtual crystal weights 
   VCA    =   1.00  1.00  1.00
   NELECT =      16.0000    total number of electrons
   NUPDOWN=      -1.0000    fix difference up-down

 DOS related values:
   EMIN   =  10.00;   EMAX   =-10.00  energy-range for DOS
   EFERMI =   0.00
   ISMEAR =     0;   SIGMA  =   0.01  broadening in eV -4-tet -1-fermi 0-gaus

 Electronic relaxation 2 (details)
   IALGO  =     38    algorithm
   LDIAG  =      T    sub-space diagonalisation (order eigenvalues)
   LSUBROT=      F    optimize rotation matrix (better conditioning)
   TURBO    =      0    0=normal 1=particle mesh
   IRESTART =      0    0=no restart 2=restart with 2 vectors
   NREBOOT  =      0    no. of reboots
   NMIN     =      0    reboot dimension
   EREF     =   0.00    reference energy to select bands
   IMIX   =      4    mixing-type and parameters
     AMIX     =   0.40;   BMIX     =  1.00
     AMIX_MAG =   1.60;   BMIX_MAG =  1.00
     AMIN     =   0.10
     WC   =   100.;   INIMIX=   1;  MIXPRE=   1;  MAXMIX= -45

 Intra band minimization:
   WEIMIN = 0.0000     energy-eigenvalue tresh-hold
   EBREAK =  0.16E-08  absolut break condition
   DEPER  =   0.30     relativ break condition  

   TIME   =   0.40     timestep for ELM

  volume/ion in A,a.u.               =    5359.38     36166.85
  Fermi-wavevector in a.u.,A,eV,Ry     =   0.117864  0.222730  0.189010  0.013892
  Thomas-Fermi vector in A             =   0.732055
 
 Write flags
   LWAVE        =      T    write WAVECAR
   LDOWNSAMPLE  =      F    k-point downsampling of WAVECAR
   LCHARG       =      T    write CHGCAR
   LVTOT        =      F    write LOCPOT, total local potential
   LVHAR        =      F    write LOCPOT, Hartree potential only
   LELF         =      F    write electronic localiz. function (ELF)
   LORBIT       =      0    0 simple, 1 ext, 2 COOP (PROOUT), +10 PAW based schemes


 Dipole corrections
   LMONO  =      F    monopole corrections only (constant potential shift)
   LDIPOL =      F    correct potential (dipole corrections)
   IDIPOL =      4    1-x, 2-y, 3-z, 4-all directions 
   EPSILON=  1.0000000 bulk dielectric constant

 Exchange correlation treatment:
   GGA     =    --    GGA type
   LEXCH   =     8    internal setting for exchange type
   VOSKOWN=      0    Vosko Wilk Nusair interpolation
   LHFCALC =     F    Hartree Fock is set to
   LHFONE  =     F    Hartree Fock one center treatment
   AEXX    =    0.0000 exact exchange contribution

 Linear response parameters
   LEPSILON=     F    determine dielectric tensor
   LRPA    =     F    only Hartree local field effects (RPA)
   LNABLA  =     F    use nabla operator in PAW spheres
   LVEL    =     F    velocity operator in full k-point grid
   LINTERFAST=   F  fast interpolation
   KINTER  =     0    interpolate to denser k-point grid
   CSHIFT  =0.1000    complex shift for real part using Kramers Kronig
   OMEGAMAX=  -1.0    maximum frequency
   DEG_THRESHOLD= 0.2000000E-02 threshold for treating states as degnerate
   RTIME   =   -0.100 relaxation time in fs
  (WPLASMAI=    0.000 imaginary part of plasma frequency in eV, 0.658/RTIME)
   DFIELD  = 0.0000000 0.0000000 0.0000000 field for delta impulse in time
 
 Orbital magnetization related:
   ORBITALMAG=     F  switch on orbital magnetization
   LCHIMAG   =     F  perturbation theory with respect to B field
   DQ        =  0.001000  dq finite difference perturbation B field
   LLRAUG    =     F  two centre corrections for induced B field



--------------------------------------------------------------------------------------------------------


 Static calculation
 charge density and potential will be updated during run
 non-spin polarized calculation
 Variant of blocked Davidson
 Davidson routine will perform the subspace rotation
 perform sub-space diagonalisation
    after iterative eigenvector-optimisation
 modified Broyden-mixing scheme, WC =      100.0
 initial mixing is a Kerker type mixing with AMIX =  0.4000 and BMIX =      1.0000
 Hartree-type preconditioning will be used
 using additional bands             8
 reciprocal scheme for non local part
 calculate Harris-corrections to forces 
   (improved forces if not selfconsistent)
 use gradient corrections 
 use of overlap-Matrix (Vanderbilt PP)
 Gauss-broadening in eV      SIGMA  =   0.01


--------------------------------------------------------------------------------------------------------


  energy-cutoff  :     1000.00
  volume of cell :    42875.00
      direct lattice vectors                 reciprocal lattice vectors
    35.000000000  0.000000000  0.000000000     0.028571429  0.000000000  0.000000000
     0.000000000 35.000000000  0.000000000     0.000000000  0.028571429  0.000000000
     0.000000000  0.000000000 35.000000000     0.000000000  0.000000000  0.028571429

  length of vectors
    35.000000000 35.000000000 35.000000000     0.028571429  0.028571429  0.028571429


 
 k-points in units of 2pi/SCALE and weight: automatic mesh                          
   0.00000000  0.00000000  0.00000000       1.000
 
 k-points in reciprocal lattice and weights: automatic mesh                          
   0.00000000  0.00000000  0.00000000       1.000
 
 position of ions in fractional coordinates (direct lattice) 
   0.97452811  0.95840459  0.01470620
   0.02547189  0.95840459  0.01470620
   0.00000000  0.00000000  0.00000000
   0.00000000  0.95840459  0.97058760
   0.98885440  0.11604923  0.98069526
   0.01145005  0.11768858  0.01762061
   0.00000000  0.96880344  0.00000000
   0.00000000  0.10000000  0.00000000
 
 position of ions in cartesian coordinates  (Angst):
  34.10848401 33.54416049  0.51471700
   0.89151599 33.54416049  0.51471700
   0.00000000  0.00000000  0.00000000
   0.00000000 33.54416049 33.97056601
  34.60990407  4.06172320 34.32433404
   0.40075167  4.11910016  0.61672147
   0.00000000 33.90812037  0.00000000
   0.00000000  3.50000000  0.00000000
 


--------------------------------------------------------------------------------------------------------


 k-point   1 :   0.0000 0.0000 0.0000  plane waves: 3078417

 maximum and minimum number of plane-waves per node :    384834   384776

 maximum number of plane-waves:   3078417
 maximum index in each direction: 
   IXMAX=   90   IYMAX=   90   IZMAX=   90
   IXMIN=  -90   IYMIN=  -90   IZMIN=  -90


 parallel 3D FFT for wavefunctions:
    minimum data exchange during FFTs selected (reduces bandwidth)
 parallel 3D FFT for charge:
    minimum data exchange during FFTs selected (reduces bandwidth)


 total amount of memory used by VASP MPI-rank0  1992877. kBytes
=======================================================================

   base      :      30000. kBytes
   nonl-proj :     123143. kBytes
   fftplans  :     660854. kBytes
   grid      :    1154248. kBytes
   one-center:          3. kBytes
   wavefun   :      24629. kBytes
 
     INWAV:  cpu time    0.0000: real time    0.0000
 Broyden mixing: mesh for mixing (old mesh)
   NGX =181   NGY =181   NGZ =181
  (NGX  =756   NGY  =756   NGZ  =756)
  gives a total of ****** points

 initial charge density was supplied:
 charge density of overlapping atoms calculated
 number of electron      16.0000000 magnetization 
 keeping initial charge density in first step


--------------------------------------------------------------------------------------------------------


 Maximum index for augmentation-charges          1122 (set IRDMAX)


--------------------------------------------------------------------------------------------------------


 First call to EWALD:  gamma=   0.051
 Maximum number of real-space cells 3x 3x 3
 Maximum number of reciprocal cells 3x 3x 3

    FEWALD:  cpu time    0.0006: real time    0.0006


--------------------------------------- Iteration      1(   1)  ---------------------------------------


    POTLOK:  cpu time   11.4220: real time   11.4367
    SETDIJ:  cpu time    0.0445: real time    0.0451
     EDDAV:  cpu time   12.1529: real time   13.3969
       DOS:  cpu time    0.0011: real time    0.0011
    --------------------------------------------
      LOOP:  cpu time   23.6206: real time   24.8798

 eigenvalue-minimisations  :    48
 total energy-change (2. order) : 0.1097868E+03  (-0.2530607E+03)
 number of electron      16.0000000 magnetization 
 augmentation part       16.0000000 magnetization 

 Free energy of the ion-electron system (eV)
  ---------------------------------------------------
  alpha Z        PSCENC =         0.01677508
  Ewald energy   TEWEN  =       495.65672804
  -Hartree energ DENC   =      -963.97124649
  -exchange      EXHF   =         0.00000000
  -V(xc)+E(xc)   XCENC  =        54.76769319
  PAW double counting   =       471.26503334     -476.31654927
  entropy T*S    EENTRO =        -0.00004638
  eigenvalues    EBANDS =      -126.09603989
  atomic energy  EATOM  =       654.46440935
  Solvation  Ediel_sol  =         0.00000000
  ---------------------------------------------------
  free energy    TOTEN  =       109.78675696 eV

  energy without entropy =      109.78680334  energy(sigma->0) =      109.78678015


--------------------------------------------------------------------------------------------------------




--------------------------------------- Iteration      1(   2)  ---------------------------------------


     EDDAV:  cpu time   15.2398: real time   15.2672
       DOS:  cpu time    0.0010: real time    0.0010
    --------------------------------------------
      LOOP:  cpu time   15.2407: real time   15.2682

 eigenvalue-minimisations  :    64
 total energy-change (2. order) :-0.1085764E+03  (-0.1031599E+03)
 number of electron      16.0000000 magnetization 
 augmentation part       16.0000000 magnetization 

 Free energy of the ion-electron system (eV)
  ---------------------------------------------------
  alpha Z        PSCENC =         0.01677508
  Ewald energy   TEWEN  =       495.65672804
  -Hartree energ DENC   =      -963.97124649
  -exchange      EXHF   =         0.00000000
  -V(xc)+E(xc)   XCENC  =        54.76769319
  PAW double counting   =       471.26503334     -476.31654927
  entropy T*S    EENTRO =        -0.00000000
  eigenvalues    EBANDS =      -234.67248684
  atomic energy  EATOM  =       654.46440935
  Solvation  Ediel_sol  =         0.00000000
  ---------------------------------------------------
  free energy    TOTEN  =         1.21035640 eV

  energy without entropy =        1.21035640  energy(sigma->0) =        1.21035640


--------------------------------------------------------------------------------------------------------




--------------------------------------- Iteration      1(   3)  ---------------------------------------


     EDDAV:  cpu time   10.6956: real time   10.7107
       DOS:  cpu time    0.0001: real time    0.0001
    --------------------------------------------
      LOOP:  cpu time   10.6957: real time   10.7108

 eigenvalue-minimisations  :    40
 total energy-change (2. order) :-0.4183914E+02  (-0.4178704E+02)
 number of electron      16.0000000 magnetization 
 augmentation part       16.0000000 magnetization 

 Free energy of the ion-electron system (eV)
  ---------------------------------------------------
  alpha Z        PSCENC =         0.01677508
  Ewald energy   TEWEN  =       495.65672804
  -Hartree energ DENC   =      -963.97124649
  -exchange      EXHF   =         0.00000000
  -V(xc)+E(xc)   XCENC  =        54.76769319
  PAW double counting   =       471.26503334     -476.31654927
  entropy T*S    EENTRO =        -0.00000000
  eigenvalues    EBANDS =      -276.51162680
  atomic energy  EATOM  =       654.46440935
  Solvation  Ediel_sol  =         0.00000000
  ---------------------------------------------------
  free energy    TOTEN  =       -40.62878357 eV

  energy without entropy =      -40.62878357  energy(sigma->0) =      -40.62878357


--------------------------------------------------------------------------------------------------------




--------------------------------------- Iteration      1(   4)  ---------------------------------------


     EDDAV:  cpu time   12.1436: real time   12.1604
       DOS:  cpu time    0.0001: real time    0.0001
    --------------------------------------------
      LOOP:  cpu time   12.1437: real time   12.1605

 eigenvalue-minimisations  :    48
 total energy-change (2. order) :-0.3151110E+01  (-0.3150209E+01)
 number of electron      16.0000000 magnetization 
 augmentation part       16.0000000 magnetization 

 Free energy of the ion-electron system (eV)
  ---------------------------------------------------
  alpha Z        PSCENC =         0.01677508
  Ewald energy   TEWEN  =       495.65672804
  -Hartree energ DENC   =      -963.97124649
  -exchange      EXHF   =         0.00000000
  -V(xc)+E(xc)   XCENC  =        54.76769319
  PAW double counting   =       471.26503334     -476.31654927
  entropy T*S    EENTRO =        -0.00000000
  eigenvalues    EBANDS =      -279.66273729
  atomic energy  EATOM  =       654.46440935
  Solvation  Ediel_sol  =         0.00000000
  ---------------------------------------------------
  free energy    TOTEN  =       -43.77989405 eV

  energy without entropy =      -43.77989405  energy(sigma->0) =      -43.77989405


--------------------------------------------------------------------------------------------------------




--------------------------------------- Iteration      1(   5)  ---------------------------------------


     EDDAV:  cpu time   12.1656: real time   12.1826
       DOS:  cpu time    0.0025: real time    0.0025
    CHARGE:  cpu time    1.7795: real time    1.7818
    MIXING:  cpu time    0.2732: real time    0.2735
    --------------------------------------------
      LOOP:  cpu time   14.2208: real time   14.2404

 eigenvalue-minimisations  :    48
 total energy-change (2. order) :-0.3267618E-01  (-0.3263714E-01)
 number of electron      16.0000000 magnetization 
 augmentation part        2.1041394 magnetization 

 Broyden mixing:
  rms(total) = 0.20808E+01    rms(broyden)= 0.20808E+01
  rms(prec ) = 0.21062E+01
  weight for this iteration     100.00

 Free energy of the ion-electron system (eV)
  ---------------------------------------------------
  alpha Z        PSCENC =         0.01677508
  Ewald energy   TEWEN  =       495.65672804
  -Hartree energ DENC   =      -963.97124649
  -exchange      EXHF   =         0.00000000
  -V(xc)+E(xc)   XCENC  =        54.76769319
  PAW double counting   =       471.26503334     -476.31654927
  entropy T*S    EENTRO =        -0.00000000
  eigenvalues    EBANDS =      -279.69541347
  atomic energy  EATOM  =       654.46440935
  Solvation  Ediel_sol  =         0.00000000
  ---------------------------------------------------
  free energy    TOTEN  =       -43.81257024 eV

  energy without entropy =      -43.81257024  energy(sigma->0) =      -43.81257024


--------------------------------------------------------------------------------------------------------




--------------------------------------- Iteration      1(   6)  ---------------------------------------


    POTLOK:  cpu time   11.2801: real time   11.2953
    SETDIJ:  cpu time    0.0445: real time    0.0446
     EDDAV:  cpu time   13.6678: real time   13.6872
       DOS:  cpu time    0.0010: real time    0.0010
    CHARGE:  cpu time    1.7849: real time    1.7871
    MIXING:  cpu time    0.2364: real time    0.2440
    --------------------------------------------
      LOOP:  cpu time   27.0147: real time   27.0592

 eigenvalue-minimisations  :    56
 total energy-change (2. order) : 0.4977909E+01  (-0.1491332E+01)
 number of electron      16.0000000 magnetization 
 augmentation part        1.7874342 magnetization 

 Broyden mixing:
  rms(total) = 0.28749E+01    rms(broyden)= 0.28749E+01
  rms(prec ) = 0.28774E+01
  weight for this iteration     100.00

 eigenvalues of (default mixing * dielectric matrix)
  average eigenvalue GAMMA=   0.3922
  0.3922

 Free energy of the ion-electron system (eV)
  ---------------------------------------------------
  alpha Z        PSCENC =         0.01677508
  Ewald energy   TEWEN  =       495.65672804
  -Hartree energ DENC   =     -1008.01849216
  -exchange      EXHF   =         0.00000000
  -V(xc)+E(xc)   XCENC  =        57.32132246
  PAW double counting   =       929.85226437     -936.23486780
  entropy T*S    EENTRO =        -0.00000000
  eigenvalues    EBANDS =      -231.89280077
  atomic energy  EATOM  =       654.46440935
  Solvation  Ediel_sol  =         0.00000000
  ---------------------------------------------------
  free energy    TOTEN  =       -38.83466143 eV

  energy without entropy =      -38.83466143  energy(sigma->0) =      -38.83466143


--------------------------------------------------------------------------------------------------------




--------------------------------------- Iteration      1(   7)  ---------------------------------------


    POTLOK:  cpu time   11.2507: real time   11.2657
    SETDIJ:  cpu time    0.0490: real time    0.0490
     EDDAV:  cpu time   10.7224: real time   10.7371
       DOS:  cpu time    0.0002: real time    0.0002
    CHARGE:  cpu time    1.7376: real time    1.7398
    MIXING:  cpu time    0.2439: real time    0.2442
    --------------------------------------------
      LOOP:  cpu time   24.0038: real time   24.0360

 eigenvalue-minimisations  :    40
 total energy-change (2. order) :-0.2901620E+00  (-0.5417855E-01)
 number of electron      16.0000000 magnetization 
 augmentation part        1.7833927 magnetization 

 Broyden mixing:
  rms(total) = 0.32968E+01    rms(broyden)= 0.32968E+01
  rms(prec ) = 0.32995E+01
  weight for this iteration     100.00

 eigenvalues of (default mixing * dielectric matrix)
  average eigenvalue GAMMA=   1.6121
  0.8935  2.3306

 Free energy of the ion-electron system (eV)
  ---------------------------------------------------
  alpha Z        PSCENC =         0.01677508
  Ewald energy   TEWEN  =       495.65672804
  -Hartree energ DENC   =     -1004.36260470
  -exchange      EXHF   =         0.00000000
  -V(xc)+E(xc)   XCENC  =        57.09323937
  PAW double counting   =       779.01378705     -785.38504009
  entropy T*S    EENTRO =        -0.00000000
  eigenvalues    EBANDS =      -235.62211751
  atomic energy  EATOM  =       654.46440935
  Solvation  Ediel_sol  =         0.00000000
  ---------------------------------------------------
  free energy    TOTEN  =       -39.12482342 eV

  energy without entropy =      -39.12482342  energy(sigma->0) =      -39.12482342


--------------------------------------------------------------------------------------------------------




--------------------------------------- Iteration      1(   8)  ---------------------------------------


    POTLOK:  cpu time   11.2719: real time   11.2863
    SETDIJ:  cpu time    0.0466: real time    0.0466
     EDDAV:  cpu time   12.1287: real time   12.1454
       DOS:  cpu time    0.0002: real time    0.0002
    CHARGE:  cpu time    1.7494: real time    1.7516
    MIXING:  cpu time    0.2471: real time    0.2474
    --------------------------------------------
      LOOP:  cpu time   25.4439: real time   25.4775

 eigenvalue-minimisations  :    48
 total energy-change (2. order) : 0.5900642E+00  (-0.7757009E+00)
 number of electron      16.0000000 magnetization 
 augmentation part        1.6545213 magnetization 

 Broyden mixing:
  rms(total) = 0.86272E+00    rms(broyden)= 0.86272E+00
  rms(prec ) = 0.86908E+00
  weight for this iteration     100.00

 eigenvalues of (default mixing * dielectric matrix)
  average eigenvalue GAMMA=   1.2748
  2.1710  1.1726  0.4807

 Free energy of the ion-electron system (eV)
  ---------------------------------------------------
  alpha Z        PSCENC =         0.01677508
  Ewald energy   TEWEN  =       495.65672804
  -Hartree energ DENC   =     -1045.22372650
  -exchange      EXHF   =         0.00000000
  -V(xc)+E(xc)   XCENC  =        59.61843032
  PAW double counting   =      2813.19883940    -2819.85334707
  entropy T*S    EENTRO =        -0.00000000
  eigenvalues    EBANDS =      -196.41286786
  atomic energy  EATOM  =       654.46440935
  Solvation  Ediel_sol  =         0.00000000
  ---------------------------------------------------
  free energy    TOTEN  =       -38.53475924 eV

  energy without entropy =      -38.53475924  energy(sigma->0) =      -38.53475924


--------------------------------------------------------------------------------------------------------




--------------------------------------- Iteration      1(   9)  ---------------------------------------


    POTLOK:  cpu time   11.2626: real time   11.2820
    SETDIJ:  cpu time    0.0472: real time    0.0472
     EDDAV:  cpu time   10.6164: real time   10.6314
       DOS:  cpu time    0.0001: real time    0.0001
    CHARGE:  cpu time    1.7788: real time    1.7810
    MIXING:  cpu time    0.2600: real time    0.2603
    --------------------------------------------
      LOOP:  cpu time   23.9651: real time   24.0021

 eigenvalue-minimisations  :    40
 total energy-change (2. order) : 0.3661108E+00  (-0.5337717E-01)
 number of electron      16.0000000 magnetization 
 augmentation part        1.6991339 magnetization 

 Broyden mixing:
  rms(total) = 0.49692E+00    rms(broyden)= 0.49692E+00
  rms(prec ) = 0.50088E+00
  weight for this iteration     100.00

 eigenvalues of (default mixing * dielectric matrix)
  average eigenvalue GAMMA=   1.3264
  2.2586  1.1613  1.1613  0.7245

 Free energy of the ion-electron system (eV)
  ---------------------------------------------------
  alpha Z        PSCENC =         0.01677508
  Ewald energy   TEWEN  =       495.65672804
  -Hartree energ DENC   =     -1039.72307389
  -exchange      EXHF   =         0.00000000
  -V(xc)+E(xc)   XCENC  =        59.31813650
  PAW double counting   =      2845.45021791    -2851.94906453
  entropy T*S    EENTRO =        -0.00000000
  eigenvalues    EBANDS =      -201.40277687
  atomic energy  EATOM  =       654.46440935
  Solvation  Ediel_sol  =         0.00000000
  ---------------------------------------------------
  free energy    TOTEN  =       -38.16864841 eV

  energy without entropy =      -38.16864841  energy(sigma->0) =      -38.16864841


--------------------------------------------------------------------------------------------------------




--------------------------------------- Iteration      1(  10)  ---------------------------------------


    POTLOK:  cpu time   11.2750: real time   11.2914
    SETDIJ:  cpu time    0.0494: real time    0.0494
     EDDAV:  cpu time   13.6629: real time   13.6824
       DOS:  cpu time    0.0001: real time    0.0001
    CHARGE:  cpu time    1.7498: real time    1.7520
    MIXING:  cpu time    0.2809: real time    0.2812
    --------------------------------------------
      LOOP:  cpu time   27.0182: real time   27.0566

 eigenvalue-minimisations  :    56
 total energy-change (2. order) : 0.1404005E+00  (-0.3113859E-01)
 number of electron      16.0000000 magnetization 
 augmentation part        1.7200630 magnetization 

 Broyden mixing:
  rms(total) = 0.21010E+00    rms(broyden)= 0.21010E+00
  rms(prec ) = 0.21217E+00
  weight for this iteration     100.00

 eigenvalues of (default mixing * dielectric matrix)
  average eigenvalue GAMMA=   1.2490
  2.2087  1.2332  1.2332  0.5896  0.9802

 Free energy of the ion-electron system (eV)
  ---------------------------------------------------
  alpha Z        PSCENC =         0.01677508
  Ewald energy   TEWEN  =       495.65672804
  -Hartree energ DENC   =     -1038.48119275
  -exchange      EXHF   =         0.00000000
  -V(xc)+E(xc)   XCENC  =        59.28468108
  PAW double counting   =      2917.62866655    -2924.09638379
  entropy T*S    EENTRO =        -0.00000000
  eigenvalues    EBANDS =      -202.50193147
  atomic energy  EATOM  =       654.46440935
  Solvation  Ediel_sol  =         0.00000000
  ---------------------------------------------------
  free energy    TOTEN  =       -38.02824791 eV

  energy without entropy =      -38.02824791  energy(sigma->0) =      -38.02824791


--------------------------------------------------------------------------------------------------------




--------------------------------------- Iteration      1(  11)  ---------------------------------------


    POTLOK:  cpu time   11.2782: real time   11.2990
    SETDIJ:  cpu time    0.0478: real time    0.0478
     EDDAV:  cpu time   13.7516: real time   13.7708
       DOS:  cpu time    0.0005: real time    0.0005
    CHARGE:  cpu time    1.7804: real time    1.7827
    MIXING:  cpu time    0.2671: real time    0.2675
    --------------------------------------------
      LOOP:  cpu time   27.1256: real time   27.1682

 eigenvalue-minimisations  :    56
 total energy-change (2. order) : 0.1027552E-01  (-0.7022653E-03)
 number of electron      16.0000000 magnetization 
 augmentation part        1.7245554 magnetization 

 Broyden mixing:
  rms(total) = 0.16337E+00    rms(broyden)= 0.16337E+00
  rms(prec ) = 0.16520E+00
  weight for this iteration     100.00

 eigenvalues of (default mixing * dielectric matrix)
  average eigenvalue GAMMA=   1.3785
  2.1878  1.6749  1.6749  0.6720  1.0308  1.0308

 Free energy of the ion-electron system (eV)
  ---------------------------------------------------
  alpha Z        PSCENC =         0.01677508
  Ewald energy   TEWEN  =       495.65672804
  -Hartree energ DENC   =     -1038.54128438
  -exchange      EXHF   =         0.00000000
  -V(xc)+E(xc)   XCENC  =        59.28507977
  PAW double counting   =      2890.77980696    -2897.23123937
  entropy T*S    EENTRO =        -0.00000000
  eigenvalues    EBANDS =      -202.44824784
  atomic energy  EATOM  =       654.46440935
  Solvation  Ediel_sol  =         0.00000000
  ---------------------------------------------------
  free energy    TOTEN  =       -38.01797239 eV

  energy without entropy =      -38.01797239  energy(sigma->0) =      -38.01797239


--------------------------------------------------------------------------------------------------------




--------------------------------------- Iteration      1(  12)  ---------------------------------------


    POTLOK:  cpu time   11.2871: real time   11.3018
    SETDIJ:  cpu time    0.0488: real time    0.0489
     EDDAV:  cpu time   10.6342: real time   10.6514
       DOS:  cpu time    0.0006: real time    0.0006
    CHARGE:  cpu time    1.7564: real time    1.7586
    MIXING:  cpu time    0.2766: real time    0.2770
    --------------------------------------------
      LOOP:  cpu time   24.0037: real time   24.0383

 eigenvalue-minimisations  :    40
 total energy-change (2. order) : 0.1992292E-01  (-0.6102892E-02)
 number of electron      16.0000000 magnetization 
 augmentation part        1.7351302 magnetization 

 Broyden mixing:
  rms(total) = 0.44024E-01    rms(broyden)= 0.44024E-01
  rms(prec ) = 0.45204E-01
  weight for this iteration     100.00

 eigenvalues of (default mixing * dielectric matrix)
  average eigenvalue GAMMA=   1.4834
  2.5085  2.5085  1.4059  1.4059  0.6591  0.9478  0.9478

 Free energy of the ion-electron system (eV)
  ---------------------------------------------------
  alpha Z        PSCENC =         0.01677508
  Ewald energy   TEWEN  =       495.65672804
  -Hartree energ DENC   =     -1039.02586994
  -exchange      EXHF   =         0.00000000
  -V(xc)+E(xc)   XCENC  =        59.30835751
  PAW double counting   =      2858.31134531    -2864.73382735
  entropy T*S    EENTRO =        -0.00000000
  eigenvalues    EBANDS =      -201.99596746
  atomic energy  EATOM  =       654.46440935
  Solvation  Ediel_sol  =         0.00000000
  ---------------------------------------------------
  free energy    TOTEN  =       -37.99804947 eV

  energy without entropy =      -37.99804947  energy(sigma->0) =      -37.99804947


--------------------------------------------------------------------------------------------------------




--------------------------------------- Iteration      1(  13)  ---------------------------------------


    POTLOK:  cpu time   11.3026: real time   11.3173
    SETDIJ:  cpu time    0.0465: real time    0.0466
     EDDAV:  cpu time   12.1259: real time   12.1495
       DOS:  cpu time    0.0004: real time    0.0004
    CHARGE:  cpu time    1.7356: real time    1.7378
    MIXING:  cpu time    0.3066: real time    0.3070
    --------------------------------------------
      LOOP:  cpu time   25.5178: real time   25.5586

 eigenvalue-minimisations  :    48
 total energy-change (2. order) : 0.9981439E-03  (-0.1657685E-02)
 number of electron      16.0000000 magnetization 
 augmentation part        1.7407848 magnetization 

 Broyden mixing:
  rms(total) = 0.26624E-01    rms(broyden)= 0.26624E-01
  rms(prec ) = 0.27552E-01
  weight for this iteration     100.00

 eigenvalues of (default mixing * dielectric matrix)
  average eigenvalue GAMMA=   1.5149
  2.5214  2.5214  1.6491  1.6491  1.0946  1.0946  0.6555  0.9334

 Free energy of the ion-electron system (eV)
  ---------------------------------------------------
  alpha Z        PSCENC =         0.01677508
  Ewald energy   TEWEN  =       495.65672804
  -Hartree energ DENC   =     -1039.77548596
  -exchange      EXHF   =         0.00000000
  -V(xc)+E(xc)   XCENC  =        59.33501493
  PAW double counting   =      2835.42212539    -2841.82429991
  entropy T*S    EENTRO =        -0.00000000
  eigenvalues    EBANDS =      -201.29231825
  atomic energy  EATOM  =       654.46440935
  Solvation  Ediel_sol  =         0.00000000
  ---------------------------------------------------
  free energy    TOTEN  =       -37.99705133 eV

  energy without entropy =      -37.99705133  energy(sigma->0) =      -37.99705133


--------------------------------------------------------------------------------------------------------




--------------------------------------- Iteration      1(  14)  ---------------------------------------


    POTLOK:  cpu time   11.2856: real time   11.3012
    SETDIJ:  cpu time    0.0469: real time    0.0469
     EDDAV:  cpu time   13.7350: real time   13.7576
       DOS:  cpu time    0.0005: real time    0.0005
    CHARGE:  cpu time    1.7712: real time    1.7734
    MIXING:  cpu time    0.3069: real time    0.3119
    --------------------------------------------
      LOOP:  cpu time   27.1461: real time   27.1915

 eigenvalue-minimisations  :    56
 total energy-change (2. order) :-0.3507366E-02  (-0.2048191E-03)
 number of electron      16.0000000 magnetization 
 augmentation part        1.7386781 magnetization 

 Broyden mixing:
  rms(total) = 0.14167E-01    rms(broyden)= 0.14167E-01
  rms(prec ) = 0.14894E-01
  weight for this iteration     100.00

 eigenvalues of (default mixing * dielectric matrix)
  average eigenvalue GAMMA=   1.5970
  3.4164  2.5522  1.8075  1.8075  1.1000  1.1000  0.6568  0.9662  0.9662

 Free energy of the ion-electron system (eV)
  ---------------------------------------------------
  alpha Z        PSCENC =         0.01677508
  Ewald energy   TEWEN  =       495.65672804
  -Hartree energ DENC   =     -1040.58580808
  -exchange      EXHF   =         0.00000000
  -V(xc)+E(xc)   XCENC  =        59.34954345
  PAW double counting   =      2838.76685838    -2845.16861554
  entropy T*S    EENTRO =        -0.00000000
  eigenvalues    EBANDS =      -200.50044938
  atomic energy  EATOM  =       654.46440935
  Solvation  Ediel_sol  =         0.00000000
  ---------------------------------------------------
  free energy    TOTEN  =       -38.00055869 eV

  energy without entropy =      -38.00055869  energy(sigma->0) =      -38.00055869


--------------------------------------------------------------------------------------------------------




--------------------------------------- Iteration      1(  15)  ---------------------------------------


    POTLOK:  cpu time   11.2901: real time   11.3143
    SETDIJ:  cpu time    0.0469: real time    0.0469
     EDDAV:  cpu time   12.2036: real time   12.2247
       DOS:  cpu time    0.0001: real time    0.0001
    CHARGE:  cpu time    1.7163: real time    1.7185
    MIXING:  cpu time    0.3524: real time    0.3528
    --------------------------------------------
      LOOP:  cpu time   25.6094: real time   25.6574

 eigenvalue-minimisations  :    48
 total energy-change (2. order) :-0.3971183E-02  (-0.5203570E-04)
 number of electron      16.0000000 magnetization 
 augmentation part        1.7382047 magnetization 

 Broyden mixing:
  rms(total) = 0.82309E-02    rms(broyden)= 0.82309E-02
  rms(prec ) = 0.87616E-02
  weight for this iteration     100.00

 eigenvalues of (default mixing * dielectric matrix)
  average eigenvalue GAMMA=   1.6591
  4.4164  2.7118  1.7496  1.7496  1.3315  1.3315  0.9881  0.9881  0.6622  0.6622

 Free energy of the ion-electron system (eV)
  ---------------------------------------------------
  alpha Z        PSCENC =         0.01677508
  Ewald energy   TEWEN  =       495.65672804
  -Hartree energ DENC   =     -1041.19913902
  -exchange      EXHF   =         0.00000000
  -V(xc)+E(xc)   XCENC  =        59.35597671
  PAW double counting   =      2834.62934467    -2841.02834489
  entropy T*S    EENTRO =        -0.00000000
  eigenvalues    EBANDS =      -199.90027981
  atomic energy  EATOM  =       654.46440935
  Solvation  Ediel_sol  =         0.00000000
  ---------------------------------------------------
  free energy    TOTEN  =       -38.00452988 eV

  energy without entropy =      -38.00452988  energy(sigma->0) =      -38.00452988


--------------------------------------------------------------------------------------------------------




--------------------------------------- Iteration      1(  16)  ---------------------------------------


    POTLOK:  cpu time   11.2899: real time   11.3045
    SETDIJ:  cpu time    0.0468: real time    0.0468
     EDDAV:  cpu time   13.6882: real time   13.7122
       DOS:  cpu time    0.0003: real time    0.0003
    CHARGE:  cpu time    1.7637: real time    1.7660
    MIXING:  cpu time    0.3374: real time    0.3378
    --------------------------------------------
      LOOP:  cpu time   27.1264: real time   27.1677

 eigenvalue-minimisations  :    56
 total energy-change (2. order) :-0.4202227E-02  (-0.1969332E-03)
 number of electron      16.0000000 magnetization 
 augmentation part        1.7363450 magnetization 

 Broyden mixing:
  rms(total) = 0.73896E-02    rms(broyden)= 0.73896E-02
  rms(prec ) = 0.76118E-02
  weight for this iteration     100.00

 eigenvalues of (default mixing * dielectric matrix)
  average eigenvalue GAMMA=   1.8425
  5.7768  2.9735  2.2066  1.5774  1.5774  1.2636  1.2636  1.1673  0.6561  0.9023
  0.9023

 Free energy of the ion-electron system (eV)
  ---------------------------------------------------
  alpha Z        PSCENC =         0.01677508
  Ewald energy   TEWEN  =       495.65672804
  -Hartree energ DENC   =     -1041.80651934
  -exchange      EXHF   =         0.00000000
  -V(xc)+E(xc)   XCENC  =        59.36191423
  PAW double counting   =      2836.85764117    -2843.25720566
  entropy T*S    EENTRO =        -0.00000000
  eigenvalues    EBANDS =      -199.30247497
  atomic energy  EATOM  =       654.46440935
  Solvation  Ediel_sol  =         0.00000000
  ---------------------------------------------------
  free energy    TOTEN  =       -38.00873210 eV

  energy without entropy =      -38.00873210  energy(sigma->0) =      -38.00873210


--------------------------------------------------------------------------------------------------------




--------------------------------------- Iteration      1(  17)  ---------------------------------------


    POTLOK:  cpu time   11.2974: real time   11.3134
    SETDIJ:  cpu time    0.0476: real time    0.0476
     EDDAV:  cpu time   12.1791: real time   12.1960
       DOS:  cpu time    0.0001: real time    0.0001
    CHARGE:  cpu time    1.7102: real time    1.7123
    MIXING:  cpu time    0.3560: real time    0.3564
    --------------------------------------------
      LOOP:  cpu time   25.5904: real time   25.6259

 eigenvalue-minimisations  :    48
 total energy-change (2. order) :-0.2991010E-02  (-0.3894604E-04)
 number of electron      16.0000000 magnetization 
 augmentation part        1.7367129 magnetization 

 Broyden mixing:
  rms(total) = 0.43531E-02    rms(broyden)= 0.43531E-02
  rms(prec ) = 0.44462E-02
  weight for this iteration     100.00

 eigenvalues of (default mixing * dielectric matrix)
  average eigenvalue GAMMA=   1.8625
  6.3676  2.9994  2.3396  1.8700  1.8700  1.2327  1.2327  0.6562  1.0294  1.0294
  0.9276  0.7956

 Free energy of the ion-electron system (eV)
  ---------------------------------------------------
  alpha Z        PSCENC =         0.01677508
  Ewald energy   TEWEN  =       495.65672804
  -Hartree energ DENC   =     -1041.92860805
  -exchange      EXHF   =         0.00000000
  -V(xc)+E(xc)   XCENC  =        59.35625802
  PAW double counting   =      2838.94838188    -2845.34714231
  entropy T*S    EENTRO =        -0.00000000
  eigenvalues    EBANDS =      -199.17852512
  atomic energy  EATOM  =       654.46440935
  Solvation  Ediel_sol  =         0.00000000
  ---------------------------------------------------
  free energy    TOTEN  =       -38.01172311 eV

  energy without entropy =      -38.01172311  energy(sigma->0) =      -38.01172311


--------------------------------------------------------------------------------------------------------




--------------------------------------- Iteration      1(  18)  ---------------------------------------


    POTLOK:  cpu time   11.2800: real time   11.2947
    SETDIJ:  cpu time    0.0451: real time    0.0451
     EDDAV:  cpu time   13.6719: real time   13.6926
       DOS:  cpu time    0.0003: real time    0.0003
    CHARGE:  cpu time    1.7372: real time    1.7395
    MIXING:  cpu time    0.3715: real time    0.3798
    --------------------------------------------
      LOOP:  cpu time   27.1060: real time   27.1520

 eigenvalue-minimisations  :    56
 total energy-change (2. order) :-0.1050120E-02  (-0.8661933E-05)
 number of electron      16.0000000 magnetization 
 augmentation part        1.7367773 magnetization 

 Broyden mixing:
  rms(total) = 0.22993E-02    rms(broyden)= 0.22993E-02
  rms(prec ) = 0.23739E-02
  weight for this iteration     100.00

 eigenvalues of (default mixing * dielectric matrix)
  average eigenvalue GAMMA=   1.8929
  6.8817  3.3858  2.1410  2.1410  1.5740  1.5740  1.2532  1.2532  0.6561  0.9800
  0.9800  0.8940  0.8940

 Free energy of the ion-electron system (eV)
  ---------------------------------------------------
  alpha Z        PSCENC =         0.01677508
  Ewald energy   TEWEN  =       495.65672804
  -Hartree energ DENC   =     -1041.98418181
  -exchange      EXHF   =         0.00000000
  -V(xc)+E(xc)   XCENC  =        59.35692249
  PAW double counting   =      2836.38086532    -2842.77998099
  entropy T*S    EENTRO =        -0.00000000
  eigenvalues    EBANDS =      -199.12431071
  atomic energy  EATOM  =       654.46440935
  Solvation  Ediel_sol  =         0.00000000
  ---------------------------------------------------
  free energy    TOTEN  =       -38.01277323 eV

  energy without entropy =      -38.01277323  energy(sigma->0) =      -38.01277323


--------------------------------------------------------------------------------------------------------




--------------------------------------- Iteration      1(  19)  ---------------------------------------


    POTLOK:  cpu time   11.2785: real time   11.2939
    SETDIJ:  cpu time    0.0477: real time    0.0477
     EDDAV:  cpu time   12.1950: real time   12.2121
       DOS:  cpu time    0.0038: real time    0.0038
    CHARGE:  cpu time    1.7501: real time    1.7525
    MIXING:  cpu time    0.3795: real time    0.3800
    --------------------------------------------
      LOOP:  cpu time   25.6546: real time   25.6899

 eigenvalue-minimisations  :    48
 total energy-change (2. order) :-0.9719378E-03  (-0.4527259E-05)
 number of electron      16.0000000 magnetization 
 augmentation part        1.7369148 magnetization 

 Broyden mixing:
  rms(total) = 0.14315E-02    rms(broyden)= 0.14315E-02
  rms(prec ) = 0.14772E-02
  weight for this iteration     100.00

 eigenvalues of (default mixing * dielectric matrix)
  average eigenvalue GAMMA=   1.9736
  7.7345  3.6996  2.4626  2.4626  1.6462  1.6462  1.2407  1.2407  1.2887  0.6561
  0.9214  0.9214  0.8547  0.8547

 Free energy of the ion-electron system (eV)
  ---------------------------------------------------
  alpha Z        PSCENC =         0.01677508
  Ewald energy   TEWEN  =       495.65672804
  -Hartree energ DENC   =     -1041.99563607
  -exchange      EXHF   =         0.00000000
  -V(xc)+E(xc)   XCENC  =        59.35429659
  PAW double counting   =      2834.03574293    -2840.43432179
  entropy T*S    EENTRO =        -0.00000000
  eigenvalues    EBANDS =      -199.11173929
  atomic energy  EATOM  =       654.46440935
  Solvation  Ediel_sol  =         0.00000000
  ---------------------------------------------------
  free energy    TOTEN  =       -38.01374517 eV

  energy without entropy =      -38.01374517  energy(sigma->0) =      -38.01374517


--------------------------------------------------------------------------------------------------------




--------------------------------------- Iteration      1(  20)  ---------------------------------------


    POTLOK:  cpu time   11.2884: real time   11.3032
    SETDIJ:  cpu time    0.0446: real time    0.0447
     EDDAV:  cpu time   12.1740: real time   12.1930
       DOS:  cpu time    0.0018: real time    0.0018
    CHARGE:  cpu time    1.7427: real time    1.7448
    MIXING:  cpu time    0.4088: real time    0.4094
    --------------------------------------------
      LOOP:  cpu time   25.6604: real time   25.6969

 eigenvalue-minimisations  :    48
 total energy-change (2. order) :-0.5507674E-03  (-0.2836197E-05)
 number of electron      16.0000000 magnetization 
 augmentation part        1.7369351 magnetization 

 Broyden mixing:
  rms(total) = 0.11423E-02    rms(broyden)= 0.11423E-02
  rms(prec ) = 0.11611E-02
  weight for this iteration     100.00

 eigenvalues of (default mixing * dielectric matrix)
  average eigenvalue GAMMA=   1.9794
  7.8270  4.3676  2.7311  2.2622  1.8322  1.8322  1.3109  1.1364  1.1364  0.6561
  0.9608  0.9608  0.9250  0.9250  0.8267

 Free energy of the ion-electron system (eV)
  ---------------------------------------------------
  alpha Z        PSCENC =         0.01677508
  Ewald energy   TEWEN  =       495.65672804
  -Hartree energ DENC   =     -1042.01416203
  -exchange      EXHF   =         0.00000000
  -V(xc)+E(xc)   XCENC  =        59.35412437
  PAW double counting   =      2833.87686583    -2840.27559531
  entropy T*S    EENTRO =        -0.00000000
  eigenvalues    EBANDS =      -199.09344127
  atomic energy  EATOM  =       654.46440935
  Solvation  Ediel_sol  =         0.00000000
  ---------------------------------------------------
  free energy    TOTEN  =       -38.01429594 eV

  energy without entropy =      -38.01429594  energy(sigma->0) =      -38.01429594


--------------------------------------------------------------------------------------------------------




--------------------------------------- Iteration      1(  21)  ---------------------------------------


    POTLOK:  cpu time   11.2926: real time   11.3117
    SETDIJ:  cpu time    0.0472: real time    0.0472
     EDDAV:  cpu time   10.6576: real time   10.6726
       DOS:  cpu time    0.0002: real time    0.0002
    CHARGE:  cpu time    1.7632: real time    1.7680
    MIXING:  cpu time    0.4010: real time    0.4015
    --------------------------------------------
      LOOP:  cpu time   24.1618: real time   24.2012

 eigenvalue-minimisations  :    40
 total energy-change (2. order) :-0.2576742E-03  (-0.6624112E-06)
 number of electron      16.0000000 magnetization 
 augmentation part        1.7369227 magnetization 

 Broyden mixing:
  rms(total) = 0.74725E-03    rms(broyden)= 0.74725E-03
  rms(prec ) = 0.75998E-03
  weight for this iteration     100.00

 eigenvalues of (default mixing * dielectric matrix)
  average eigenvalue GAMMA=   1.9967
  8.3559  4.7205  2.4966  2.4966  1.8813  1.8813  1.2516  1.2516  1.2713  1.2713
  0.6561  0.9248  0.9248  0.9470  0.8079  0.8079

 Free energy of the ion-electron system (eV)
  ---------------------------------------------------
  alpha Z        PSCENC =         0.01677508
  Ewald energy   TEWEN  =       495.65672804
  -Hartree energ DENC   =     -1042.01177149
  -exchange      EXHF   =         0.00000000
  -V(xc)+E(xc)   XCENC  =        59.35342992
  PAW double counting   =      2834.85131048    -2841.25000723
  entropy T*S    EENTRO =        -0.00000000
  eigenvalues    EBANDS =      -199.09542776
  atomic energy  EATOM  =       654.46440935
  Solvation  Ediel_sol  =         0.00000000
  ---------------------------------------------------
  free energy    TOTEN  =       -38.01455361 eV

  energy without entropy =      -38.01455361  energy(sigma->0) =      -38.01455361


--------------------------------------------------------------------------------------------------------




--------------------------------------- Iteration      1(  22)  ---------------------------------------


    POTLOK:  cpu time   11.2506: real time   11.2650
    SETDIJ:  cpu time    0.0483: real time    0.0483
     EDDAV:  cpu time   10.6434: real time   10.6582
       DOS:  cpu time    0.0001: real time    0.0001
    CHARGE:  cpu time    1.7532: real time    1.7555
    MIXING:  cpu time    0.4203: real time    0.4209
    --------------------------------------------
      LOOP:  cpu time   24.1159: real time   24.1480

 eigenvalue-minimisations  :    40
 total energy-change (2. order) :-0.1222959E-03  (-0.2586487E-06)
 number of electron      16.0000000 magnetization 
 augmentation part        1.7368734 magnetization 

 Broyden mixing:
  rms(total) = 0.40447E-03    rms(broyden)= 0.40447E-03
  rms(prec ) = 0.41418E-03
  weight for this iteration     100.00

 eigenvalues of (default mixing * dielectric matrix)
  average eigenvalue GAMMA=   1.9879
  8.5612  4.8093  2.9102  2.3992  1.8495  1.8495  1.4730  1.4730  1.1933  1.1933
  1.0341  1.0341  0.6561  0.9403  0.8281  0.8281  0.7618

 Free energy of the ion-electron system (eV)
  ---------------------------------------------------
  alpha Z        PSCENC =         0.01677508
  Ewald energy   TEWEN  =       495.65672804
  -Hartree energ DENC   =     -1042.02019147
  -exchange      EXHF   =         0.00000000
  -V(xc)+E(xc)   XCENC  =        59.35327775
  PAW double counting   =      2835.13196156    -2841.53057640
  entropy T*S    EENTRO =        -0.00000000
  eigenvalues    EBANDS =      -199.08705982
  atomic energy  EATOM  =       654.46440935
  Solvation  Ediel_sol  =         0.00000000
  ---------------------------------------------------
  free energy    TOTEN  =       -38.01467591 eV

  energy without entropy =      -38.01467591  energy(sigma->0) =      -38.01467591


--------------------------------------------------------------------------------------------------------




--------------------------------------- Iteration      1(  23)  ---------------------------------------


    POTLOK:  cpu time   11.2888: real time   11.3074
    SETDIJ:  cpu time    0.0454: real time    0.0454
     EDDAV:  cpu time    9.1441: real time    9.1629
       DOS:  cpu time    0.0007: real time    0.0007
    CHARGE:  cpu time    1.7606: real time    1.7630
    MIXING:  cpu time    0.4147: real time    0.4153
    --------------------------------------------
      LOOP:  cpu time   22.6543: real time   22.6946

 eigenvalue-minimisations  :    32
 total energy-change (2. order) :-0.7379093E-04  (-0.3713239E-07)
 number of electron      16.0000000 magnetization 
 augmentation part        1.7368797 magnetization 

 Broyden mixing:
  rms(total) = 0.33114E-03    rms(broyden)= 0.33114E-03
  rms(prec ) = 0.33712E-03
  weight for this iteration     100.00

 eigenvalues of (default mixing * dielectric matrix)
  average eigenvalue GAMMA=   2.0990
  9.0457  5.5920  3.5037  2.2369  2.2369  2.2548  1.5415  1.5415  1.4337  1.2112
  1.2112  0.6561  0.8621  0.8621  0.9449  0.9449  0.8511  0.8511

 Free energy of the ion-electron system (eV)
  ---------------------------------------------------
  alpha Z        PSCENC =         0.01677508
  Ewald energy   TEWEN  =       495.65672804
  -Hartree energ DENC   =     -1042.02230680
  -exchange      EXHF   =         0.00000000
  -V(xc)+E(xc)   XCENC  =        59.35325925
  PAW double counting   =      2835.00690858    -2841.40545433
  entropy T*S    EENTRO =        -0.00000000
  eigenvalues    EBANDS =      -199.08506887
  atomic energy  EATOM  =       654.46440935
  Solvation  Ediel_sol  =         0.00000000
  ---------------------------------------------------
  free energy    TOTEN  =       -38.01474970 eV

  energy without entropy =      -38.01474970  energy(sigma->0) =      -38.01474970


--------------------------------------------------------------------------------------------------------




--------------------------------------- Iteration      1(  24)  ---------------------------------------


    POTLOK:  cpu time   11.2255: real time   11.2456
    SETDIJ:  cpu time    0.0474: real time    0.0474
     EDDAV:  cpu time    9.1068: real time    9.1197
       DOS:  cpu time    0.0003: real time    0.0003
    CHARGE:  cpu time    1.7366: real time    1.7388
    MIXING:  cpu time    0.4785: real time    0.4792
    --------------------------------------------
      LOOP:  cpu time   22.5951: real time   22.6309

 eigenvalue-minimisations  :    32
 total energy-change (2. order) :-0.8182823E-04  (-0.1045725E-06)
 number of electron      16.0000000 magnetization 
 augmentation part        1.7368835 magnetization 

 Broyden mixing:
  rms(total) = 0.18916E-03    rms(broyden)= 0.18916E-03
  rms(prec ) = 0.19260E-03
  weight for this iteration     100.00

 eigenvalues of (default mixing * dielectric matrix)
  average eigenvalue GAMMA=   2.0564
  8.9907  5.7718  3.0293  3.0293  2.4049  1.8285  1.8285  1.4050  1.4050  1.2055
  1.2055  1.1516  0.6561  0.9236  0.9236  0.8595  0.8595  0.7967  0.7967

 Free energy of the ion-electron system (eV)
  ---------------------------------------------------
  alpha Z        PSCENC =         0.01677508
  Ewald energy   TEWEN  =       495.65672804
  -Hartree energ DENC   =     -1042.02327555
  -exchange      EXHF   =         0.00000000
  -V(xc)+E(xc)   XCENC  =        59.35308764
  PAW double counting   =      2835.24046666    -2841.63901437
  entropy T*S    EENTRO =        -0.00000000
  eigenvalues    EBANDS =      -199.08400837
  atomic energy  EATOM  =       654.46440935
  Solvation  Ediel_sol  =         0.00000000
  ---------------------------------------------------
  free energy    TOTEN  =       -38.01483153 eV

  energy without entropy =      -38.01483153  energy(sigma->0) =      -38.01483153


--------------------------------------------------------------------------------------------------------




--------------------------------------- Iteration      1(  25)  ---------------------------------------


    POTLOK:  cpu time   11.2107: real time   11.2255
    SETDIJ:  cpu time    0.0462: real time    0.0462
     EDDAV:  cpu time   10.6646: real time   10.6792
       DOS:  cpu time    0.0001: real time    0.0001
    CHARGE:  cpu time    1.7173: real time    1.7195
    MIXING:  cpu time    0.5079: real time    0.5086
    --------------------------------------------
      LOOP:  cpu time   24.1468: real time   24.1792

 eigenvalue-minimisations  :    40
 total energy-change (2. order) :-0.1229320E-04  (-0.8678549E-08)
 number of electron      16.0000000 magnetization 
 augmentation part        1.7368714 magnetization 

 Broyden mixing:
  rms(total) = 0.20729E-03    rms(broyden)= 0.20729E-03
  rms(prec ) = 0.20887E-03
  weight for this iteration     100.00

 eigenvalues of (default mixing * dielectric matrix)
  average eigenvalue GAMMA=   2.0831
  9.1222  5.8523  3.6066  2.7212  2.7212  1.8686  1.8686  1.7344  1.7344  1.3655
  1.1600  1.1600  0.6561  0.8926  0.8926  0.9133  0.9185  0.9185  0.7774  0.7774

 Free energy of the ion-electron system (eV)
  ---------------------------------------------------
  alpha Z        PSCENC =         0.01677508
  Ewald energy   TEWEN  =       495.65672804
  -Hartree energ DENC   =     -1042.02456034
  -exchange      EXHF   =         0.00000000
  -V(xc)+E(xc)   XCENC  =        59.35305382
  PAW double counting   =      2835.32295219    -2841.72153124
  entropy T*S    EENTRO =        -0.00000000
  eigenvalues    EBANDS =      -199.08267072
  atomic energy  EATOM  =       654.46440935
  Solvation  Ediel_sol  =         0.00000000
  ---------------------------------------------------
  free energy    TOTEN  =       -38.01484382 eV

  energy without entropy =      -38.01484382  energy(sigma->0) =      -38.01484382


--------------------------------------------------------------------------------------------------------




--------------------------------------- Iteration      1(  26)  ---------------------------------------


    POTLOK:  cpu time   11.2149: real time   11.2293
    SETDIJ:  cpu time    0.0478: real time    0.0478
     EDDAV:  cpu time   10.6889: real time   10.7093
       DOS:  cpu time    0.0009: real time    0.0009
    CHARGE:  cpu time    1.7479: real time    1.7502
    MIXING:  cpu time    0.4900: real time    0.4906
    --------------------------------------------
      LOOP:  cpu time   24.1904: real time   24.2282

 eigenvalue-minimisations  :    40
 total energy-change (2. order) :-0.1899168E-04  (-0.2168296E-07)
 number of electron      16.0000000 magnetization 
 augmentation part        1.7368642 magnetization 

 Broyden mixing:
  rms(total) = 0.81197E-04    rms(broyden)= 0.81197E-04
  rms(prec ) = 0.83550E-04
  weight for this iteration     100.00

 eigenvalues of (default mixing * dielectric matrix)
  average eigenvalue GAMMA=   2.1120
  9.3130  6.5265  4.3100  2.7678  2.3513  2.3513  1.8428  1.8428  1.5551  1.5551
  1.1646  1.1646  1.0622  0.9266  0.9266  0.6561  0.8175  0.8175  0.8697  0.8053
  0.7262

 Free energy of the ion-electron system (eV)
  ---------------------------------------------------
  alpha Z        PSCENC =         0.01677508
  Ewald energy   TEWEN  =       495.65672804
  -Hartree energ DENC   =     -1042.02798391
  -exchange      EXHF   =         0.00000000
  -V(xc)+E(xc)   XCENC  =        59.35315952
  PAW double counting   =      2835.23390731    -2841.63247496
  entropy T*S    EENTRO =        -0.00000000
  eigenvalues    EBANDS =      -199.07938324
  atomic energy  EATOM  =       654.46440935
  Solvation  Ediel_sol  =         0.00000000
  ---------------------------------------------------
  free energy    TOTEN  =       -38.01486281 eV

  energy without entropy =      -38.01486281  energy(sigma->0) =      -38.01486281


--------------------------------------------------------------------------------------------------------




--------------------------------------- Iteration      1(  27)  ---------------------------------------


    POTLOK:  cpu time   11.2318: real time   11.2468
    SETDIJ:  cpu time    0.0418: real time    0.0419
     EDDAV:  cpu time    7.5926: real time    7.6031
       DOS:  cpu time    0.0002: real time    0.0002
    CHARGE:  cpu time    1.7356: real time    1.7377
    MIXING:  cpu time    0.5090: real time    0.5097
    --------------------------------------------
      LOOP:  cpu time   21.1109: real time   21.1392

 eigenvalue-minimisations  :    24
 total energy-change (2. order) :-0.1135661E-04  (-0.5211792E-08)
 number of electron      16.0000000 magnetization 
 augmentation part        1.7368692 magnetization 

 Broyden mixing:
  rms(total) = 0.10396E-03    rms(broyden)= 0.10396E-03
  rms(prec ) = 0.10454E-03
  weight for this iteration     100.00

 eigenvalues of (default mixing * dielectric matrix)
  average eigenvalue GAMMA=   2.1187
  9.4644  6.6700  4.5197  3.0131  2.4572  2.4572  1.7823  1.7823  1.5002  1.5002
  1.3661  1.1190  1.1190  0.6561  1.0264  0.9198  0.9198  0.9683  0.9683  0.8577
  0.7723  0.7723

 Free energy of the ion-electron system (eV)
  ---------------------------------------------------
  alpha Z        PSCENC =         0.01677508
  Ewald energy   TEWEN  =       495.65672804
  -Hartree energ DENC   =     -1042.02763913
  -exchange      EXHF   =         0.00000000
  -V(xc)+E(xc)   XCENC  =        59.35311745
  PAW double counting   =      2835.07653296    -2841.47510224
  entropy T*S    EENTRO =        -0.00000000
  eigenvalues    EBANDS =      -199.07969568
  atomic energy  EATOM  =       654.46440935
  Solvation  Ediel_sol  =         0.00000000
  ---------------------------------------------------
  free energy    TOTEN  =       -38.01487417 eV

  energy without entropy =      -38.01487417  energy(sigma->0) =      -38.01487417


--------------------------------------------------------------------------------------------------------




--------------------------------------- Iteration      1(  28)  ---------------------------------------


    POTLOK:  cpu time   11.2138: real time   11.2348
    SETDIJ:  cpu time    0.0446: real time    0.0446
     EDDAV:  cpu time   10.7544: real time   10.7691
       DOS:  cpu time    0.0005: real time    0.0005
    CHARGE:  cpu time    1.7309: real time    1.7405
    MIXING:  cpu time    0.5439: real time    0.5446
    --------------------------------------------
      LOOP:  cpu time   24.2880: real time   24.3341

 eigenvalue-minimisations  :    40
 total energy-change (2. order) :-0.3063922E-05  (-0.2627441E-08)
 number of electron      16.0000000 magnetization 
 augmentation part        1.7368744 magnetization 

 Broyden mixing:
  rms(total) = 0.47328E-04    rms(broyden)= 0.47328E-04
  rms(prec ) = 0.47710E-04
  weight for this iteration     100.00

 eigenvalues of (default mixing * dielectric matrix)
  average eigenvalue GAMMA=   2.1441
  9.4945  6.8881  4.7326  3.1956  2.5824  2.3793  2.3793  1.8263  1.8263  1.5110
  1.5110  1.1594  1.1594  1.0929  1.0309  0.9480  0.9480  0.6561  0.8227  0.8227
  0.8255  0.8255  0.6960

 Free energy of the ion-electron system (eV)
  ---------------------------------------------------
  alpha Z        PSCENC =         0.01677508
  Ewald energy   TEWEN  =       495.65672804
  -Hartree energ DENC   =     -1042.02681622
  -exchange      EXHF   =         0.00000000
  -V(xc)+E(xc)   XCENC  =        59.35306276
  PAW double counting   =      2835.09604778    -2841.49462378
  entropy T*S    EENTRO =        -0.00000000
  eigenvalues    EBANDS =      -199.08046024
  atomic energy  EATOM  =       654.46440935
  Solvation  Ediel_sol  =         0.00000000
  ---------------------------------------------------
  free energy    TOTEN  =       -38.01487723 eV

  energy without entropy =      -38.01487723  energy(sigma->0) =      -38.01487723


--------------------------------------------------------------------------------------------------------




[...]
 augmentation part        1.7368760 magnetization 

 Broyden mixing:
  rms(total) = 0.36222E-04    rms(broyden)= 0.36222E-04
  rms(prec ) = 0.36328E-04
  weight for this iteration     100.00

 eigenvalues of (default mixing * dielectric matrix)
  average eigenvalue GAMMA=   2.1229
  9.5442  7.3400  5.2869  3.7507  2.6843  2.3396  2.3396  1.7197  1.7197  1.5656
  1.5656  1.5057  1.1317  1.1317  1.1236  1.0565  0.9014  0.9014  0.9723  0.6561
  0.7914  0.7914  0.8564  0.7862  0.6095

 Free energy of the ion-electron system (eV)
  ---------------------------------------------------
  alpha Z        PSCENC =         0.01677508
  Ewald energy   TEWEN  =       495.65672804
  -Hartree energ DENC   =     -1042.02665396
  -exchange      EXHF   =         0.00000000
  -V(xc)+E(xc)   XCENC  =        59.35305370
  PAW double counting   =      2835.13112460    -2841.52970743
  entropy T*S    EENTRO =        -0.00000000
  eigenvalues    EBANDS =      -199.08061103
  atomic energy  EATOM  =       654.46440935
  Solvation  Ediel_sol  =         0.00000000
  ---------------------------------------------------
  free energy    TOTEN  =       -38.01488165 eV

  energy without entropy =      -38.01488165  energy(sigma->0) =      -38.01488165


--------------------------------------------------------------------------------------------------------




--------------------------------------- Iteration      1(  31)  ---------------------------------------


    POTLOK:  cpu time   11.2314: real time   11.2477
    SETDIJ:  cpu time    0.0485: real time    0.0485
     EDDAV:  cpu time   10.7715: real time   10.7867
       DOS:  cpu time    0.0012: real time    0.0011
    CHARGE:  cpu time    1.7589: real time    1.7612
    MIXING:  cpu time    0.5729: real time    0.5737
    --------------------------------------------
      LOOP:  cpu time   24.3844: real time   24.4190

 eigenvalue-minimisations  :    40
 total energy-change (2. order) :-0.5562115E-06  (-0.6977352E-09)
 number of electron      16.0000000 magnetization 
 augmentation part        1.7368736 magnetization 

 Broyden mixing:
  rms(total) = 0.23962E-04    rms(broyden)= 0.23962E-04
  rms(prec ) = 0.24055E-04
  weight for this iteration     100.00

 eigenvalues of (default mixing * dielectric matrix)
  average eigenvalue GAMMA=   2.1423
  9.5918  7.4303  5.5153  3.8264  2.8906  2.3141  2.3141  2.3065  1.9890  1.9890
  1.5367  1.5367  1.1517  1.1517  1.0809  1.0809  0.6561  0.9129  0.9129  0.8246
  0.8246  0.9006  0.8705  0.7957  0.7957  0.5003

 Free energy of the ion-electron system (eV)
  ---------------------------------------------------
  alpha Z        PSCENC =         0.01677508
  Ewald energy   TEWEN  =       495.65672804
  -Hartree energ DENC   =     -1042.02686495
  -exchange      EXHF   =         0.00000000
  -V(xc)+E(xc)   XCENC  =        59.35306487
  PAW double counting   =      2835.12025229    -2841.51883452
  entropy T*S    EENTRO =        -0.00000000
  eigenvalues    EBANDS =      -199.08041238
  atomic energy  EATOM  =       654.46440935
  Solvation  Ediel_sol  =         0.00000000
  ---------------------------------------------------
  free energy    TOTEN  =       -38.01488221 eV

  energy without entropy =      -38.01488221  energy(sigma->0) =      -38.01488221


--------------------------------------------------------------------------------------------------------




--------------------------------------- Iteration      1(  32)  ---------------------------------------


    POTLOK:  cpu time   11.2312: real time   11.2526
    SETDIJ:  cpu time    0.0474: real time    0.0474
     EDDAV:  cpu time    7.6281: real time    7.6411
       DOS:  cpu time    0.0006: real time    0.0006
    CHARGE:  cpu time    1.7542: real time    1.7566
    MIXING:  cpu time    0.6103: real time    0.6112
    --------------------------------------------
      LOOP:  cpu time   21.2718: real time   21.3095

 eigenvalue-minimisations  :    24
 total energy-change (2. order) :-0.4150984E-06  (-0.5179359E-09)
 number of electron      16.0000000 magnetization 
 augmentation part        1.7368734 magnetization 

 Broyden mixing:
  rms(total) = 0.84022E-05    rms(broyden)= 0.84022E-05
  rms(prec ) = 0.84653E-05
  weight for this iteration     100.00

 eigenvalues of (default mixing * dielectric matrix)
  average eigenvalue GAMMA=   2.1162
  9.6230  7.5053  5.7393  3.8551  3.1800  2.4956  2.3284  2.3284  1.8399  1.8399
  1.5153  1.5153  1.1581  1.1581  1.1373  1.1373  0.9823  0.9823  0.9005  0.9005
  0.6561  0.8483  0.8483  0.7929  0.7929  0.6168  0.4603

 Free energy of the ion-electron system (eV)
  ---------------------------------------------------
  alpha Z        PSCENC =         0.01677508
  Ewald energy   TEWEN  =       495.65672804
  -Hartree energ DENC   =     -1042.02722607
  -exchange      EXHF   =         0.00000000
  -V(xc)+E(xc)   XCENC  =        59.35308055
  PAW double counting   =      2835.11831503    -2841.51689440
  entropy T*S    EENTRO =        -0.00000000
  eigenvalues    EBANDS =      -199.08007021
  atomic energy  EATOM  =       654.46440935
  Solvation  Ediel_sol  =         0.00000000
  ---------------------------------------------------
  free energy    TOTEN  =       -38.01488263 eV

  energy without entropy =      -38.01488263  energy(sigma->0) =      -38.01488263


--------------------------------------------------------------------------------------------------------




--------------------------------------- Iteration      1(  33)  ---------------------------------------


    POTLOK:  cpu time   11.2436: real time   11.2583
    SETDIJ:  cpu time    0.0463: real time    0.0463
     EDDAV:  cpu time   10.7364: real time   10.7580
       DOS:  cpu time    0.0003: real time    0.0003
    CHARGE:  cpu time    1.7462: real time    1.7486
    MIXING:  cpu time    0.6360: real time    0.6369
    --------------------------------------------
      LOOP:  cpu time   24.4088: real time   24.4484

 eigenvalue-minimisations  :    40
 total energy-change (2. order) :-0.1922951E-06  (-0.3884892E-09)
 number of electron      16.0000000 magnetization 
 augmentation part        1.7368730 magnetization 

 Broyden mixing:
  rms(total) = 0.12078E-04    rms(broyden)= 0.12078E-04
  rms(prec ) = 0.12106E-04
  weight for this iteration     100.00

 eigenvalues of (default mixing * dielectric matrix)
  average eigenvalue GAMMA=   2.0993
  9.6377  7.6744  5.8444  4.1843  2.9310  2.6925  2.2901  2.2901  1.6468  1.6468
  1.6727  1.6727  1.6271  1.1443  1.1443  1.1230  0.9072  0.9072  0.9636  0.9636
  0.8060  0.8060  0.6561  0.8078  0.7908  0.7908  0.6863  0.4716

 Free energy of the ion-electron system (eV)
  ---------------------------------------------------
  alpha Z        PSCENC =         0.01677508
  Ewald energy   TEWEN  =       495.65672804
  -Hartree energ DENC   =     -1042.02721678
  -exchange      EXHF   =         0.00000000
  -V(xc)+E(xc)   XCENC  =        59.35307867
  PAW double counting   =      2835.11720559    -2841.51578342
  entropy T*S    EENTRO =        -0.00000000
  eigenvalues    EBANDS =      -199.08007935
  atomic energy  EATOM  =       654.46440935
  Solvation  Ediel_sol  =         0.00000000
  ---------------------------------------------------
  free energy    TOTEN  =       -38.01488282 eV

  energy without entropy =      -38.01488282  energy(sigma->0) =      -38.01488282


--------------------------------------------------------------------------------------------------------




--------------------------------------- Iteration      1(  34)  ---------------------------------------


    POTLOK:  cpu time   11.2182: real time   11.2385
    SETDIJ:  cpu time    0.0485: real time    0.0485
     EDDAV:  cpu time    7.6277: real time    7.6388
       DOS:  cpu time    0.0012: real time    0.0012
    CHARGE:  cpu time    1.7482: real time    1.7506
    MIXING:  cpu time    0.6560: real time    0.6570
    --------------------------------------------
      LOOP:  cpu time   21.2998: real time   21.3346

 eigenvalue-minimisations  :    24
 total energy-change (2. order) :-0.1029800E-06  (-0.3424852E-09)
 number of electron      16.0000000 magnetization 
 augmentation part        1.7368737 magnetization 

 Broyden mixing:
  rms(total) = 0.49191E-05    rms(broyden)= 0.49191E-05
  rms(prec ) = 0.49435E-05
  weight for this iteration     100.00

 eigenvalues of (default mixing * dielectric matrix)
  average eigenvalue GAMMA=   2.0776
  9.6595  7.7266  5.9105  4.2783  3.0561  2.6249  2.3036  2.3036  1.6858  1.6858
  1.7244  1.7244  1.3467  1.1570  1.1570  1.2416  0.9785  0.9785  0.9586  0.9586
  0.8934  0.8934  0.9292  0.6561  0.7838  0.7838  0.7800  0.6131  0.4580

 Free energy of the ion-electron system (eV)
  ---------------------------------------------------
  alpha Z        PSCENC =         0.01677508
  Ewald energy   TEWEN  =       495.65672804
  -Hartree energ DENC   =     -1042.02711459
  -exchange      EXHF   =         0.00000000
  -V(xc)+E(xc)   XCENC  =        59.35307287
  PAW double counting   =      2835.11965339    -2841.51823099
  entropy T*S    EENTRO =        -0.00000000
  eigenvalues    EBANDS =      -199.08017606
  atomic energy  EATOM  =       654.46440935
  Solvation  Ediel_sol  =         0.00000000
  ---------------------------------------------------
  free energy    TOTEN  =       -38.01488292 eV

  energy without entropy =      -38.01488292  energy(sigma->0) =      -38.01488292


--------------------------------------------------------------------------------------------------------




--------------------------------------- Iteration      1(  35)  ---------------------------------------


    POTLOK:  cpu time   11.2057: real time   11.2207
    SETDIJ:  cpu time    0.0448: real time    0.0448
     EDDAV:  cpu time    7.5725: real time    7.5904
       DOS:  cpu time    0.0006: real time    0.0006
    --------------------------------------------
      LOOP:  cpu time   18.8237: real time   18.8565

 eigenvalue-minimisations  :    24
 total energy-change (2. order) :-0.7827589E-07  (-0.3170690E-09)
 number of electron      16.0000000 magnetization 
 augmentation part        1.7368737 magnetization 

 Free energy of the ion-electron system (eV)
  ---------------------------------------------------
  alpha Z        PSCENC =         0.01677508
  Ewald energy   TEWEN  =       495.65672804
  -Hartree energ DENC   =     -1042.02708356
  -exchange      EXHF   =         0.00000000
  -V(xc)+E(xc)   XCENC  =        59.35307111
  PAW double counting   =      2835.11924643    -2841.51782368
  entropy T*S    EENTRO =        -0.00000000
  eigenvalues    EBANDS =      -199.08020577
  atomic energy  EATOM  =       654.46440935
  Solvation  Ediel_sol  =         0.00000000
  ---------------------------------------------------
  free energy    TOTEN  =       -38.01488300 eV

  energy without entropy =      -38.01488300  energy(sigma->0) =      -38.01488300


--------------------------------------------------------------------------------------------------------




 average (electrostatic) potential at core
  the test charge radii are     0.6256  0.8471  0.8742
  (the norm of the test charge is              1.0000)
       1 -37.8270       2 -37.8287       3 -37.7217       4 -37.8297       5 -41.4687
       6 -41.4686       7 -82.5128       8 -90.7634
 
 
 
 E-fermi :  -7.2268     XC(G=0):  -0.0377     alpha+bet : -0.0083


 k-point     1 :       0.0000    0.0000    0.0000
  band No.  band energies     occupation 
      1     -25.5397      2.00000
      2     -16.7691      2.00000
      3     -13.1953      2.00000
      4      -9.2911      2.00000
      5      -9.1828      2.00000
      6      -9.1809      2.00000
      7      -9.1016      2.00000
      8      -7.2797      2.00000
      9      -1.0341      0.00000
     10      -0.1813      0.00000
     11       0.0021      0.00000
     12       0.0952      0.00000
     13       0.1096      0.00000
     14       0.1126      0.00000
     15       0.1167      0.00000
     16       0.1236      0.00000


--------------------------------------------------------------------------------------------------------


 soft charge-density along one line, spin component            1
         0         1         2         3         4         5         6         7         8         9
 total charge-density along one line
 
 pseudopotential strength for first ion, spin component:            1
 -2.251  -3.553  -0.008   0.011  -0.019
 -3.553  -5.441  -0.014   0.020  -0.035
 -0.008  -0.014  -0.137  -0.005   0.009
  0.011   0.020  -0.005  -0.133  -0.013
 -0.019  -0.035   0.009  -0.013  -0.118
 total augmentation occupancy for first ion, spin component:            1
  2.942  -0.434   0.221  -0.315   0.545
 -0.434   0.090  -0.031   0.045  -0.077
  0.221  -0.031   0.035  -0.021   0.036
 -0.315   0.045  -0.021   0.049  -0.051
  0.545  -0.077   0.036  -0.051   0.108


------------------------ aborting loop because EDIFF is reached ----------------------------------------



 DIPCOR: dipole corrections for dipol
 direction  1 min pos   354, direction  2 min pos   389, direction  3 min pos   372,
 dipolmoment          -0.003563     -0.416586      0.019037 electrons x Angstroem
 Tr[quadrupol]         5.306227

 energy correction for charged system         0.000000 eV
 dipol+quadrupol energy correction            0.000122 eV
 added-field ion interaction          0.000000 eV  (added to PSCEN)

 
  *************** adding dipol energy to TOTEN NOW **************** 
    CHARGE:  cpu time    1.7585: real time    1.7667
    FORLOC:  cpu time    0.5936: real time    0.5942
    FORNL :  cpu time    0.5267: real time    0.5275
    STRESS:  cpu time    5.3759: real time    5.3842
    FORHAR:  cpu time    3.3842: real time    3.3885
    MIXING:  cpu time    0.6957: real time    0.6974
    OFIELD:  cpu time    0.0000: real time    0.0000

  FORCE on cell =-STRESS in cart. coord.  units (eV):
  Direction    XX          YY          ZZ          XY          YZ          ZX
  --------------------------------------------------------------------------------------
  Alpha Z     0.01678     0.01678     0.01678
  Ewald      70.77121   298.39353   126.49191     3.01617     0.24223    54.28293
  Hartree   281.03173   470.42456   290.57082     0.53564    -0.10921     9.28264
  E(xc)     -63.10557   -62.94303   -62.88623     0.01212     0.00084     0.21376
  Local    -574.29985  -979.41625  -621.54313    -2.56792    -0.00316   -46.00752
  n-local    17.84890    15.40443    15.63423    -0.12978     0.03091    -2.15580
  augment    51.90675    49.51966    48.48086    -0.18816    -0.02046    -3.33847
  Kinetic   216.74206   209.99726   205.22093    -0.62166    -0.12286   -11.23037
  Fock        0.00000     0.00000     0.00000     0.00000     0.00000     0.00000
  -------------------------------------------------------------------------------------
  Total       0.91201     1.39694     1.98618     0.05641     0.01829     1.04716
  in kB       0.03408     0.05220     0.07422     0.00211     0.00068     0.03913
  external pressure =        0.05 kB  Pullay stress =        0.00 kB


 VOLUME and BASIS-vectors are now :
 -----------------------------------------------------------------------------
  energy-cutoff  :     1000.00
  volume of cell :    42875.00
      direct lattice vectors                 reciprocal lattice vectors
    35.000000000  0.000000000  0.000000000     0.028571429  0.000000000  0.000000000
     0.000000000 35.000000000  0.000000000     0.000000000  0.028571429  0.000000000
     0.000000000  0.000000000 35.000000000     0.000000000  0.000000000  0.028571429

  length of vectors
    35.000000000 35.000000000 35.000000000     0.028571429  0.028571429  0.028571429


 FORCES acting on ions
    electron-ion (+dipol)            ewald-force                    non-local-force                 convergence-correction
 -----------------------------------------------------------------------------------------------
   0.445E+02 0.220E+02 -.257E+02   -.492E+02 -.239E+02 0.284E+02   0.454E+01 0.184E+01 -.262E+01   0.108E-05 0.561E-06 -.876E-06
   -.445E+02 0.220E+02 -.257E+02   0.492E+02 -.239E+02 0.284E+02   -.454E+01 0.184E+01 -.262E+01   -.123E-05 0.720E-06 -.692E-06
   0.363E-04 -.449E+02 -.141E-01   0.635E-03 0.507E+02 0.162E-01   -.301E-03 -.561E+01 -.880E-03   -.227E-07 -.875E-06 -.207E-06
   -.244E-02 0.220E+02 0.514E+02   0.383E-02 -.239E+02 -.568E+02   -.339E-03 0.184E+01 0.524E+01   -.193E-06 0.829E-06 0.142E-05
   0.375E+02 -.533E+02 0.646E+02   -.415E+02 0.586E+02 -.716E+02   0.325E+01 -.432E+01 0.560E+01   -.921E-06 0.201E-05 -.170E-05
   -.384E+02 -.587E+02 -.594E+02   0.426E+02 0.645E+02 0.658E+02   -.333E+01 -.479E+01 -.514E+01   0.998E-06 0.216E-05 0.145E-05
   -.410E-02 0.208E+02 -.215E-01   0.345E-03 -.203E+02 0.308E-01   0.210E-02 -.453E+00 -.926E-02   -.355E-06 -.681E-06 -.114E-05
   0.417E+00 0.137E+02 -.233E+01   -.104E+01 -.818E+02 0.573E+01   0.601E+00 0.661E+02 -.330E+01   0.994E-07 0.108E-04 -.921E-06
 -----------------------------------------------------------------------------------------------
   -.520E+00 -.564E+02 0.286E+01   0.644E-14 0.284E-13 -.266E-13   0.520E+00 0.564E+02 -.286E+01   -.544E-06 0.156E-04 -.267E-05
 
 
 POSITION                                       TOTAL-FORCE (eV/Angst)
 -----------------------------------------------------------------------------------
     34.10848     33.54416      0.51472        -0.152289     -0.067971      0.088012
      0.89152     33.54416      0.51472         0.152672     -0.068515      0.087029
      0.00000      0.00000      0.00000         0.000370      0.196104      0.001187
      0.00000     33.54416     33.97057         0.001044     -0.069488     -0.176109
     34.60990      4.06172     34.32433        -0.802464      0.936494     -1.375651
      0.40075      4.11910      0.61672         0.820459      1.053607      1.276215
      0.00000     33.90812      0.00000        -0.001658      0.024800      0.000038
      0.00000      3.50000      0.00000        -0.018134     -2.005030      0.099280
 -----------------------------------------------------------------------------------
    total drift:                                0.000003     -0.000101      0.000017


--------------------------------------------------------------------------------------------------------



  FREE ENERGIE OF THE ION-ELECTRON SYSTEM (eV)
  ---------------------------------------------------
  free  energy   TOTEN  =       -38.01476065 eV

  energy  without entropy=      -38.01476065  energy(sigma->0) =      -38.01476065
 


--------------------------------------------------------------------------------------------------------


    POTLOK:  cpu time   11.2281: real time   11.2443


--------------------------------------------------------------------------------------------------------


 writing wavefunctions
     LOOP+:  cpu time 1111.2698: real time 1113.9577
    4ORBIT:  cpu time    0.0000: real time    0.0000

 total amount of memory used by VASP MPI-rank0  1992877. kBytes
=======================================================================

   base      :      30000. kBytes
   nonl-proj :     123143. kBytes
   fftplans  :     660854. kBytes
   grid      :    1154248. kBytes
   one-center:          3. kBytes
   wavefun   :      24629. kBytes
 
  
  
 General timing and accounting informations for this job:
 ========================================================
  
                  Total CPU time used (sec):     1426.966
                            User time (sec):     1345.102
                          System time (sec):       81.864
                         Elapsed time (sec):     1439.504
  
                   Maximum memory used (kb):     2430908.
                   Average memory used (kb):           0.
  
                          Minor page faults:     32470555
                          Major page faults:          161
                 Voluntary context switches:        56190
