 vasp.6.1.2 22Jul20 (build Jan  5 2021 21:18:56) complex                         
 executed on             LinuxPGI date 2021.02.18  01:35:03
 running on   32 total cores
 distrk:  each k-point on   32 cores,    1 groups
 distr:  one band on NCORE=   8 cores,    4 groups


--------------------------------------------------------------------------------------------------------


 INCAR:
 POTCAR:    PAW_PBE H_s 15May2010                 
 POTCAR:    PAW_PBE C_s 06Sep2000                 
 POTCAR:    PAW_PBE O_s 07Sep2000                 
 POTCAR:    PAW_PBE H_s 15May2010                 
   VRHFIN =H: ultrasoft test                                                                        
   LEXCH  = PE                                                                                      
   EATOM  =    12.4884 eV,    0.9179 Ry                                                             
                                                                                                    
   TITEL  = PAW_PBE H_s 15May2010                                                                   
   LULTRA =        F    use ultrasoft PP ?                                                          
   IUNSCR =        0    unscreen: 0-lin 1-nonlin 2-no                                               
   RPACOR =    0.000    partial core radius                                                         
   POMASS =    1.000; ZVAL   =    1.000    mass and valenz                                          
   RCORE  =    1.300    outmost cutoff radius                                                       
   RWIGS  =    0.700; RWIGS  =    0.370    wigner-seitz radius (au A)                               
   ENMAX  =  200.000; ENMIN  =  150.000 eV                                                          
   RCLOC  =    0.701    cutoff for local pot                                                        
   LCOR   =        T    correct aug charges                                                         
   LPAW   =        T    paw PP                                                                      
   EAUG   =  300.000                                                                                
   RMAX   =    1.330    core radius for proj-oper                                                   
   RAUG   =    1.200    factor for augmentation sphere                                              
   RDEP   =    1.337    radius for radial grids                                                     
   RDEPT  =    1.114    core radius for aug-charge                                                  
                                                                                                    
   Atomic configuration                                                                             
    2 entries                                                                                       
     n  l   j            E        occ.                                                              
     1  0  0.50        -6.4927   1.0000                                                             
     2  1  0.50        -3.4015   0.0000                                                             
   Description                                                                                      
     l       E           TYP  RCUT    TYP  RCUT                                                     
     0     -6.4927494     23  1.300                                                                 
     0      6.8029130     23  1.300                                                                 
     1     -4.0817478     23  1.300                                                                 
  local pseudopotential read in
  atomic valenz-charges read in
  non local Contribution for L=            0  read in
    real space projection operators read in
  non local Contribution for L=            0  read in
    real space projection operators read in
  non local Contribution for L=            1  read in
    real space projection operators read in
    PAW grid and wavefunctions read in
 
   number of l-projection  operators is LMAX  =            3
   number of lm-projection operators is LMMAX =            5
 
 POTCAR:    PAW_PBE C_s 06Sep2000                 
   VRHFIN =C: s2p2                                                                                  
   LEXCH  = PE                                                                                      
   EATOM  =   147.1560 eV,   10.8157 Ry                                                             
                                                                                                    
   TITEL  = PAW_PBE C_s 06Sep2000                                                                   
   LULTRA =        F    use ultrasoft PP ?                                                          
   IUNSCR =        0    unscreen: 0-lin 1-nonlin 2-no                                               
   RPACOR =    0.000    partial core radius                                                         
   POMASS =   12.011; ZVAL   =    4.000    mass and valenz                                          
   RCORE  =    1.850    outmost cutoff radius                                                       
   RWIGS  =    1.890; RWIGS  =    1.000    wigner-seitz radius (au A)                               
   ENMAX  =  273.911; ENMIN  =  205.433 eV                                                          
   RCLOC  =    0.804    cutoff for local pot                                                        
   LCOR   =        T    correct aug charges                                                         
   LPAW   =        T    paw PP                                                                      
   EAUG   =  439.243                                                                                
   DEXC   =    0.000                                                                                
   RMAX   =    1.897    core radius for proj-oper                                                   
   RAUG   =    1.300    factor for augmentation sphere                                              
   RDEP   =    1.940    radius for radial grids                                                     
   RDEPT  =    1.573    core radius for aug-charge                                                  
                                                                                                    
   Atomic configuration                                                                             
    4 entries                                                                                       
     n  l   j            E        occ.                                                              
     1  0  0.50      -273.3789   2.0000                                                             
     2  0  0.50       -13.7508   2.0000                                                             
     2  1  0.50        -5.2854   2.0000                                                             
     3  2  1.50        -1.3606   0.0000                                                             
   Description                                                                                      
     l       E           TYP  RCUT    TYP  RCUT                                                     
     0    -13.7508457     23  1.500                                                                 
     0    -11.0934578     23  1.500                                                                 
     1     -5.2854381     23  1.850                                                                 
     1     -1.3099858     23  1.850                                                                 
  local pseudopotential read in
  atomic valenz-charges read in
  non local Contribution for L=            0  read in
    real space projection operators read in
  non local Contribution for L=            0  read in
    real space projection operators read in
  non local Contribution for L=            1  read in
    real space projection operators read in
  non local Contribution for L=            1  read in
    real space projection operators read in
    PAW grid and wavefunctions read in
 
   number of l-projection  operators is LMAX  =            4
   number of lm-projection operators is LMMAX =            8
 
 POTCAR:    PAW_PBE O_s 07Sep2000                 
   VRHFIN =O: s2p4                                                                                  
   LEXCH  = PE                                                                                      
   EATOM  =   432.3788 eV,   31.7789 Ry                                                             
                                                                                                    
   TITEL  = PAW_PBE O_s 07Sep2000                                                                   
   LULTRA =        F    use ultrasoft PP ?                                                          
   IUNSCR =        0    unscreen: 0-lin 1-nonlin 2-no                                               
   RPACOR =    0.000    partial core radius                                                         
   POMASS =   16.000; ZVAL   =    6.000    mass and valenz                                          
   RCORE  =    1.850    outmost cutoff radius                                                       
   RWIGS  =    1.700; RWIGS  =    0.900    wigner-seitz radius (au A)                               
   ENMAX  =  282.853; ENMIN  =  212.140 eV                                                          
   RCLOC  =    0.804    cutoff for local pot                                                        
   LCOR   =        T    correct aug charges                                                         
   LPAW   =        T    paw PP                                                                      
   EAUG   =  412.352                                                                                
   RMAX   =    1.897    core radius for proj-oper                                                   
   RAUG   =    1.300    factor for augmentation sphere                                              
   RDEP   =    1.878    radius for radial grids                                                     
   RDEPT  =    1.572    core radius for aug-charge                                                  
                                                                                                    
   Atomic configuration                                                                             
    4 entries                                                                                       
     n  l   j            E        occ.                                                              
     1  0  0.50      -514.6923   2.0000                                                             
     2  0  0.50       -23.9615   2.0000                                                             
     2  1  0.50        -9.0305   4.0000                                                             
     3  2  1.50        -1.3606   0.0000                                                             
   Description                                                                                      
     l       E           TYP  RCUT    TYP  RCUT                                                     
     0    -23.9615315     23  1.500                                                                 
     0    -25.3221141     23  1.500                                                                 
     1     -9.0304908     23  1.850                                                                 
     1     -7.3935399     23  1.850                                                                 
  local pseudopotential read in
  atomic valenz-charges read in
  non local Contribution for L=            0  read in
    real space projection operators read in
  non local Contribution for L=            0  read in
    real space projection operators read in
  non local Contribution for L=            1  read in
    real space projection operators read in
  non local Contribution for L=            1  read in
    real space projection operators read in
    PAW grid and wavefunctions read in
 
   number of l-projection  operators is LMAX  =            4
   number of lm-projection operators is LMMAX =            8
 
  PAW_PBE H_s 15May2010                 :
 energy of atom  1       EATOM=  -12.4884
 kinetic energy error for atom=    0.0000 (will be added to EATOM!!)
  PAW_PBE C_s 06Sep2000                 :
 energy of atom  2       EATOM= -147.1560
 kinetic energy error for atom=    0.0002 (will be added to EATOM!!)
  PAW_PBE O_s 07Sep2000                 :
 energy of atom  3       EATOM= -432.3788
 kinetic energy error for atom=    0.0004 (will be added to EATOM!!)
 
 
 POSCAR:  H  C  O
  positions in cartesian coordinates
  No initial velocities read in
 exchange correlation table for  LEXCH =        8
   RHO(1)=    0.500       N(1)  =     2000
   RHO(2)=  100.500       N(2)  =     4000
 


--------------------------------------------------------------------------------------------------------


 ion  position               nearest neighbor table
   1  0.975  0.958  0.015-   7 1.09
   2  0.025  0.958  0.015-   7 1.09
   3  0.000  0.000  0.000-   7 1.09
   4  0.000  0.958  0.971-   7 1.09
   5  0.989  0.076  0.981-   8 0.96
   6  0.011  0.078  0.018-   8 0.96
   7  0.000  0.969  0.000-   4 1.09   2 1.09   1 1.09   3 1.09
   8  0.000  0.060  0.000-   6 0.96   5 0.96
 
  LATTYP: Found a simple cubic cell.
 ALAT       =    35.0000000000
  
  Lattice vectors:
  
 A1 = (  35.0000000000,   0.0000000000,   0.0000000000)
 A2 = (   0.0000000000,  35.0000000000,   0.0000000000)
 A3 = (   0.0000000000,   0.0000000000,  35.0000000000)


Analysis of symmetry for initial positions (statically):
=====================================================================
 Subroutine PRICEL returns:
 Original cell was already a primitive cell.
 

 Routine SETGRP: Setting up the symmetry group for a 
 simple cubic supercell.


 Subroutine GETGRP returns: Found  1 space group operations
 (whereof  1 operations were pure point group operations)
 out of a pool of 48 trial point group operations.


The static configuration has the point symmetry C_1 .


Analysis of symmetry for dynamics (positions and initial velocities):
=====================================================================
 Subroutine PRICEL returns:
 Original cell was already a primitive cell.
 

 Routine SETGRP: Setting up the symmetry group for a 
 simple cubic supercell.


 Subroutine GETGRP returns: Found  1 space group operations
 (whereof  1 operations were pure point group operations)
 out of a pool of 48 trial point group operations.


The dynamic configuration has the point symmetry C_1 .


 Subroutine INISYM returns: Found  1 space group operations
 (whereof  1 operations are pure point group operations),
 and found     1 'primitive' translations


----------------------------------------------------------------------------------------

                                     Primitive cell                                     

  volume of cell :   42875.0000

  direct lattice vectors                    reciprocal lattice vectors
    35.000000000  0.000000000  0.000000000     0.028571429  0.000000000  0.000000000
     0.000000000 35.000000000  0.000000000     0.000000000  0.028571429  0.000000000
     0.000000000  0.000000000 35.000000000     0.000000000  0.000000000  0.028571429

  length of vectors
    35.000000000 35.000000000 35.000000000     0.028571429  0.028571429  0.028571429

  position of ions in fractional coordinates (direct lattice)
     0.974528115  0.958404585  0.014706200
     0.025471885  0.958404585  0.014706200
     0.000000000  0.000000000  0.000000000
     0.000000000  0.958404585  0.970587600
     0.988854402  0.076049234  0.980695258
     0.011450048  0.077688576  0.017620613
     0.000000000  0.968803439  0.000000000
     0.000000000  0.060000000  0.000000000

  ion indices of the primitive-cell ions
   primitive index   ion index
                 1           1
                 2           2
                 3           3
                 4           4
                 5           5
                 6           6
                 7           7
                 8           8

----------------------------------------------------------------------------------------

 
 
 KPOINTS: automatic mesh                          

Automatic generation of k-mesh.
Space group operators:
 irot       det(A)        alpha          n_x          n_y          n_z        tau_x        tau_y        tau_z
    1     1.000000     0.000000     1.000000     0.000000     0.000000     0.000000     0.000000     0.000000
 
 Subroutine IBZKPT returns following result:
 ===========================================
 
 Found      1 irreducible k-points:
 
 Following reciprocal coordinates:
            Coordinates               Weight
  0.000000  0.000000  0.000000      1.000000
 
 Following cartesian coordinates:
            Coordinates               Weight
  0.000000  0.000000  0.000000      1.000000
 


--------------------------------------------------------------------------------------------------------




 Dimension of arrays:
   k-points           NKPTS =      1   k-points in BZ     NKDIM =      1   number of bands    NBANDS=     16
   number of dos      NEDOS =    301   number of ions     NIONS =      8
   non local maximal  LDIM  =      4   non local SUM 2l+1 LMDIM =      8
   total plane-waves  NPLWV = ******
   max r-space proj   IRMAX =      1   max aug-charges    IRDMAX=  29269
   dimension x,y,z NGX =   378 NGY =  378 NGZ =  378
   dimension x,y,z NGXF=   756 NGYF=  756 NGZF=  756
   support grid    NGXF=   756 NGYF=  756 NGZF=  756
   ions per type =               6   1   1
   NGX,Y,Z   is equivalent  to a cutoff of  17.95, 17.95, 17.95 a.u.
   NGXF,Y,Z  is equivalent  to a cutoff of  35.91, 35.91, 35.91 a.u.

 SYSTEM =  C                                       
 POSCAR =   H  C  O                                

 Startparameter for this run:
   NWRITE =      2    write-flag & timer
   PREC   = acc       normal or accurate (medium, high low for compatibility)
   ISTART =      0    job   : 0-new  1-cont  2-samecut
   ICHARG =      2    charge: 1-file 2-atom 10-const
   ISPIN  =      1    spin polarized calculation?
   LNONCOLLINEAR =      F non collinear calculations
   LSORBIT =      F    spin-orbit coupling
   INIWAV =      1    electr: 0-lowe 1-rand  2-diag
   LASPH  =      T    aspherical Exc in radial PAW
   METAGGA=      F    non-selfconsistent MetaGGA calc.

 Electronic Relaxation 1
   ENCUT  = 1000.0 eV  73.50 Ry    8.57 a.u.  90.25 90.25 90.25*2*pi/ulx,y,z
   ENINI  = 1000.0     initial cutoff
   ENAUG  =  439.2 eV  augmentation charge cutoff
   NELM   =     60;   NELMIN=  2; NELMDL= -5     # of ELM steps 
   EDIFF  = 0.1E-06   stopping-criterion for ELM
   LREAL  =      F    real-space projection
   NLSPLINE    = F    spline interpolate recip. space projectors
   LCOMPAT=      F    compatible to vasp.4.4
   GGA_COMPAT  = T    GGA compatible to vasp.4.4-vasp.4.6
   LMAXPAW     = -100 max onsite density
   LMAXMIX     =    2 max onsite mixed and CHGCAR
   VOSKOWN=      0    Vosko Wilk Nusair interpolation
   ROPT   =    0.00000   0.00000   0.00000
 Ionic relaxation
   EDIFFG = 0.1E-05   stopping-criterion for IOM
   NSW    =      0    number of steps for IOM
   NBLOCK =      1;   KBLOCK =      1    inner block; outer block 
   IBRION =     -1    ionic relax: 0-MD 1-quasi-New 2-CG
   NFREE  =      0    steps in history (QN), initial steepest desc. (CG)
   ISIF   =      2    stress and relaxation
   IWAVPR =     10    prediction:  0-non 1-charg 2-wave 3-comb
   ISYM   =      2    0-nonsym 1-usesym 2-fastsym
   LCORR  =      T    Harris-Foulkes like correction to forces

   POTIM  = 0.5000    time-step for ionic-motion
   TEIN   =    0.0    initial temperature
   TEBEG  =    0.0;   TEEND  =   0.0 temperature during run
   SMASS  =  -3.00    Nose mass-parameter (am)
   estimated Nose-frequenzy (Omega)   =  0.10E-29 period in steps = 0.13E+47 mass=  -0.280E-25a.u.
   SCALEE = 1.0000    scale energy and forces
   NPACO  =    256;   APACO  = 16.0  distance and # of slots for P.C.
   PSTRESS=    0.0 pullay stress

  Mass of Ions in am
   POMASS =   1.00 12.01 16.00
  Ionic Valenz
   ZVAL   =   1.00  4.00  6.00
  Atomic Wigner-Seitz radii
   RWIGS  =  -1.00 -1.00 -1.00
  virtual crystal weights 
   VCA    =   1.00  1.00  1.00
   NELECT =      16.0000    total number of electrons
   NUPDOWN=      -1.0000    fix difference up-down

 DOS related values:
   EMIN   =  10.00;   EMAX   =-10.00  energy-range for DOS
   EFERMI =   0.00
   ISMEAR =     0;   SIGMA  =   0.01  broadening in eV -4-tet -1-fermi 0-gaus

 Electronic relaxation 2 (details)
   IALGO  =     38    algorithm
   LDIAG  =      T    sub-space diagonalisation (order eigenvalues)
   LSUBROT=      F    optimize rotation matrix (better conditioning)
   TURBO    =      0    0=normal 1=particle mesh
   IRESTART =      0    0=no restart 2=restart with 2 vectors
   NREBOOT  =      0    no. of reboots
   NMIN     =      0    reboot dimension
   EREF     =   0.00    reference energy to select bands
   IMIX   =      4    mixing-type and parameters
     AMIX     =   0.40;   BMIX     =  1.00
     AMIX_MAG =   1.60;   BMIX_MAG =  1.00
     AMIN     =   0.10
     WC   =   100.;   INIMIX=   1;  MIXPRE=   1;  MAXMIX= -45

 Intra band minimization:
   WEIMIN = 0.0000     energy-eigenvalue tresh-hold
   EBREAK =  0.16E-08  absolut break condition
   DEPER  =   0.30     relativ break condition  

   TIME   =   0.40     timestep for ELM

  volume/ion in A,a.u.               =    5359.38     36166.85
  Fermi-wavevector in a.u.,A,eV,Ry     =   0.117864  0.222730  0.189010  0.013892
  Thomas-Fermi vector in A             =   0.732055
 
 Write flags
   LWAVE        =      T    write WAVECAR
   LDOWNSAMPLE  =      F    k-point downsampling of WAVECAR
   LCHARG       =      T    write CHGCAR
   LVTOT        =      F    write LOCPOT, total local potential
   LVHAR        =      F    write LOCPOT, Hartree potential only
   LELF         =      F    write electronic localiz. function (ELF)
   LORBIT       =      0    0 simple, 1 ext, 2 COOP (PROOUT), +10 PAW based schemes


 Dipole corrections
   LMONO  =      F    monopole corrections only (constant potential shift)
   LDIPOL =      F    correct potential (dipole corrections)
   IDIPOL =      4    1-x, 2-y, 3-z, 4-all directions 
   EPSILON=  1.0000000 bulk dielectric constant

 Exchange correlation treatment:
   GGA     =    --    GGA type
   LEXCH   =     8    internal setting for exchange type
   VOSKOWN=      0    Vosko Wilk Nusair interpolation
   LHFCALC =     F    Hartree Fock is set to
   LHFONE  =     F    Hartree Fock one center treatment
   AEXX    =    0.0000 exact exchange contribution

 Linear response parameters
   LEPSILON=     F    determine dielectric tensor
   LRPA    =     F    only Hartree local field effects (RPA)
   LNABLA  =     F    use nabla operator in PAW spheres
   LVEL    =     F    velocity operator in full k-point grid
   LINTERFAST=   F  fast interpolation
   KINTER  =     0    interpolate to denser k-point grid
   CSHIFT  =0.1000    complex shift for real part using Kramers Kronig
   OMEGAMAX=  -1.0    maximum frequency
   DEG_THRESHOLD= 0.2000000E-02 threshold for treating states as degnerate
   RTIME   =   -0.100 relaxation time in fs
  (WPLASMAI=    0.000 imaginary part of plasma frequency in eV, 0.658/RTIME)
   DFIELD  = 0.0000000 0.0000000 0.0000000 field for delta impulse in time
 
 Orbital magnetization related:
   ORBITALMAG=     F  switch on orbital magnetization
   LCHIMAG   =     F  perturbation theory with respect to B field
   DQ        =  0.001000  dq finite difference perturbation B field
   LLRAUG    =     F  two centre corrections for induced B field



--------------------------------------------------------------------------------------------------------


 Static calculation
 charge density and potential will be updated during run
 non-spin polarized calculation
 Variant of blocked Davidson
 Davidson routine will perform the subspace rotation
 perform sub-space diagonalisation
    after iterative eigenvector-optimisation
 modified Broyden-mixing scheme, WC =      100.0
 initial mixing is a Kerker type mixing with AMIX =  0.4000 and BMIX =      1.0000
 Hartree-type preconditioning will be used
 using additional bands             8
 reciprocal scheme for non local part
 calculate Harris-corrections to forces 
   (improved forces if not selfconsistent)
 use gradient corrections 
 use of overlap-Matrix (Vanderbilt PP)
 Gauss-broadening in eV      SIGMA  =   0.01


--------------------------------------------------------------------------------------------------------


  energy-cutoff  :     1000.00
  volume of cell :    42875.00
      direct lattice vectors                 reciprocal lattice vectors
    35.000000000  0.000000000  0.000000000     0.028571429  0.000000000  0.000000000
     0.000000000 35.000000000  0.000000000     0.000000000  0.028571429  0.000000000
     0.000000000  0.000000000 35.000000000     0.000000000  0.000000000  0.028571429

  length of vectors
    35.000000000 35.000000000 35.000000000     0.028571429  0.028571429  0.028571429


 
 k-points in units of 2pi/SCALE and weight: automatic mesh                          
   0.00000000  0.00000000  0.00000000       1.000
 
 k-points in reciprocal lattice and weights: automatic mesh                          
   0.00000000  0.00000000  0.00000000       1.000
 
 position of ions in fractional coordinates (direct lattice) 
   0.97452811  0.95840459  0.01470620
   0.02547189  0.95840459  0.01470620
   0.00000000  0.00000000  0.00000000
   0.00000000  0.95840459  0.97058760
   0.98885440  0.07604923  0.98069526
   0.01145005  0.07768858  0.01762061
   0.00000000  0.96880344  0.00000000
   0.00000000  0.06000000  0.00000000
 
 position of ions in cartesian coordinates  (Angst):
  34.10848401 33.54416049  0.51471700
   0.89151599 33.54416049  0.51471700
   0.00000000  0.00000000  0.00000000
   0.00000000 33.54416049 33.97056601
  34.60990407  2.66172320 34.32433404
   0.40075167  2.71910016  0.61672147
   0.00000000 33.90812037  0.00000000
   0.00000000  2.10000000  0.00000000
 


--------------------------------------------------------------------------------------------------------


 k-point   1 :   0.0000 0.0000 0.0000  plane waves: 3078417

 maximum and minimum number of plane-waves per node :    384834   384776

 maximum number of plane-waves:   3078417
 maximum index in each direction: 
   IXMAX=   90   IYMAX=   90   IZMAX=   90
   IXMIN=  -90   IYMIN=  -90   IZMIN=  -90


 parallel 3D FFT for wavefunctions:
    minimum data exchange during FFTs selected (reduces bandwidth)
 parallel 3D FFT for charge:
    minimum data exchange during FFTs selected (reduces bandwidth)


 total amount of memory used by VASP MPI-rank0  1992877. kBytes
=======================================================================

   base      :      30000. kBytes
   nonl-proj :     123143. kBytes
   fftplans  :     660854. kBytes
   grid      :    1154248. kBytes
   one-center:          3. kBytes
   wavefun   :      24629. kBytes
 
     INWAV:  cpu time    0.0000: real time    0.0000
 Broyden mixing: mesh for mixing (old mesh)
   NGX =181   NGY =181   NGZ =181
  (NGX  =756   NGY  =756   NGZ  =756)
  gives a total of ****** points

 initial charge density was supplied:
 charge density of overlapping atoms calculated
 number of electron      16.0000000 magnetization 
 keeping initial charge density in first step


--------------------------------------------------------------------------------------------------------


 Maximum index for augmentation-charges          1120 (set IRDMAX)


--------------------------------------------------------------------------------------------------------


 First call to EWALD:  gamma=   0.051
 Maximum number of real-space cells 3x 3x 3
 Maximum number of reciprocal cells 3x 3x 3

    FEWALD:  cpu time    0.0012: real time    0.0012


--------------------------------------- Iteration      1(   1)  ---------------------------------------


    POTLOK:  cpu time   11.4216: real time   11.4414
    SETDIJ:  cpu time    0.0408: real time    0.0415
     EDDAV:  cpu time   11.9064: real time   12.7855
       DOS:  cpu time    0.0010: real time    0.0010
    --------------------------------------------
      LOOP:  cpu time   23.3698: real time   24.2693

 eigenvalue-minimisations  :    48
 total energy-change (2. order) : 0.1091782E+03  (-0.2532695E+03)
 number of electron      16.0000000 magnetization 
 augmentation part       16.0000000 magnetization 

 Free energy of the ion-electron system (eV)
  ---------------------------------------------------
  alpha Z        PSCENC =         0.01677508
  Ewald energy   TEWEN  =       579.40607677
  -Hartree energ DENC   =     -1047.22645550
  -exchange      EXHF   =         0.00000000
  -V(xc)+E(xc)   XCENC  =        54.90759701
  PAW double counting   =       471.26503334     -476.31654927
  entropy T*S    EENTRO =        -0.00050541
  eigenvalues    EBANDS =      -127.33813881
  atomic energy  EATOM  =       654.46440935
  Solvation  Ediel_sol  =         0.00000000
  ---------------------------------------------------
  free energy    TOTEN  =       109.17824255 eV

  energy without entropy =      109.17874796  energy(sigma->0) =      109.17849526


--------------------------------------------------------------------------------------------------------




--------------------------------------- Iteration      1(   2)  ---------------------------------------


     EDDAV:  cpu time   14.8285: real time   14.8489
       DOS:  cpu time    0.0037: real time    0.0037
    --------------------------------------------
      LOOP:  cpu time   14.8323: real time   14.8526

 eigenvalue-minimisations  :    64
 total energy-change (2. order) :-0.1056603E+03  (-0.9976508E+02)
 number of electron      16.0000000 magnetization 
 augmentation part       16.0000000 magnetization 

 Free energy of the ion-electron system (eV)
  ---------------------------------------------------
  alpha Z        PSCENC =         0.01677508
  Ewald energy   TEWEN  =       579.40607677
  -Hartree energ DENC   =     -1047.22645550
  -exchange      EXHF   =         0.00000000
  -V(xc)+E(xc)   XCENC  =        54.90759701
  PAW double counting   =       471.26503334     -476.31654927
  entropy T*S    EENTRO =        -0.00000000
  eigenvalues    EBANDS =      -232.99895100
  atomic energy  EATOM  =       654.46440935
  Solvation  Ediel_sol  =         0.00000000
  ---------------------------------------------------
  free energy    TOTEN  =         3.51793577 eV

  energy without entropy =        3.51793577  energy(sigma->0) =        3.51793577


--------------------------------------------------------------------------------------------------------




--------------------------------------- Iteration      1(   3)  ---------------------------------------


     EDDAV:  cpu time   10.3727: real time   10.3965
       DOS:  cpu time    0.0020: real time    0.0020
    --------------------------------------------
      LOOP:  cpu time   10.3747: real time   10.3985

 eigenvalue-minimisations  :    40
 total energy-change (2. order) :-0.4380264E+02  (-0.4373641E+02)
 number of electron      16.0000000 magnetization 
 augmentation part       16.0000000 magnetization 

 Free energy of the ion-electron system (eV)
  ---------------------------------------------------
  alpha Z        PSCENC =         0.01677508
  Ewald energy   TEWEN  =       579.40607677
  -Hartree energ DENC   =     -1047.22645550
  -exchange      EXHF   =         0.00000000
  -V(xc)+E(xc)   XCENC  =        54.90759701
  PAW double counting   =       471.26503334     -476.31654927
  entropy T*S    EENTRO =        -0.00000000
  eigenvalues    EBANDS =      -276.80159327
  atomic energy  EATOM  =       654.46440935
  Solvation  Ediel_sol  =         0.00000000
  ---------------------------------------------------
  free energy    TOTEN  =       -40.28470650 eV

  energy without entropy =      -40.28470650  energy(sigma->0) =      -40.28470650


--------------------------------------------------------------------------------------------------------




--------------------------------------- Iteration      1(   4)  ---------------------------------------


     EDDAV:  cpu time   11.8672: real time   11.8933
       DOS:  cpu time    0.0049: real time    0.0049
    --------------------------------------------
      LOOP:  cpu time   11.8721: real time   11.8982

 eigenvalue-minimisations  :    48
 total energy-change (2. order) :-0.3460970E+01  (-0.3460148E+01)
 number of electron      16.0000000 magnetization 
 augmentation part       16.0000000 magnetization 

 Free energy of the ion-electron system (eV)
  ---------------------------------------------------
  alpha Z        PSCENC =         0.01677508
  Ewald energy   TEWEN  =       579.40607677
  -Hartree energ DENC   =     -1047.22645550
  -exchange      EXHF   =         0.00000000
  -V(xc)+E(xc)   XCENC  =        54.90759701
  PAW double counting   =       471.26503334     -476.31654927
  entropy T*S    EENTRO =        -0.00000000
  eigenvalues    EBANDS =      -280.26256332
  atomic energy  EATOM  =       654.46440935
  Solvation  Ediel_sol  =         0.00000000
  ---------------------------------------------------
  free energy    TOTEN  =       -43.74567655 eV

  energy without entropy =      -43.74567655  energy(sigma->0) =      -43.74567655


--------------------------------------------------------------------------------------------------------




--------------------------------------- Iteration      1(   5)  ---------------------------------------


     EDDAV:  cpu time   11.8301: real time   11.8465
       DOS:  cpu time    0.0045: real time    0.0045
    CHARGE:  cpu time    1.7792: real time    1.7813
    MIXING:  cpu time    0.2664: real time    0.2667
    --------------------------------------------
      LOOP:  cpu time   13.8802: real time   13.8990

 eigenvalue-minimisations  :    48
 total energy-change (2. order) :-0.5121462E-01  (-0.5117500E-01)
 number of electron      16.0000000 magnetization 
 augmentation part        2.0997203 magnetization 

 Broyden mixing:
  rms(total) = 0.20744E+01    rms(broyden)= 0.20744E+01
  rms(prec ) = 0.20997E+01
  weight for this iteration     100.00

 Free energy of the ion-electron system (eV)
  ---------------------------------------------------
  alpha Z        PSCENC =         0.01677508
  Ewald energy   TEWEN  =       579.40607677
  -Hartree energ DENC   =     -1047.22645550
  -exchange      EXHF   =         0.00000000
  -V(xc)+E(xc)   XCENC  =        54.90759701
  PAW double counting   =       471.26503334     -476.31654927
  entropy T*S    EENTRO =        -0.00000000
  eigenvalues    EBANDS =      -280.31377794
  atomic energy  EATOM  =       654.46440935
  Solvation  Ediel_sol  =         0.00000000
  ---------------------------------------------------
  free energy    TOTEN  =       -43.79689117 eV

  energy without entropy =      -43.79689117  energy(sigma->0) =      -43.79689117


--------------------------------------------------------------------------------------------------------




--------------------------------------- Iteration      1(   6)  ---------------------------------------


    POTLOK:  cpu time   11.2658: real time   11.2808
    SETDIJ:  cpu time    0.0401: real time    0.0401
     EDDAV:  cpu time   11.8513: real time   11.8682
       DOS:  cpu time    0.0066: real time    0.0066
    CHARGE:  cpu time    1.7652: real time    1.7691
    MIXING:  cpu time    0.2357: real time    0.2434
    --------------------------------------------
      LOOP:  cpu time   25.1647: real time   25.2082

 eigenvalue-minimisations  :    48
 total energy-change (2. order) : 0.4882959E+01  (-0.1504638E+01)
 number of electron      16.0000000 magnetization 
 augmentation part        1.7846591 magnetization 

 Broyden mixing:
  rms(total) = 0.28545E+01    rms(broyden)= 0.28545E+01
  rms(prec ) = 0.28571E+01
  weight for this iteration     100.00

 eigenvalues of (default mixing * dielectric matrix)
  average eigenvalue GAMMA=   0.3990
  0.3990

 Free energy of the ion-electron system (eV)
  ---------------------------------------------------
  alpha Z        PSCENC =         0.01677508
  Ewald energy   TEWEN  =       579.40607677
  -Hartree energ DENC   =     -1090.72464298
  -exchange      EXHF   =         0.00000000
  -V(xc)+E(xc)   XCENC  =        57.39471994
  PAW double counting   =       930.40729607     -936.77561245
  entropy T*S    EENTRO =        -0.00000000
  eigenvalues    EBANDS =      -233.10295358
  atomic energy  EATOM  =       654.46440935
  Solvation  Ediel_sol  =         0.00000000
  ---------------------------------------------------
  free energy    TOTEN  =       -38.91393181 eV

  energy without entropy =      -38.91393181  energy(sigma->0) =      -38.91393181


--------------------------------------------------------------------------------------------------------




--------------------------------------- Iteration      1(   7)  ---------------------------------------


    POTLOK:  cpu time   11.2598: real time   11.2750
    SETDIJ:  cpu time    0.0403: real time    0.0403
     EDDAV:  cpu time    8.8943: real time    8.9065
       DOS:  cpu time    0.0037: real time    0.0037
    CHARGE:  cpu time    1.7485: real time    1.7506
    MIXING:  cpu time    0.2419: real time    0.2422
    --------------------------------------------
      LOOP:  cpu time   22.1884: real time   22.2182

 eigenvalue-minimisations  :    32
 total energy-change (2. order) :-0.2634428E+00  (-0.2430176E-01)
 number of electron      16.0000000 magnetization 
 augmentation part        1.7876725 magnetization 

 Broyden mixing:
  rms(total) = 0.32623E+01    rms(broyden)= 0.32623E+01
  rms(prec ) = 0.32651E+01
  weight for this iteration     100.00

 eigenvalues of (default mixing * dielectric matrix)
  average eigenvalue GAMMA=   1.5848
  0.9571  2.2125

 Free energy of the ion-electron system (eV)
  ---------------------------------------------------
  alpha Z        PSCENC =         0.01677508
  Ewald energy   TEWEN  =       579.40607677
  -Hartree energ DENC   =     -1087.03568414
  -exchange      EXHF   =         0.00000000
  -V(xc)+E(xc)   XCENC  =        57.16973408
  PAW double counting   =       777.05115607     -783.40592639
  entropy T*S    EENTRO =        -0.00000000
  eigenvalues    EBANDS =      -236.84391543
  atomic energy  EATOM  =       654.46440935
  Solvation  Ediel_sol  =         0.00000000
  ---------------------------------------------------
  free energy    TOTEN  =       -39.17737461 eV

  energy without entropy =      -39.17737461  energy(sigma->0) =      -39.17737461


--------------------------------------------------------------------------------------------------------




--------------------------------------- Iteration      1(   8)  ---------------------------------------


    POTLOK:  cpu time   11.2719: real time   11.2862
    SETDIJ:  cpu time    0.0402: real time    0.0402
     EDDAV:  cpu time   10.3689: real time   10.3923
       DOS:  cpu time    0.0011: real time    0.0011
    CHARGE:  cpu time    1.7367: real time    1.7460
    MIXING:  cpu time    0.2471: real time    0.2475
    --------------------------------------------
      LOOP:  cpu time   23.6659: real time   23.7132

 eigenvalue-minimisations  :    40
 total energy-change (2. order) : 0.9923872E+00  (-0.4818907E+00)
 number of electron      16.0000000 magnetization 
 augmentation part        1.6915654 magnetization 

 Broyden mixing:
  rms(total) = 0.65854E+00    rms(broyden)= 0.65854E+00
  rms(prec ) = 0.66195E+00
  weight for this iteration     100.00

 eigenvalues of (default mixing * dielectric matrix)
  average eigenvalue GAMMA=   1.2946
  2.1695  1.1809  0.5334

 Free energy of the ion-electron system (eV)
  ---------------------------------------------------
  alpha Z        PSCENC =         0.01677508
  Ewald energy   TEWEN  =       579.40607677
  -Hartree energ DENC   =     -1123.71523250
  -exchange      EXHF   =         0.00000000
  -V(xc)+E(xc)   XCENC  =        59.40343434
  PAW double counting   =      2743.23957922    -2749.80636445
  entropy T*S    EENTRO =        -0.00000000
  eigenvalues    EBANDS =      -201.19366517
  atomic energy  EATOM  =       654.46440935
  Solvation  Ediel_sol  =         0.00000000
  ---------------------------------------------------
  free energy    TOTEN  =       -38.18498737 eV

  energy without entropy =      -38.18498737  energy(sigma->0) =      -38.18498737


--------------------------------------------------------------------------------------------------------




--------------------------------------- Iteration      1(   9)  ---------------------------------------


    POTLOK:  cpu time   11.2582: real time   11.2725
    SETDIJ:  cpu time    0.0402: real time    0.0402
     EDDAV:  cpu time   10.3406: real time   10.3547
       DOS:  cpu time    0.0064: real time    0.0064
    CHARGE:  cpu time    1.7632: real time    1.7653
    MIXING:  cpu time    0.2497: real time    0.2500
    --------------------------------------------
      LOOP:  cpu time   23.6583: real time   23.6892

 eigenvalue-minimisations  :    40
 total energy-change (2. order) : 0.1473153E+00  (-0.2628740E-01)
 number of electron      16.0000000 magnetization 
 augmentation part        1.7189705 magnetization 

 Broyden mixing:
  rms(total) = 0.36807E+00    rms(broyden)= 0.36807E+00
  rms(prec ) = 0.37035E+00
  weight for this iteration     100.00

 eigenvalues of (default mixing * dielectric matrix)
  average eigenvalue GAMMA=   1.2812
  2.2710  0.9721  0.9721  0.9097

 Free energy of the ion-electron system (eV)
  ---------------------------------------------------
  alpha Z        PSCENC =         0.01677508
  Ewald energy   TEWEN  =       579.40607677
  -Hartree energ DENC   =     -1121.28797755
  -exchange      EXHF   =         0.00000000
  -V(xc)+E(xc)   XCENC  =        59.27797821
  PAW double counting   =      2831.40473183    -2837.86995803
  entropy T*S    EENTRO =        -0.00000000
  eigenvalues    EBANDS =      -203.44970770
  atomic energy  EATOM  =       654.46440935
  Solvation  Ediel_sol  =         0.00000000
  ---------------------------------------------------
  free energy    TOTEN  =       -38.03767204 eV

  energy without entropy =      -38.03767204  energy(sigma->0) =      -38.03767204


--------------------------------------------------------------------------------------------------------




--------------------------------------- Iteration      1(  10)  ---------------------------------------


    POTLOK:  cpu time   11.2477: real time   11.2630
    SETDIJ:  cpu time    0.0409: real time    0.0410
     EDDAV:  cpu time   13.3287: real time   13.3474
       DOS:  cpu time    0.0025: real time    0.0025
    CHARGE:  cpu time    1.7695: real time    1.7715
    MIXING:  cpu time    0.2776: real time    0.2779
    --------------------------------------------
      LOOP:  cpu time   26.6669: real time   26.7033

 eigenvalue-minimisations  :    56
 total energy-change (2. order) : 0.5348832E-01  (-0.7883436E-02)
 number of electron      16.0000000 magnetization 
 augmentation part        1.7288527 magnetization 

 Broyden mixing:
  rms(total) = 0.16270E+00    rms(broyden)= 0.16270E+00
  rms(prec ) = 0.16454E+00
  weight for this iteration     100.00

 eigenvalues of (default mixing * dielectric matrix)
  average eigenvalue GAMMA=   1.2771
  2.2094  1.2648  1.2648  0.6407  1.0056

 Free energy of the ion-electron system (eV)
  ---------------------------------------------------
  alpha Z        PSCENC =         0.01677508
  Ewald energy   TEWEN  =       579.40607677
  -Hartree energ DENC   =     -1121.71995912
  -exchange      EXHF   =         0.00000000
  -V(xc)+E(xc)   XCENC  =        59.31696503
  PAW double counting   =      2904.57117530    -2911.01745927
  entropy T*S    EENTRO =        -0.00000000
  eigenvalues    EBANDS =      -203.02216686
  atomic energy  EATOM  =       654.46440935
  Solvation  Ediel_sol  =         0.00000000
  ---------------------------------------------------
  free energy    TOTEN  =       -37.98418372 eV

  energy without entropy =      -37.98418372  energy(sigma->0) =      -37.98418372


--------------------------------------------------------------------------------------------------------




--------------------------------------- Iteration      1(  11)  ---------------------------------------


    POTLOK:  cpu time   11.2983: real time   11.3140
    SETDIJ:  cpu time    0.0400: real time    0.0400
     EDDAV:  cpu time   10.3558: real time   10.3717
       DOS:  cpu time    0.0003: real time    0.0003
    CHARGE:  cpu time    1.7436: real time    1.7457
    MIXING:  cpu time    0.2782: real time    0.2785
    --------------------------------------------
      LOOP:  cpu time   23.7162: real time   23.7503

 eigenvalue-minimisations  :    40
 total energy-change (2. order) : 0.1351061E-01  (-0.1336816E-02)
 number of electron      16.0000000 magnetization 
 augmentation part        1.7338265 magnetization 

 Broyden mixing:
  rms(total) = 0.99541E-01    rms(broyden)= 0.99541E-01
  rms(prec ) = 0.10110E+00
  weight for this iteration     100.00

 eigenvalues of (default mixing * dielectric matrix)
  average eigenvalue GAMMA=   1.5725
  2.5695  2.5695  1.2160  1.2160  1.1364  0.7274

 Free energy of the ion-electron system (eV)
  ---------------------------------------------------
  alpha Z        PSCENC =         0.01677508
  Ewald energy   TEWEN  =       579.40607677
  -Hartree energ DENC   =     -1122.17817682
  -exchange      EXHF   =         0.00000000
  -V(xc)+E(xc)   XCENC  =        59.33685888
  PAW double counting   =      2890.12809734    -2896.56193097
  entropy T*S    EENTRO =        -0.00000000
  eigenvalues    EBANDS =      -202.58278274
  atomic energy  EATOM  =       654.46440935
  Solvation  Ediel_sol  =         0.00000000
  ---------------------------------------------------
  free energy    TOTEN  =       -37.97067311 eV

  energy without entropy =      -37.97067311  energy(sigma->0) =      -37.97067311


--------------------------------------------------------------------------------------------------------




--------------------------------------- Iteration      1(  12)  ---------------------------------------


    POTLOK:  cpu time   11.2549: real time   11.2697
    SETDIJ:  cpu time    0.0404: real time    0.0404
     EDDAV:  cpu time   11.9302: real time   11.9468
       DOS:  cpu time    0.0033: real time    0.0033
    CHARGE:  cpu time    1.7550: real time    1.7571
    MIXING:  cpu time    0.2742: real time    0.2745
    --------------------------------------------
      LOOP:  cpu time   25.2580: real time   25.2918

 eigenvalue-minimisations  :    48
 total energy-change (2. order) : 0.1547335E-01  (-0.4953639E-02)
 number of electron      16.0000000 magnetization 
 augmentation part        1.7424246 magnetization 

 Broyden mixing:
  rms(total) = 0.35874E-01    rms(broyden)= 0.35874E-01
  rms(prec ) = 0.36816E-01
  weight for this iteration     100.00

 eigenvalues of (default mixing * dielectric matrix)
  average eigenvalue GAMMA=   1.4867
  2.6106  2.6106  1.3056  1.3056  1.0603  0.7571  0.7571

 Free energy of the ion-electron system (eV)
  ---------------------------------------------------
  alpha Z        PSCENC =         0.01677508
  Ewald energy   TEWEN  =       579.40607677
  -Hartree energ DENC   =     -1124.40126238
  -exchange      EXHF   =         0.00000000
  -V(xc)+E(xc)   XCENC  =        59.43254769
  PAW double counting   =      2868.02108436    -2874.43214519
  entropy T*S    EENTRO =        -0.00000000
  eigenvalues    EBANDS =      -200.46268545
  atomic energy  EATOM  =       654.46440935
  Solvation  Ediel_sol  =         0.00000000
  ---------------------------------------------------
  free energy    TOTEN  =       -37.95519976 eV

  energy without entropy =      -37.95519976  energy(sigma->0) =      -37.95519976


--------------------------------------------------------------------------------------------------------




--------------------------------------- Iteration      1(  13)  ---------------------------------------


    POTLOK:  cpu time   11.2978: real time   11.3174
    SETDIJ:  cpu time    0.0400: real time    0.0400
     EDDAV:  cpu time   11.8779: real time   11.8944
       DOS:  cpu time    0.0016: real time    0.0016
    CHARGE:  cpu time    1.7208: real time    1.7229
    MIXING:  cpu time    0.3158: real time    0.3162
    --------------------------------------------
      LOOP:  cpu time   25.2540: real time   25.2925

 eigenvalue-minimisations  :    48
 total energy-change (2. order) :-0.1828520E-02  (-0.1086671E-03)
 number of electron      16.0000000 magnetization 
 augmentation part        1.7415170 magnetization 

 Broyden mixing:
  rms(total) = 0.25777E-01    rms(broyden)= 0.25777E-01
  rms(prec ) = 0.26671E-01
  weight for this iteration     100.00

 eigenvalues of (default mixing * dielectric matrix)
  average eigenvalue GAMMA=   1.4575
  2.6723  2.6723  1.5046  1.5046  0.9461  0.9461  0.7811  0.6325

 Free energy of the ion-electron system (eV)
  ---------------------------------------------------
  alpha Z        PSCENC =         0.01677508
  Ewald energy   TEWEN  =       579.40607677
  -Hartree energ DENC   =     -1124.90594224
  -exchange      EXHF   =         0.00000000
  -V(xc)+E(xc)   XCENC  =        59.44121365
  PAW double counting   =      2865.60736039    -2872.01763818
  entropy T*S    EENTRO =        -0.00000000
  eigenvalues    EBANDS =      -199.96928310
  atomic energy  EATOM  =       654.46440935
  Solvation  Ediel_sol  =         0.00000000
  ---------------------------------------------------
  free energy    TOTEN  =       -37.95702828 eV

  energy without entropy =      -37.95702828  energy(sigma->0) =      -37.95702828


--------------------------------------------------------------------------------------------------------




--------------------------------------- Iteration      1(  14)  ---------------------------------------


    POTLOK:  cpu time   11.2832: real time   11.2978
    SETDIJ:  cpu time    0.0416: real time    0.0417
     EDDAV:  cpu time   13.4143: real time   13.4333
       DOS:  cpu time    0.0016: real time    0.0016
    CHARGE:  cpu time    1.7400: real time    1.7423
    MIXING:  cpu time    0.3105: real time    0.3109
    --------------------------------------------
      LOOP:  cpu time   26.7912: real time   26.8274

 eigenvalue-minimisations  :    56
 total energy-change (2. order) :-0.3159726E-02  (-0.1565374E-03)
 number of electron      16.0000000 magnetization 
 augmentation part        1.7398683 magnetization 

 Broyden mixing:
  rms(total) = 0.13257E-01    rms(broyden)= 0.13257E-01
  rms(prec ) = 0.14091E-01
  weight for this iteration     100.00

 eigenvalues of (default mixing * dielectric matrix)
  average eigenvalue GAMMA=   1.5645
  3.5636  2.4675  1.7356  1.7356  0.7386  0.9668  0.9668  0.9531  0.9531

 Free energy of the ion-electron system (eV)
  ---------------------------------------------------
  alpha Z        PSCENC =         0.01677508
  Ewald energy   TEWEN  =       579.40607677
  -Hartree energ DENC   =     -1125.62829208
  -exchange      EXHF   =         0.00000000
  -V(xc)+E(xc)   XCENC  =        59.45374147
  PAW double counting   =      2864.63153298    -2871.04044727
  entropy T*S    EENTRO =        -0.00000000
  eigenvalues    EBANDS =      -199.26398431
  atomic energy  EATOM  =       654.46440935
  Solvation  Ediel_sol  =         0.00000000
  ---------------------------------------------------
  free energy    TOTEN  =       -37.96018801 eV

  energy without entropy =      -37.96018801  energy(sigma->0) =      -37.96018801


--------------------------------------------------------------------------------------------------------




--------------------------------------- Iteration      1(  15)  ---------------------------------------


    POTLOK:  cpu time   11.2759: real time   11.2955
    SETDIJ:  cpu time    0.0407: real time    0.0407
     EDDAV:  cpu time   11.8665: real time   11.8824
       DOS:  cpu time    0.0042: real time    0.0042
    CHARGE:  cpu time    1.7688: real time    1.7709
    MIXING:  cpu time    0.3241: real time    0.3245
    --------------------------------------------
      LOOP:  cpu time   25.2801: real time   25.3183

 eigenvalue-minimisations  :    48
 total energy-change (2. order) :-0.4987720E-02  (-0.8496182E-04)
 number of electron      16.0000000 magnetization 
 augmentation part        1.7393178 magnetization 

 Broyden mixing:
  rms(total) = 0.70771E-02    rms(broyden)= 0.70771E-02
  rms(prec ) = 0.76376E-02
  weight for this iteration     100.00

 eigenvalues of (default mixing * dielectric matrix)
  average eigenvalue GAMMA=   1.7985
  4.9800  3.0450  2.3317  1.5773  1.5773  1.1075  0.9193  0.9193  0.7413  0.7865

 Free energy of the ion-electron system (eV)
  ---------------------------------------------------
  alpha Z        PSCENC =         0.01677508
  Ewald energy   TEWEN  =       579.40607677
  -Hartree energ DENC   =     -1126.34035257
  -exchange      EXHF   =         0.00000000
  -V(xc)+E(xc)   XCENC  =        59.45906463
  PAW double counting   =      2861.06028301    -2867.46512279
  entropy T*S    EENTRO =        -0.00000000
  eigenvalues    EBANDS =      -198.56630920
  atomic energy  EATOM  =       654.46440935
  Solvation  Ediel_sol  =         0.00000000
  ---------------------------------------------------
  free energy    TOTEN  =       -37.96517573 eV

  energy without entropy =      -37.96517573  energy(sigma->0) =      -37.96517573


--------------------------------------------------------------------------------------------------------




--------------------------------------- Iteration      1(  16)  ---------------------------------------


    POTLOK:  cpu time   11.3115: real time   11.3261
    SETDIJ:  cpu time    0.0400: real time    0.0401
     EDDAV:  cpu time   13.3672: real time   13.3932
       DOS:  cpu time    0.0011: real time    0.0011
    CHARGE:  cpu time    1.7388: real time    1.7413
    MIXING:  cpu time    0.3597: real time    0.3601
    --------------------------------------------
      LOOP:  cpu time   26.8184: real time   26.8620

 eigenvalue-minimisations  :    56
 total energy-change (2. order) :-0.5895045E-02  (-0.2315978E-03)
 number of electron      16.0000000 magnetization 
 augmentation part        1.7373225 magnetization 

 Broyden mixing:
  rms(total) = 0.13610E-01    rms(broyden)= 0.13610E-01
  rms(prec ) = 0.13735E-01
  weight for this iteration     100.00

 eigenvalues of (default mixing * dielectric matrix)
  average eigenvalue GAMMA=   1.8936
  6.1559  3.4833  2.4415  1.7418  1.7418  1.0728  1.0223  1.0223  0.7219  0.7128
  0.7128

 Free energy of the ion-electron system (eV)
  ---------------------------------------------------
  alpha Z        PSCENC =         0.01677508
  Ewald energy   TEWEN  =       579.40607677
  -Hartree energ DENC   =     -1127.00604060
  -exchange      EXHF   =         0.00000000
  -V(xc)+E(xc)   XCENC  =        59.46187283
  PAW double counting   =      2858.03956962    -2864.44448447
  entropy T*S    EENTRO =        -0.00000000
  eigenvalues    EBANDS =      -197.90924936
  atomic energy  EATOM  =       654.46440935
  Solvation  Ediel_sol  =         0.00000000
  ---------------------------------------------------
  free energy    TOTEN  =       -37.97107077 eV

  energy without entropy =      -37.97107077  energy(sigma->0) =      -37.97107077


--------------------------------------------------------------------------------------------------------




--------------------------------------- Iteration      1(  17)  ---------------------------------------


    POTLOK:  cpu time   11.2946: real time   11.3092
    SETDIJ:  cpu time    0.0402: real time    0.0402
     EDDAV:  cpu time   11.9077: real time   11.9299
       DOS:  cpu time    0.0022: real time    0.0022
    CHARGE:  cpu time    1.7409: real time    1.7493
    MIXING:  cpu time    0.3417: real time    0.3421
    --------------------------------------------
      LOOP:  cpu time   25.3273: real time   25.3729

 eigenvalue-minimisations  :    48
 total energy-change (2. order) :-0.1939630E-02  (-0.2207501E-04)
 number of electron      16.0000000 magnetization 
 augmentation part        1.7377122 magnetization 

 Broyden mixing:
  rms(total) = 0.64722E-02    rms(broyden)= 0.64722E-02
  rms(prec ) = 0.65749E-02
  weight for this iteration     100.00

 eigenvalues of (default mixing * dielectric matrix)
  average eigenvalue GAMMA=   1.7827
  5.5991  3.2338  2.2482  1.8156  1.8156  1.1948  1.1948  1.0532  0.7342  0.8802
  0.8116  0.8116

 Free energy of the ion-electron system (eV)
  ---------------------------------------------------
  alpha Z        PSCENC =         0.01677508
  Ewald energy   TEWEN  =       579.40607677
  -Hartree energ DENC   =     -1127.03748086
  -exchange      EXHF   =         0.00000000
  -V(xc)+E(xc)   XCENC  =        59.45722153
  PAW double counting   =      2860.03143494    -2866.43524759
  entropy T*S    EENTRO =        -0.00000000
  eigenvalues    EBANDS =      -197.87619962
  atomic energy  EATOM  =       654.46440935
  Solvation  Ediel_sol  =         0.00000000
  ---------------------------------------------------
  free energy    TOTEN  =       -37.97301040 eV

  energy without entropy =      -37.97301040  energy(sigma->0) =      -37.97301040


--------------------------------------------------------------------------------------------------------




--------------------------------------- Iteration      1(  18)  ---------------------------------------


    POTLOK:  cpu time   11.2943: real time   11.3096
    SETDIJ:  cpu time    0.0419: real time    0.0419
     EDDAV:  cpu time   13.3217: real time   13.3400
       DOS:  cpu time    0.0112: real time    0.0112
    CHARGE:  cpu time    1.7641: real time    1.7663
    MIXING:  cpu time    0.3654: real time    0.3663
    --------------------------------------------
      LOOP:  cpu time   26.7987: real time   26.8353

 eigenvalue-minimisations  :    56
 total energy-change (2. order) :-0.2243997E-03  (-0.5713697E-05)
 number of electron      16.0000000 magnetization 
 augmentation part        1.7379149 magnetization 

 Broyden mixing:
  rms(total) = 0.47071E-02    rms(broyden)= 0.47071E-02
  rms(prec ) = 0.47945E-02
  weight for this iteration     100.00

 eigenvalues of (default mixing * dielectric matrix)
  average eigenvalue GAMMA=   1.9449
  7.0461  3.8371  2.1748  2.1748  2.0966  1.4397  1.2348  1.2348  0.9087  0.9087
  0.7288  0.7496  0.7496

 Free energy of the ion-electron system (eV)
  ---------------------------------------------------
  alpha Z        PSCENC =         0.01677508
  Ewald energy   TEWEN  =       579.40607677
  -Hartree energ DENC   =     -1127.01193090
  -exchange      EXHF   =         0.00000000
  -V(xc)+E(xc)   XCENC  =        59.45657710
  PAW double counting   =      2859.72260516    -2866.12639256
  entropy T*S    EENTRO =        -0.00000000
  eigenvalues    EBANDS =      -197.90135479
  atomic energy  EATOM  =       654.46440935
  Solvation  Ediel_sol  =         0.00000000
  ---------------------------------------------------
  free energy    TOTEN  =       -37.97323480 eV

  energy without entropy =      -37.97323480  energy(sigma->0) =      -37.97323480


--------------------------------------------------------------------------------------------------------




--------------------------------------- Iteration      1(  19)  ---------------------------------------


    POTLOK:  cpu time   11.3140: real time   11.3290
    SETDIJ:  cpu time    0.0400: real time    0.0400
     EDDAV:  cpu time    8.9141: real time    8.9261
       DOS:  cpu time    0.0002: real time    0.0002
    CHARGE:  cpu time    1.7214: real time    1.7235
    MIXING:  cpu time    0.4011: real time    0.4016
    --------------------------------------------
      LOOP:  cpu time   22.3907: real time   22.4204

 eigenvalue-minimisations  :    32
 total energy-change (2. order) :-0.1969922E-02  (-0.1857514E-04)
 number of electron      16.0000000 magnetization 
 augmentation part        1.7381667 magnetization 

 Broyden mixing:
  rms(total) = 0.14280E-02    rms(broyden)= 0.14280E-02
  rms(prec ) = 0.14728E-02
  weight for this iteration     100.00

 eigenvalues of (default mixing * dielectric matrix)
  average eigenvalue GAMMA=   1.8590
  7.1811  3.6231  2.3529  2.1682  2.1682  1.3314  1.3314  1.0236  1.0236  1.0116
  0.7279  0.7323  0.7323  0.6189

 Free energy of the ion-electron system (eV)
  ---------------------------------------------------
  alpha Z        PSCENC =         0.01677508
  Ewald energy   TEWEN  =       579.40607677
  -Hartree energ DENC   =     -1127.05004256
  -exchange      EXHF   =         0.00000000
  -V(xc)+E(xc)   XCENC  =        59.45247828
  PAW double counting   =      2860.31390007    -2866.71673570
  entropy T*S    EENTRO =        -0.00000000
  eigenvalues    EBANDS =      -197.86206602
  atomic energy  EATOM  =       654.46440935
  Solvation  Ediel_sol  =         0.00000000
  ---------------------------------------------------
  free energy    TOTEN  =       -37.97520472 eV

  energy without entropy =      -37.97520472  energy(sigma->0) =      -37.97520472


--------------------------------------------------------------------------------------------------------




--------------------------------------- Iteration      1(  20)  ---------------------------------------


    POTLOK:  cpu time   11.2689: real time   11.2842
    SETDIJ:  cpu time    0.0403: real time    0.0404
     EDDAV:  cpu time   13.3619: real time   13.3812
       DOS:  cpu time    0.0054: real time    0.0054
    CHARGE:  cpu time    1.7548: real time    1.7569
    MIXING:  cpu time    0.3690: real time    0.3695
    --------------------------------------------
      LOOP:  cpu time   26.8003: real time   26.8377

 eigenvalue-minimisations  :    56
 total energy-change (2. order) :-0.1241699E-03  (-0.1091639E-05)
 number of electron      16.0000000 magnetization 
 augmentation part        1.7381785 magnetization 

 Broyden mixing:
  rms(total) = 0.99222E-03    rms(broyden)= 0.99222E-03
  rms(prec ) = 0.10405E-02
  weight for this iteration     100.00

 eigenvalues of (default mixing * dielectric matrix)
  average eigenvalue GAMMA=   1.9295
  7.6731  3.8711  2.6555  2.6555  1.7894  1.7894  1.3319  1.3319  1.1056  0.9256
  0.9256  0.7853  0.7335  0.6846  0.6846

 Free energy of the ion-electron system (eV)
  ---------------------------------------------------
  alpha Z        PSCENC =         0.01677508
  Ewald energy   TEWEN  =       579.40607677
  -Hartree energ DENC   =     -1127.06243604
  -exchange      EXHF   =         0.00000000
  -V(xc)+E(xc)   XCENC  =        59.45302423
  PAW double counting   =      2860.58469637    -2866.98766109
  entropy T*S    EENTRO =        -0.00000000
  eigenvalues    EBANDS =      -197.85021356
  atomic energy  EATOM  =       654.46440935
  Solvation  Ediel_sol  =         0.00000000
  ---------------------------------------------------
  free energy    TOTEN  =       -37.97532889 eV

  energy without entropy =      -37.97532889  energy(sigma->0) =      -37.97532889


--------------------------------------------------------------------------------------------------------




--------------------------------------- Iteration      1(  21)  ---------------------------------------


    POTLOK:  cpu time   11.2805: real time   11.2954
    SETDIJ:  cpu time    0.0401: real time    0.0401
     EDDAV:  cpu time   10.3900: real time   10.4049
       DOS:  cpu time    0.0020: real time    0.0020
    CHARGE:  cpu time    1.7330: real time    1.7353
    MIXING:  cpu time    0.4138: real time    0.4145
    --------------------------------------------
      LOOP:  cpu time   23.8594: real time   23.8923

 eigenvalue-minimisations  :    40
 total energy-change (2. order) :-0.5631239E-03  (-0.3019372E-05)
 number of electron      16.0000000 magnetization 
 augmentation part        1.7383103 magnetization 

 Broyden mixing:
  rms(total) = 0.11412E-02    rms(broyden)= 0.11412E-02
  rms(prec ) = 0.11602E-02
  weight for this iteration     100.00

 eigenvalues of (default mixing * dielectric matrix)
  average eigenvalue GAMMA=   2.0342
  8.5732  5.0748  2.6150  2.6150  2.0245  2.0245  1.3131  1.3131  1.1518  1.1518
  0.9574  0.8982  0.7323  0.7541  0.7541  0.5944

 Free energy of the ion-electron system (eV)
  ---------------------------------------------------
  alpha Z        PSCENC =         0.01677508
  Ewald energy   TEWEN  =       579.40607677
  -Hartree energ DENC   =     -1127.05208039
  -exchange      EXHF   =         0.00000000
  -V(xc)+E(xc)   XCENC  =        59.45144205
  PAW double counting   =      2859.44088564    -2865.84372528
  entropy T*S    EENTRO =        -0.00000000
  eigenvalues    EBANDS =      -197.85967523
  atomic energy  EATOM  =       654.46440935
  Solvation  Ediel_sol  =         0.00000000
  ---------------------------------------------------
  free energy    TOTEN  =       -37.97589202 eV

  energy without entropy =      -37.97589202  energy(sigma->0) =      -37.97589202


--------------------------------------------------------------------------------------------------------




--------------------------------------- Iteration      1(  22)  ---------------------------------------


    POTLOK:  cpu time   11.2753: real time   11.2898
    SETDIJ:  cpu time    0.0403: real time    0.0403
     EDDAV:  cpu time   11.8914: real time   11.9074
       DOS:  cpu time    0.0015: real time    0.0015
    CHARGE:  cpu time    1.7534: real time    1.7556
    MIXING:  cpu time    0.4178: real time    0.4183
    --------------------------------------------
      LOOP:  cpu time   25.3797: real time   25.4129

 eigenvalue-minimisations  :    48
 total energy-change (2. order) :-0.2167453E-03  (-0.8892795E-06)
 number of electron      16.0000000 magnetization 
 augmentation part        1.7382358 magnetization 

 Broyden mixing:
  rms(total) = 0.44068E-03    rms(broyden)= 0.44068E-03
  rms(prec ) = 0.45209E-03
  weight for this iteration     100.00

 eigenvalues of (default mixing * dielectric matrix)
  average eigenvalue GAMMA=   2.0430
  8.5921  5.3649  3.1685  2.3084  2.2242  2.2242  1.4332  1.4332  1.1586  1.1586
  0.9513  0.9513  0.9165  0.7479  0.7479  0.7319  0.6191

 Free energy of the ion-electron system (eV)
  ---------------------------------------------------
  alpha Z        PSCENC =         0.01677508
  Ewald energy   TEWEN  =       579.40607677
  -Hartree energ DENC   =     -1127.06899352
  -exchange      EXHF   =         0.00000000
  -V(xc)+E(xc)   XCENC  =        59.45155990
  PAW double counting   =      2859.84280521    -2866.24584721
  entropy T*S    EENTRO =        -0.00000000
  eigenvalues    EBANDS =      -197.84289434
  atomic energy  EATOM  =       654.46440935
  Solvation  Ediel_sol  =         0.00000000
  ---------------------------------------------------
  free energy    TOTEN  =       -37.97610876 eV

  energy without entropy =      -37.97610876  energy(sigma->0) =      -37.97610876


--------------------------------------------------------------------------------------------------------




--------------------------------------- Iteration      1(  23)  ---------------------------------------


    POTLOK:  cpu time   11.2720: real time   11.2872
    SETDIJ:  cpu time    0.0401: real time    0.0401
     EDDAV:  cpu time   13.4161: real time   13.4343
       DOS:  cpu time    0.0010: real time    0.0010
    CHARGE:  cpu time    1.7453: real time    1.7475
    MIXING:  cpu time    0.4230: real time    0.4235
    --------------------------------------------
      LOOP:  cpu time   26.8975: real time   26.9337

 eigenvalue-minimisations  :    56
 total energy-change (2. order) :-0.1047091E-03  (-0.2512413E-06)
 number of electron      16.0000000 magnetization 
 augmentation part        1.7381890 magnetization 

 Broyden mixing:
  rms(total) = 0.41253E-03    rms(broyden)= 0.41253E-03
  rms(prec ) = 0.41564E-03
  weight for this iteration     100.00

 eigenvalues of (default mixing * dielectric matrix)
  average eigenvalue GAMMA=   2.0816
  8.9724  5.6481  3.6610  2.3754  2.3754  2.3238  1.6361  1.6361  1.2165  1.2165
  1.0196  0.9394  0.9394  0.7577  0.7577  0.7300  0.6493  0.6146

 Free energy of the ion-electron system (eV)
  ---------------------------------------------------
  alpha Z        PSCENC =         0.01677508
  Ewald energy   TEWEN  =       579.40607677
  -Hartree energ DENC   =     -1127.07747829
  -exchange      EXHF   =         0.00000000
  -V(xc)+E(xc)   XCENC  =        59.45172725
  PAW double counting   =      2859.69167089    -2866.09470584
  entropy T*S    EENTRO =        -0.00000000
  eigenvalues    EBANDS =      -197.83468867
  atomic energy  EATOM  =       654.46440935
  Solvation  Ediel_sol  =         0.00000000
  ---------------------------------------------------
  free energy    TOTEN  =       -37.97621347 eV

  energy without entropy =      -37.97621347  energy(sigma->0) =      -37.97621347


--------------------------------------------------------------------------------------------------------




--------------------------------------- Iteration      1(  24)  ---------------------------------------


    POTLOK:  cpu time   11.2511: real time   11.2675
    SETDIJ:  cpu time    0.0400: real time    0.0400
     EDDAV:  cpu time    8.8877: real time    8.9049
       DOS:  cpu time    0.0037: real time    0.0037
    CHARGE:  cpu time    1.7424: real time    1.7446
    MIXING:  cpu time    0.4518: real time    0.4523
    --------------------------------------------
      LOOP:  cpu time   22.3766: real time   22.4131

 eigenvalue-minimisations  :    32
 total energy-change (2. order) :-0.4057788E-04  (-0.1388585E-07)
 number of electron      16.0000000 magnetization 
 augmentation part        1.7381839 magnetization 

 Broyden mixing:
  rms(total) = 0.25606E-03    rms(broyden)= 0.25606E-03
  rms(prec ) = 0.25830E-03
  weight for this iteration     100.00

 eigenvalues of (default mixing * dielectric matrix)
  average eigenvalue GAMMA=   2.1276
  9.1520  6.1572  4.1655  2.7289  2.5271  1.9924  1.9924  1.5183  1.3381  1.1421
  1.1421  0.9245  0.9245  0.9640  0.9115  0.7328  0.7500  0.7500  0.6115

 Free energy of the ion-electron system (eV)
  ---------------------------------------------------
  alpha Z        PSCENC =         0.01677508
  Ewald energy   TEWEN  =       579.40607677
  -Hartree energ DENC   =     -1127.08048051
  -exchange      EXHF   =         0.00000000
  -V(xc)+E(xc)   XCENC  =        59.45175024
  PAW double counting   =      2859.85536577    -2866.25839932
  entropy T*S    EENTRO =        -0.00000000
  eigenvalues    EBANDS =      -197.83175143
  atomic energy  EATOM  =       654.46440935
  Solvation  Ediel_sol  =         0.00000000
  ---------------------------------------------------
  free energy    TOTEN  =       -37.97625405 eV

  energy without entropy =      -37.97625405  energy(sigma->0) =      -37.97625405


--------------------------------------------------------------------------------------------------------




--------------------------------------- Iteration      1(  25)  ---------------------------------------


    POTLOK:  cpu time   11.2182: real time   11.2323
    SETDIJ:  cpu time    0.0401: real time    0.0402
     EDDAV:  cpu time    8.9170: real time    8.9294
       DOS:  cpu time    0.0006: real time    0.0006
    CHARGE:  cpu time    1.7460: real time    1.7508
    MIXING:  cpu time    0.4529: real time    0.4535
    --------------------------------------------
      LOOP:  cpu time   22.3749: real time   22.4067

 eigenvalue-minimisations  :    32
 total energy-change (2. order) :-0.2988896E-04  (-0.1616248E-07)
 number of electron      16.0000000 magnetization 
 augmentation part        1.7381776 magnetization 

 Broyden mixing:
  rms(total) = 0.13318E-03    rms(broyden)= 0.13318E-03
  rms(prec ) = 0.13461E-03
  weight for this iteration     100.00

 eigenvalues of (default mixing * dielectric matrix)
  average eigenvalue GAMMA=   2.1338
  9.1852  6.3630  4.2184  2.8662  2.2287  2.2287  2.2297  1.6108  1.6108  1.2941
  1.2005  1.2005  0.9320  0.9320  0.9447  0.7763  0.7763  0.7313  0.7313  0.6157

 Free energy of the ion-electron system (eV)
  ---------------------------------------------------
  alpha Z        PSCENC =         0.01677508
  Ewald energy   TEWEN  =       579.40607677
  -Hartree energ DENC   =     -1127.08160038
  -exchange      EXHF   =         0.00000000
  -V(xc)+E(xc)   XCENC  =        59.45169004
  PAW double counting   =      2860.04000783    -2866.44306442
  entropy T*S    EENTRO =        -0.00000000
  eigenvalues    EBANDS =      -197.83057820
  atomic energy  EATOM  =       654.46440935
  Solvation  Ediel_sol  =         0.00000000
  ---------------------------------------------------
  free energy    TOTEN  =       -37.97628394 eV

  energy without entropy =      -37.97628394  energy(sigma->0) =      -37.97628394


--------------------------------------------------------------------------------------------------------




--------------------------------------- Iteration      1(  26)  ---------------------------------------


    POTLOK:  cpu time   11.2476: real time   11.2631
    SETDIJ:  cpu time    0.0408: real time    0.0408
     EDDAV:  cpu time   10.4213: real time   10.4428
       DOS:  cpu time    0.0038: real time    0.0038
    CHARGE:  cpu time    1.7613: real time    1.7715
    MIXING:  cpu time    0.4790: real time    0.4797
    --------------------------------------------
      LOOP:  cpu time   23.9537: real time   24.0017

 eigenvalue-minimisations  :    40
 total energy-change (2. order) :-0.9879466E-05  (-0.3258771E-08)
 number of electron      16.0000000 magnetization 
 augmentation part        1.7381885 magnetization 

 Broyden mixing:
  rms(total) = 0.82544E-04    rms(broyden)= 0.82544E-04
  rms(prec ) = 0.83299E-04
  weight for this iteration     100.00

 eigenvalues of (default mixing * dielectric matrix)
  average eigenvalue GAMMA=   2.1614
  9.3718  6.5973  4.4978  2.8880  2.6847  2.6847  1.8849  1.8849  1.5540  1.5540
  1.1972  1.1972  1.0025  0.9424  0.8550  0.8550  0.8415  0.7331  0.7742  0.7742
  0.6140

 Free energy of the ion-electron system (eV)
  ---------------------------------------------------
  alpha Z        PSCENC =         0.01677508
  Ewald energy   TEWEN  =       579.40607677
  -Hartree energ DENC   =     -1127.08042345
  -exchange      EXHF   =         0.00000000
  -V(xc)+E(xc)   XCENC  =        59.45161024
  PAW double counting   =      2859.96977678    -2866.37281910
  entropy T*S    EENTRO =        -0.00000000
  eigenvalues    EBANDS =      -197.83169948
  atomic energy  EATOM  =       654.46440935
  Solvation  Ediel_sol  =         0.00000000
  ---------------------------------------------------
  free energy    TOTEN  =       -37.97629382 eV

  energy without entropy =      -37.97629382  energy(sigma->0) =      -37.97629382


--------------------------------------------------------------------------------------------------------




--------------------------------------- Iteration      1(  27)  ---------------------------------------


    POTLOK:  cpu time   11.2249: real time   11.2393
    SETDIJ:  cpu time    0.0400: real time    0.0400
     EDDAV:  cpu time    7.4539: real time    7.4795
       DOS:  cpu time    0.0009: real time    0.0009
    CHARGE:  cpu time    1.7528: real time    1.7561
    MIXING:  cpu time    0.4982: real time    0.4989
    --------------------------------------------
      LOOP:  cpu time   20.9707: real time   21.0148

 eigenvalue-minimisations  :    24
 total energy-change (2. order) :-0.6692831E-05  (-0.5252337E-08)
 number of electron      16.0000000 magnetization 
 augmentation part        1.7381917 magnetization 

 Broyden mixing:
  rms(total) = 0.50883E-04    rms(broyden)= 0.50883E-04
  rms(prec ) = 0.51392E-04
  weight for this iteration     100.00

 eigenvalues of (default mixing * dielectric matrix)
  average eigenvalue GAMMA=   2.1056
  9.4192  6.6575  4.5387  3.2355  2.5597  2.5597  2.2538  1.6846  1.6846  1.2232
  1.2232  1.1517  0.9260  0.9260  0.9995  0.8009  0.8009  0.7677  0.7677  0.7330
  0.7968  0.6134

 Free energy of the ion-electron system (eV)
  ---------------------------------------------------
  alpha Z        PSCENC =         0.01677508
  Ewald energy   TEWEN  =       579.40607677
  -Hartree energ DENC   =     -1127.07966277
  -exchange      EXHF   =         0.00000000
  -V(xc)+E(xc)   XCENC  =        59.45156353
  PAW double counting   =      2859.93812704    -2866.34116590
  entropy T*S    EENTRO =        -0.00000000
  eigenvalues    EBANDS =      -197.83242361
  atomic energy  EATOM  =       654.46440935
  Solvation  Ediel_sol  =         0.00000000
  ---------------------------------------------------
  free energy    TOTEN  =       -37.97630051 eV

  energy without entropy =      -37.97630051  energy(sigma->0) =      -37.97630051


--------------------------------------------------------------------------------------------------------




--------------------------------------- Iteration      1(  28)  ---------------------------------------


    POTLOK:  cpu time   11.2154: real time   11.2297
    SETDIJ:  cpu time    0.0401: real time    0.0401
     EDDAV:  cpu time   10.4471: real time   10.4640
       DOS:  cpu time    0.0029: real time    0.0029
    CHARGE:  cpu time    1.7482: real time    1.7588
    MIXING:  cpu time    0.5120: real time    0.5127
    --------------------------------------------
      LOOP:  cpu time   23.9657: real time   24.0084

 eigenvalue-minimisations  :    40
 total energy-change (2. order) :-0.8312009E-06  (-0.1013976E-08)
 number of electron      16.0000000 magnetization 
 augmentation part        1.7381931 magnetization 

 Broyden mixing:
  rms(total) = 0.27332E-04    rms(broyden)= 0.27332E-04
  rms(prec ) = 0.28026E-04
  weight for this iteration     100.00

 eigenvalues of (default mixing * dielectric matrix)
  average eigenvalue GAMMA=   2.0788
  9.4429  6.8057  4.7911  3.2413  2.4766  2.4145  2.4145  1.6698  1.6698  1.2969
  1.2969  1.1558  1.1558  0.9675  0.9675  0.9493  0.7768  0.7768  0.7450  0.7450
  0.7320  0.7078  0.6123

 Free energy of the ion-electron system (eV)
  ---------------------------------------------------
  alpha Z        PSCENC =         0.01677508
  Ewald energy   TEWEN  =       579.40607677
  -Hartree energ DENC   =     -1127.07999035
  -exchange      EXHF   =         0.00000000
  -V(xc)+E(xc)   XCENC  =        59.45157315
  PAW double counting   =      2859.97836171    -2866.38140233
  entropy T*S    EENTRO =        -0.00000000
  eigenvalues    EBANDS =      -197.83210472
  atomic energy  EATOM  =       654.46440935
  Solvation  Ediel_sol  =         0.00000000
  ---------------------------------------------------
  free energy    TOTEN  =       -37.97630134 eV

  energy without entropy =      -37.97630134  energy(sigma->0) =      -37.97630134


--------------------------------------------------------------------------------------------------------




[...]
 augmentation part        1.7381909 magnetization 

 Broyden mixing:
  rms(total) = 0.22684E-04    rms(broyden)= 0.22684E-04
  rms(prec ) = 0.22761E-04
  weight for this iteration     100.00

 eigenvalues of (default mixing * dielectric matrix)
  average eigenvalue GAMMA=   2.0835
  9.5107  7.1322  5.1616  3.7149  2.5881  2.3903  2.3903  2.3094  1.7240  1.7240
  1.4559  1.2232  1.2232  1.0094  0.9157  0.9157  0.9303  0.9303  0.7602  0.7602
  0.7318  0.7097  0.6121  0.6323  0.6323

 Free energy of the ion-electron system (eV)
  ---------------------------------------------------
  alpha Z        PSCENC =         0.01677508
  Ewald energy   TEWEN  =       579.40607677
  -Hartree energ DENC   =     -1127.08062995
  -exchange      EXHF   =         0.00000000
  -V(xc)+E(xc)   XCENC  =        59.45159167
  PAW double counting   =      2859.99088122    -2866.39391677
  entropy T*S    EENTRO =        -0.00000000
  eigenvalues    EBANDS =      -197.83149281
  atomic energy  EATOM  =       654.46440935
  Solvation  Ediel_sol  =         0.00000000
  ---------------------------------------------------
  free energy    TOTEN  =       -37.97630544 eV

  energy without entropy =      -37.97630544  energy(sigma->0) =      -37.97630544


--------------------------------------------------------------------------------------------------------




--------------------------------------- Iteration      1(  31)  ---------------------------------------


    POTLOK:  cpu time   11.2315: real time   11.2487
    SETDIJ:  cpu time    0.0439: real time    0.0439
     EDDAV:  cpu time   10.4040: real time   10.4227
       DOS:  cpu time    0.0003: real time    0.0003
    CHARGE:  cpu time    1.7468: real time    1.7491
    MIXING:  cpu time    0.5757: real time    0.5765
    --------------------------------------------
      LOOP:  cpu time   24.0022: real time   24.0413

 eigenvalue-minimisations  :    40
 total energy-change (2. order) :-0.2367453E-06  (-0.4253113E-09)
 number of electron      16.0000000 magnetization 
 augmentation part        1.7381901 magnetization 

 Broyden mixing:
  rms(total) = 0.14682E-04    rms(broyden)= 0.14682E-04
  rms(prec ) = 0.14772E-04
  weight for this iteration     100.00

 eigenvalues of (default mixing * dielectric matrix)
  average eigenvalue GAMMA=   2.0685
  9.5633  7.3560  5.3743  4.0781  2.5777  2.5777  2.2164  2.2164  1.7094  1.7094
  1.3118  1.3118  1.1539  1.1539  0.9876  0.9876  0.9653  0.8532  0.8532  0.8324
  0.7324  0.7581  0.7581  0.6121  0.5656  0.5656

 Free energy of the ion-electron system (eV)
  ---------------------------------------------------
  alpha Z        PSCENC =         0.01677508
  Ewald energy   TEWEN  =       579.40607677
  -Hartree energ DENC   =     -1127.08061051
  -exchange      EXHF   =         0.00000000
  -V(xc)+E(xc)   XCENC  =        59.45158963
  PAW double counting   =      2859.99195195    -2866.39498917
  entropy T*S    EENTRO =        -0.00000000
  eigenvalues    EBANDS =      -197.83150877
  atomic energy  EATOM  =       654.46440935
  Solvation  Ediel_sol  =         0.00000000
  ---------------------------------------------------
  free energy    TOTEN  =       -37.97630568 eV

  energy without entropy =      -37.97630568  energy(sigma->0) =      -37.97630568


--------------------------------------------------------------------------------------------------------




--------------------------------------- Iteration      1(  32)  ---------------------------------------


    POTLOK:  cpu time   11.2455: real time   11.2658
    SETDIJ:  cpu time    0.0402: real time    0.0402
     EDDAV:  cpu time    7.4301: real time    7.4434
       DOS:  cpu time    0.0014: real time    0.0014
    CHARGE:  cpu time    1.7589: real time    1.7611
    MIXING:  cpu time    0.6201: real time    0.6210
    --------------------------------------------
      LOOP:  cpu time   21.0962: real time   21.1330

 eigenvalue-minimisations  :    24
 total energy-change (2. order) :-0.4182348E-06  (-0.4165361E-09)
 number of electron      16.0000000 magnetization 
 augmentation part        1.7381904 magnetization 

 Broyden mixing:
  rms(total) = 0.12710E-04    rms(broyden)= 0.12710E-04
  rms(prec ) = 0.12784E-04
  weight for this iteration     100.00

 eigenvalues of (default mixing * dielectric matrix)
  average eigenvalue GAMMA=   2.0624
  9.5939  7.4658  5.5292  4.1686  2.8251  2.2841  2.2841  2.2538  1.6892  1.6892
  1.5826  1.5826  1.2933  1.1619  1.1619  0.9435  0.9435  0.9306  0.8739  0.8739
  0.7572  0.7572  0.7335  0.6135  0.6816  0.5055  0.5055

 Free energy of the ion-electron system (eV)
  ---------------------------------------------------
  alpha Z        PSCENC =         0.01677508
  Ewald energy   TEWEN  =       579.40607677
  -Hartree energ DENC   =     -1127.08058251
  -exchange      EXHF   =         0.00000000
  -V(xc)+E(xc)   XCENC  =        59.45158614
  PAW double counting   =      2859.98484999    -2866.38788631
  entropy T*S    EENTRO =        -0.00000000
  eigenvalues    EBANDS =      -197.83153460
  atomic energy  EATOM  =       654.46440935
  Solvation  Ediel_sol  =         0.00000000
  ---------------------------------------------------
  free energy    TOTEN  =       -37.97630610 eV

  energy without entropy =      -37.97630610  energy(sigma->0) =      -37.97630610


--------------------------------------------------------------------------------------------------------




--------------------------------------- Iteration      1(  33)  ---------------------------------------


    POTLOK:  cpu time   11.2506: real time   11.2729
    SETDIJ:  cpu time    0.0400: real time    0.0400
     EDDAV:  cpu time   10.4516: real time   10.4658
       DOS:  cpu time    0.0036: real time    0.0036
    CHARGE:  cpu time    1.7329: real time    1.7351
    MIXING:  cpu time    0.6493: real time    0.6503
    --------------------------------------------
      LOOP:  cpu time   24.1281: real time   24.1678

 eigenvalue-minimisations  :    40
 total energy-change (2. order) :-0.2339198E-06  (-0.3407052E-09)
 number of electron      16.0000000 magnetization 
 augmentation part        1.7381904 magnetization 

 Broyden mixing:
  rms(total) = 0.63872E-05    rms(broyden)= 0.63872E-05
  rms(prec ) = 0.64416E-05
  weight for this iteration     100.00

 eigenvalues of (default mixing * dielectric matrix)
  average eigenvalue GAMMA=   2.0817
  9.6411  7.6133  5.7513  4.1773  2.9090  2.5472  2.5472  2.5319  1.7376  1.7376
  1.7623  1.7623  1.1554  1.1554  1.1296  1.0323  0.8627  0.8627  0.9267  0.9267
  0.7755  0.7755  0.8173  0.8173  0.7341  0.6152  0.5466  0.4375

 Free energy of the ion-electron system (eV)
  ---------------------------------------------------
  alpha Z        PSCENC =         0.01677508
  Ewald energy   TEWEN  =       579.40607677
  -Hartree energ DENC   =     -1127.08057109
  -exchange      EXHF   =         0.00000000
  -V(xc)+E(xc)   XCENC  =        59.45158660
  PAW double counting   =      2859.99165186    -2866.39468983
  entropy T*S    EENTRO =        -0.00000000
  eigenvalues    EBANDS =      -197.83154506
  atomic energy  EATOM  =       654.46440935
  Solvation  Ediel_sol  =         0.00000000
  ---------------------------------------------------
  free energy    TOTEN  =       -37.97630633 eV

  energy without entropy =      -37.97630633  energy(sigma->0) =      -37.97630633


--------------------------------------------------------------------------------------------------------




--------------------------------------- Iteration      1(  34)  ---------------------------------------


    POTLOK:  cpu time   11.1984: real time   11.2131
    SETDIJ:  cpu time    0.0403: real time    0.0403
     EDDAV:  cpu time    7.4195: real time    7.4293
       DOS:  cpu time    0.0010: real time    0.0010
    CHARGE:  cpu time    1.7680: real time    1.7702
    MIXING:  cpu time    0.6704: real time    0.6714
    --------------------------------------------
      LOOP:  cpu time   21.0976: real time   21.1252

 eigenvalue-minimisations  :    24
 total energy-change (2. order) :-0.2252416E-06  (-0.3057021E-09)
 number of electron      16.0000000 magnetization 
 augmentation part        1.7381903 magnetization 

 Broyden mixing:
  rms(total) = 0.42565E-05    rms(broyden)= 0.42565E-05
  rms(prec ) = 0.42882E-05
  weight for this iteration     100.00

 eigenvalues of (default mixing * dielectric matrix)
  average eigenvalue GAMMA=   2.0671
  9.6369  7.7576  5.8977  4.3034  3.3644  2.4453  2.4453  2.4615  1.7478  1.7478
  1.7623  1.7623  1.2162  1.2162  1.1141  1.1141  0.9609  0.9609  0.9620  0.8365
  0.8365  0.7818  0.7818  0.7338  0.7500  0.7500  0.6155  0.5529  0.4313

 Free energy of the ion-electron system (eV)
  ---------------------------------------------------
  alpha Z        PSCENC =         0.01677508
  Ewald energy   TEWEN  =       579.40607677
  -Hartree energ DENC   =     -1127.08061245
  -exchange      EXHF   =         0.00000000
  -V(xc)+E(xc)   XCENC  =        59.45158857
  PAW double counting   =      2859.99122017    -2866.39425937
  entropy T*S    EENTRO =        -0.00000000
  eigenvalues    EBANDS =      -197.83150467
  atomic energy  EATOM  =       654.46440935
  Solvation  Ediel_sol  =         0.00000000
  ---------------------------------------------------
  free energy    TOTEN  =       -37.97630655 eV

  energy without entropy =      -37.97630655  energy(sigma->0) =      -37.97630655


--------------------------------------------------------------------------------------------------------




--------------------------------------- Iteration      1(  35)  ---------------------------------------


    POTLOK:  cpu time   11.1919: real time   11.2063
    SETDIJ:  cpu time    0.0401: real time    0.0401
     EDDAV:  cpu time   10.4065: real time   10.4242
       DOS:  cpu time    0.0017: real time    0.0017
    --------------------------------------------
      LOOP:  cpu time   21.6402: real time   21.6724

 eigenvalue-minimisations  :    40
 total energy-change (2. order) :-0.7962853E-07  (-0.2692495E-09)
 number of electron      16.0000000 magnetization 
 augmentation part        1.7381903 magnetization 

 Free energy of the ion-electron system (eV)
  ---------------------------------------------------
  alpha Z        PSCENC =         0.01677508
  Ewald energy   TEWEN  =       579.40607677
  -Hartree energ DENC   =     -1127.08063523
  -exchange      EXHF   =         0.00000000
  -V(xc)+E(xc)   XCENC  =        59.45158971
  PAW double counting   =      2859.98885028    -2866.39188938
  entropy T*S    EENTRO =        -0.00000000
  eigenvalues    EBANDS =      -197.83148321
  atomic energy  EATOM  =       654.46440935
  Solvation  Ediel_sol  =         0.00000000
  ---------------------------------------------------
  free energy    TOTEN  =       -37.97630663 eV

  energy without entropy =      -37.97630663  energy(sigma->0) =      -37.97630663


--------------------------------------------------------------------------------------------------------




 average (electrostatic) potential at core
  the test charge radii are     0.6256  0.8471  0.8742
  (the norm of the test charge is              1.0000)
       1 -37.5326       2 -37.5421       3 -37.2142       4 -37.5436       5 -41.6136
       6 -41.6127       7 -82.1260       8 -90.9379
 
 
 
 E-fermi :  -7.3711     XC(G=0):  -0.0361     alpha+bet : -0.0083


 k-point     1 :       0.0000    0.0000    0.0000
  band No.  band energies     occupation 
      1     -25.7111      2.00000
      2     -16.4351      2.00000
      3     -13.3566      2.00000
      4      -9.9021      2.00000
      5      -8.8880      2.00000
      6      -8.8812      2.00000
      7      -8.2892      2.00000
      8      -7.4523      2.00000
      9      -1.0748      0.00000
     10      -0.0370      0.00000
     11       0.0074      0.00000
     12       0.0874      0.00000
     13       0.1089      0.00000
     14       0.1134      0.00000
     15       0.1165      0.00000
     16       0.1230      0.00000


--------------------------------------------------------------------------------------------------------


 soft charge-density along one line, spin component            1
         0         1         2         3         4         5         6         7         8         9
 total charge-density along one line
 
 pseudopotential strength for first ion, spin component:            1
 -2.243  -3.540  -0.008   0.011  -0.019
 -3.540  -5.417  -0.014   0.020  -0.034
 -0.008  -0.014  -0.138  -0.005   0.009
  0.011   0.020  -0.005  -0.134  -0.013
 -0.019  -0.034   0.009  -0.013  -0.119
 total augmentation occupancy for first ion, spin component:            1
  2.945  -0.434   0.219  -0.313   0.542
 -0.434   0.090  -0.031   0.044  -0.077
  0.219  -0.031   0.035  -0.020   0.035
 -0.313   0.044  -0.020   0.049  -0.050
  0.542  -0.077   0.035  -0.050   0.107


------------------------ aborting loop because EDIFF is reached ----------------------------------------



 DIPCOR: dipole corrections for dipol
 direction  1 min pos   353, direction  2 min pos   379, direction  3 min pos   367,
 dipolmoment          -0.003959     -0.492771      0.018241 electrons x Angstroem
 Tr[quadrupol]         6.088371

 energy correction for charged system         0.000000 eV
 dipol+quadrupol energy correction            0.000171 eV
 added-field ion interaction          0.000000 eV  (added to PSCEN)

 
  *************** adding dipol energy to TOTEN NOW **************** 
    CHARGE:  cpu time    1.7660: real time    1.7683
    FORLOC:  cpu time    0.5928: real time    0.5934
    FORNL :  cpu time    0.5065: real time    0.5072
    STRESS:  cpu time    5.3830: real time    5.3909
    FORHAR:  cpu time    3.3937: real time    3.3980
    MIXING:  cpu time    0.6719: real time    0.6728
    OFIELD:  cpu time    0.0000: real time    0.0000

  FORCE on cell =-STRESS in cart. coord.  units (eV):
  Direction    XX          YY          ZZ          XY          YZ          ZX
  --------------------------------------------------------------------------------------
  Alpha Z     0.01678     0.01678     0.01678
  Ewald      73.37415   376.25279   129.77906     3.00741    -0.01530    54.94456
  Hartree   291.89652   533.54432   301.63982     0.55459    -0.23980     9.47655
  E(xc)     -63.22176   -62.92617   -63.00245     0.01227     0.00076     0.21372
  Local    -587.66163 -1120.82378  -635.76205    -2.58871     0.37469   -46.83474
  n-local    17.90716    15.41668    15.69017    -0.13017     0.03003    -2.15745
  augment    51.91002    49.59423    48.48936    -0.18716    -0.01925    -3.33303
  Kinetic   216.72197   211.15501   205.18032    -0.61160    -0.10847   -11.24928
  Fock        0.00000     0.00000     0.00000     0.00000     0.00000     0.00000
  -------------------------------------------------------------------------------------
  Total       0.94320     2.22985     2.03101     0.05662     0.02266     1.06033
  in kB       0.03525     0.08333     0.07590     0.00212     0.00085     0.03962
  external pressure =        0.06 kB  Pullay stress =        0.00 kB


 VOLUME and BASIS-vectors are now :
 -----------------------------------------------------------------------------
  energy-cutoff  :     1000.00
  volume of cell :    42875.00
      direct lattice vectors                 reciprocal lattice vectors
    35.000000000  0.000000000  0.000000000     0.028571429  0.000000000  0.000000000
     0.000000000 35.000000000  0.000000000     0.000000000  0.028571429  0.000000000
     0.000000000  0.000000000 35.000000000     0.000000000  0.000000000  0.028571429

  length of vectors
    35.000000000 35.000000000 35.000000000     0.028571429  0.028571429  0.028571429


 FORCES acting on ions
    electron-ion (+dipol)            ewald-force                    non-local-force                 convergence-correction
 -----------------------------------------------------------------------------------------------
   0.456E+02 0.253E+02 -.264E+02   -.503E+02 -.273E+02 0.291E+02   0.451E+01 0.181E+01 -.261E+01   -.145E-05 -.955E-06 0.961E-06
   -.456E+02 0.254E+02 -.263E+02   0.503E+02 -.273E+02 0.290E+02   -.451E+01 0.182E+01 -.260E+01   0.842E-06 -.147E-05 0.194E-05
   -.133E-03 -.305E+02 -.492E-01   0.505E-02 0.363E+02 0.585E-01   -.197E-02 -.575E+01 -.358E-02   -.102E-05 0.201E-05 0.691E-06
   -.937E-02 0.254E+02 0.527E+02   0.154E-01 -.273E+02 -.581E+02   -.106E-02 0.182E+01 0.521E+01   -.115E-05 -.150E-05 -.169E-05
   0.380E+02 -.569E+02 0.655E+02   -.420E+02 0.622E+02 -.725E+02   0.325E+01 -.432E+01 0.560E+01   -.263E-07 0.260E-06 -.538E-07
   -.389E+02 -.622E+02 -.602E+02   0.431E+02 0.681E+02 0.666E+02   -.333E+01 -.480E+01 -.514E+01   0.236E-07 0.211E-06 0.536E-07
   -.251E-01 0.434E+02 -.534E-01   0.401E-02 -.414E+02 0.828E-01   0.102E-01 -.204E+01 -.285E-01   -.712E-05 -.489E-05 0.484E-05
   0.423E+00 -.241E+02 -.234E+01   -.104E+01 -.434E+02 0.573E+01   0.595E+00 0.657E+02 -.329E+01   0.445E-07 0.217E-05 0.772E-06
 -----------------------------------------------------------------------------------------------
   -.523E+00 -.543E+02 0.287E+01   -.644E-14 0.142E-13 -.444E-14   0.523E+00 0.543E+02 -.287E+01   -.986E-05 -.416E-05 0.751E-05
 
 
 POSITION                                       TOTAL-FORCE (eV/Angst)
 -----------------------------------------------------------------------------------
     34.10848     33.54416      0.51472        -0.162918     -0.112418      0.094233
      0.89152     33.54416      0.51472         0.166205     -0.113847      0.090335
      0.00000      0.00000      0.00000         0.002945      0.046135      0.005728
      0.00000     33.54416     33.97057         0.005016     -0.117794     -0.189843
     34.60990      2.66172     34.32433        -0.814931      0.945592     -1.395526
      0.40075      2.71910      0.61672         0.832364      1.064945      1.296210
      0.00000     33.90812      0.00000        -0.010899      0.026451      0.000812
      0.00000      2.10000      0.00000        -0.017782     -1.739064      0.098051
 -----------------------------------------------------------------------------------
    total drift:                                0.000005      0.000144      0.000026


--------------------------------------------------------------------------------------------------------



  FREE ENERGIE OF THE ION-ELECTRON SYSTEM (eV)
  ---------------------------------------------------
  free  energy   TOTEN  =       -37.97613558 eV

  energy  without entropy=      -37.97613558  energy(sigma->0) =      -37.97613558
 


--------------------------------------------------------------------------------------------------------


    POTLOK:  cpu time   11.2383: real time   11.2531


--------------------------------------------------------------------------------------------------------


 writing wavefunctions
     LOOP+:  cpu time 1101.4291: real time 1103.6765
    4ORBIT:  cpu time    0.0000: real time    0.0000

 total amount of memory used by VASP MPI-rank0  1992877. kBytes
=======================================================================

   base      :      30000. kBytes
   nonl-proj :     123143. kBytes
   fftplans  :     660854. kBytes
   grid      :    1154248. kBytes
   one-center:          3. kBytes
   wavefun   :      24629. kBytes
 
  
  
 General timing and accounting informations for this job:
 ========================================================
  
                  Total CPU time used (sec):     1416.255
                            User time (sec):     1339.777
                          System time (sec):       76.478
                         Elapsed time (sec):     1422.768
  
                   Maximum memory used (kb):     2436516.
                   Average memory used (kb):           0.
  
                          Minor page faults:     32613783
                          Major page faults:           75
                 Voluntary context switches:        24238
