 vasp.6.1.2 22Jul20 (build Jan  6 2021 09:55:43) gamma-only                      
 executed on             LinuxPGI date 2023.10.20  09:30:34
 running on   32 total cores
 distrk:  each k-point on   32 cores,    1 groups
 distr:  one band on NCORE=   1 cores,   32 groups


--------------------------------------------------------------------------------------------------------


 INCAR:
 POTCAR:    PAW_PBE H_s 15May2010                 
 POTCAR:    PAW_PBE C_s 06Sep2000                 
 POTCAR:    PAW_PBE O_s 07Sep2000                 
 -----------------------------------------------------------------------------
|                                                                             |
|           W    W    AA    RRRRR   N    N  II  N    N   GGGG   !!!           |
|           W    W   A  A   R    R  NN   N  II  NN   N  G    G  !!!           |
|           W    W  A    A  R    R  N N  N  II  N N  N  G       !!!           |
|           W WW W  AAAAAA  RRRRR   N  N N  II  N  N N  G  GGG   !            |
|           WW  WW  A    A  R   R   N   NN  II  N   NN  G    G                |
|           W    W  A    A  R    R  N    N  II  N    N   GGGG   !!!           |
|                                                                             |
|     For optimal performance we recommend to set                             |
|       NCORE = 4 - approx SQRT(number of cores).                             |
|     NCORE specifies how many cores store one orbital (NPAR=cpu/NCORE).      |
|     This setting can greatly improve the performance of VASP for DFT.       |
|     The default, NCORE=1 might be grossly inefficient on modern             |
|     multi-core architectures or massively parallel machines. Do your        |
|     own testing!!!!                                                         |
|     Unfortunately you need to use the default for GW and RPA                |
|     calculations (for HF NCORE is supported but not extensively tested      |
|     yet).                                                                   |
|                                                                             |
 -----------------------------------------------------------------------------

 POTCAR:    PAW_PBE H_s 15May2010                 
   VRHFIN =H: ultrasoft test                                                                        
   LEXCH  = PE                                                                                      
   EATOM  =    12.4884 eV,    0.9179 Ry                                                             
                                                                                                    
   TITEL  = PAW_PBE H_s 15May2010                                                                   
   LULTRA =        F    use ultrasoft PP ?                                                          
   IUNSCR =        0    unscreen: 0-lin 1-nonlin 2-no                                               
   RPACOR =    0.000    partial core radius                                                         
   POMASS =    1.000; ZVAL   =    1.000    mass and valenz                                          
   RCORE  =    1.300    outmost cutoff radius                                                       
   RWIGS  =    0.700; RWIGS  =    0.370    wigner-seitz radius (au A)                               
   ENMAX  =  200.000; ENMIN  =  150.000 eV                                                          
   RCLOC  =    0.701    cutoff for local pot                                                        
   LCOR   =        T    correct aug charges                                                         
   LPAW   =        T    paw PP                                                                      
   EAUG   =  300.000                                                                                
   RMAX   =    1.330    core radius for proj-oper                                                   
   RAUG   =    1.200    factor for augmentation sphere                                              
   RDEP   =    1.337    radius for radial grids                                                     
   RDEPT  =    1.114    core radius for aug-charge                                                  
                                                                                                    
   Atomic configuration                                                                             
    2 entries                                                                                       
     n  l   j            E        occ.                                                              
     1  0  0.50        -6.4927   1.0000                                                             
     2  1  0.50        -3.4015   0.0000                                                             
   Description                                                                                      
     l       E           TYP  RCUT    TYP  RCUT                                                     
     0     -6.4927494     23  1.300                                                                 
     0      6.8029130     23  1.300                                                                 
     1     -4.0817478     23  1.300                                                                 
  local pseudopotential read in
  atomic valenz-charges read in
  non local Contribution for L=            0  read in
    real space projection operators read in
  non local Contribution for L=            0  read in
    real space projection operators read in
  non local Contribution for L=            1  read in
    real space projection operators read in
    PAW grid and wavefunctions read in
 
   number of l-projection  operators is LMAX  =            3
   number of lm-projection operators is LMMAX =            5
 
 POTCAR:    PAW_PBE C_s 06Sep2000                 
   VRHFIN =C: s2p2                                                                                  
   LEXCH  = PE                                                                                      
   EATOM  =   147.1560 eV,   10.8157 Ry                                                             
                                                                                                    
   TITEL  = PAW_PBE C_s 06Sep2000                                                                   
   LULTRA =        F    use ultrasoft PP ?                                                          
   IUNSCR =        0    unscreen: 0-lin 1-nonlin 2-no                                               
   RPACOR =    0.000    partial core radius                                                         
   POMASS =   12.011; ZVAL   =    4.000    mass and valenz                                          
   RCORE  =    1.850    outmost cutoff radius                                                       
   RWIGS  =    1.890; RWIGS  =    1.000    wigner-seitz radius (au A)                               
   ENMAX  =  273.911; ENMIN  =  205.433 eV                                                          
   RCLOC  =    0.804    cutoff for local pot                                                        
   LCOR   =        T    correct aug charges                                                         
   LPAW   =        T    paw PP                                                                      
   EAUG   =  439.243                                                                                
   DEXC   =    0.000                                                                                
   RMAX   =    1.897    core radius for proj-oper                                                   
   RAUG   =    1.300    factor for augmentation sphere                                              
   RDEP   =    1.940    radius for radial grids                                                     
   RDEPT  =    1.573    core radius for aug-charge                                                  
                                                                                                    
   Atomic configuration                                                                             
    4 entries                                                                                       
     n  l   j            E        occ.                                                              
     1  0  0.50      -273.3789   2.0000                                                             
     2  0  0.50       -13.7508   2.0000                                                             
     2  1  0.50        -5.2854   2.0000                                                             
     3  2  1.50        -1.3606   0.0000                                                             
   Description                                                                                      
     l       E           TYP  RCUT    TYP  RCUT                                                     
     0    -13.7508457     23  1.500                                                                 
     0    -11.0934578     23  1.500                                                                 
     1     -5.2854381     23  1.850                                                                 
     1     -1.3099858     23  1.850                                                                 
  local pseudopotential read in
  atomic valenz-charges read in
  non local Contribution for L=            0  read in
    real space projection operators read in
  non local Contribution for L=            0  read in
    real space projection operators read in
  non local Contribution for L=            1  read in
    real space projection operators read in
  non local Contribution for L=            1  read in
    real space projection operators read in
    PAW grid and wavefunctions read in
 
   number of l-projection  operators is LMAX  =            4
   number of lm-projection operators is LMMAX =            8
 
 POTCAR:    PAW_PBE O_s 07Sep2000                 
   VRHFIN =O: s2p4                                                                                  
   LEXCH  = PE                                                                                      
   EATOM  =   432.3788 eV,   31.7789 Ry                                                             
                                                                                                    
   TITEL  = PAW_PBE O_s 07Sep2000                                                                   
   LULTRA =        F    use ultrasoft PP ?                                                          
   IUNSCR =        0    unscreen: 0-lin 1-nonlin 2-no                                               
   RPACOR =    0.000    partial core radius                                                         
   POMASS =   16.000; ZVAL   =    6.000    mass and valenz                                          
   RCORE  =    1.850    outmost cutoff radius                                                       
   RWIGS  =    1.700; RWIGS  =    0.900    wigner-seitz radius (au A)                               
   ENMAX  =  282.853; ENMIN  =  212.140 eV                                                          
   RCLOC  =    0.804    cutoff for local pot                                                        
   LCOR   =        T    correct aug charges                                                         
   LPAW   =        T    paw PP                                                                      
   EAUG   =  412.352                                                                                
   RMAX   =    1.897    core radius for proj-oper                                                   
   RAUG   =    1.300    factor for augmentation sphere                                              
   RDEP   =    1.878    radius for radial grids                                                     
   RDEPT  =    1.572    core radius for aug-charge                                                  
                                                                                                    
   Atomic configuration                                                                             
    4 entries                                                                                       
     n  l   j            E        occ.                                                              
     1  0  0.50      -514.6923   2.0000                                                             
     2  0  0.50       -23.9615   2.0000                                                             
     2  1  0.50        -9.0305   4.0000                                                             
     3  2  1.50        -1.3606   0.0000                                                             
   Description                                                                                      
     l       E           TYP  RCUT    TYP  RCUT                                                     
     0    -23.9615315     23  1.500                                                                 
     0    -25.3221141     23  1.500                                                                 
     1     -9.0304908     23  1.850                                                                 
     1     -7.3935399     23  1.850                                                                 
  local pseudopotential read in
  atomic valenz-charges read in
  non local Contribution for L=            0  read in
    real space projection operators read in
  non local Contribution for L=            0  read in
    real space projection operators read in
  non local Contribution for L=            1  read in
    real space projection operators read in
  non local Contribution for L=            1  read in
    real space projection operators read in
    PAW grid and wavefunctions read in
 
   number of l-projection  operators is LMAX  =            4
   number of lm-projection operators is LMMAX =            8
 
  PAW_PBE H_s 15May2010                 :
 energy of atom  1       EATOM=  -12.4884
 kinetic energy error for atom=    0.0000 (will be added to EATOM!!)
  PAW_PBE C_s 06Sep2000                 :
 energy of atom  2       EATOM= -147.1560
 kinetic energy error for atom=    0.0002 (will be added to EATOM!!)
  PAW_PBE O_s 07Sep2000                 :
 energy of atom  3       EATOM= -432.3788
 kinetic energy error for atom=    0.0004 (will be added to EATOM!!)
 
 
 POSCAR:  H  C  O
  positions in cartesian coordinates
  No initial velocities read in
 exchange correlation table for  LEXCH =        8
   RHO(1)=    0.500       N(1)  =     2000
   RHO(2)=  100.500       N(2)  =     4000
 


--------------------------------------------------------------------------------------------------------


 ion  position               nearest neighbor table
   1  0.001  0.139  0.978-   5 0.96
   2  0.000  0.142  0.021-   5 0.96
   3  0.000  0.003  0.000-   4 1.14
   4  0.000  0.035  0.000-   3 1.14
   5  0.000  0.124  0.000-   2 0.96   1 0.96
 
 -----------------------------------------------------------------------------
|                                                                             |
|           W    W    AA    RRRRR   N    N  II  N    N   GGGG   !!!           |
|           W    W   A  A   R    R  NN   N  II  NN   N  G    G  !!!           |
|           W    W  A    A  R    R  N N  N  II  N N  N  G       !!!           |
|           W WW W  AAAAAA  RRRRR   N  N N  II  N  N N  G  GGG   !            |
|           WW  WW  A    A  R   R   N   NN  II  N   NN  G    G                |
|           W    W  A    A  R    R  N    N  II  N    N   GGGG   !!!           |
|                                                                             |
|     The distance between some ions is very small. Please check the          |
|     nearest-neighbor list in the OUTCAR file.                               |
|     I HOPE YOU KNOW WHAT YOU ARE DOING!                                     |
|                                                                             |
 -----------------------------------------------------------------------------

  LATTYP: Found a simple cubic cell.
 ALAT       =    35.0000000000
  
  Lattice vectors:
  
 A1 = (  35.0000000000,   0.0000000000,   0.0000000000)
 A2 = (   0.0000000000,  35.0000000000,   0.0000000000)
 A3 = (   0.0000000000,   0.0000000000,  35.0000000000)


Analysis of symmetry for initial positions (statically):
=====================================================================
 Subroutine PRICEL returns:
 Original cell was already a primitive cell.
 

 Routine SETGRP: Setting up the symmetry group for a 
 simple cubic supercell.


 Subroutine GETGRP returns: Found  1 space group operations
 (whereof  1 operations were pure point group operations)
 out of a pool of 48 trial point group operations.


The static configuration has the point symmetry C_1 .


Analysis of symmetry for dynamics (positions and initial velocities):
=====================================================================
 Subroutine PRICEL returns:
 Original cell was already a primitive cell.
 

 Routine SETGRP: Setting up the symmetry group for a 
 simple cubic supercell.


 Subroutine GETGRP returns: Found  1 space group operations
 (whereof  1 operations were pure point group operations)
 out of a pool of 48 trial point group operations.


The dynamic configuration has the point symmetry C_1 .


 Subroutine INISYM returns: Found  1 space group operations
 (whereof  1 operations are pure point group operations),
 and found     1 'primitive' translations


----------------------------------------------------------------------------------------

                                     Primitive cell                                     

  volume of cell :   42875.0000

  direct lattice vectors                    reciprocal lattice vectors
    35.000000000  0.000000000  0.000000000     0.028571429  0.000000000  0.000000000
     0.000000000 35.000000000  0.000000000     0.000000000  0.028571429  0.000000000
     0.000000000  0.000000000 35.000000000     0.000000000  0.000000000  0.028571429

  length of vectors
    35.000000000 35.000000000 35.000000000     0.028571429  0.028571429  0.028571429

  position of ions in fractional coordinates (direct lattice)
     0.000848682  0.139467927  0.977571084
     0.000390051  0.141522101  0.020841195
     0.000000000  0.002521600  0.000000000
     0.000000000  0.035063029  0.000000000
     0.000000000  0.123634457  0.000000000

  ion indices of the primitive-cell ions
   primitive index   ion index
                 1           1
                 2           2
                 3           3
                 4           4
                 5           5

----------------------------------------------------------------------------------------

 
 
 KPOINTS: g                                       

Automatic generation of k-mesh.
Space group operators:
 irot       det(A)        alpha          n_x          n_y          n_z        tau_x        tau_y        tau_z
    1     1.000000     0.000000     1.000000     0.000000     0.000000     0.000000     0.000000     0.000000
 
 Subroutine IBZKPT returns following result:
 ===========================================
 
 Found      1 irreducible k-points:
 
 Following reciprocal coordinates:
            Coordinates               Weight
  0.000000  0.000000  0.000000      1.000000
 
 Following cartesian coordinates:
            Coordinates               Weight
  0.000000  0.000000  0.000000      1.000000
 


--------------------------------------------------------------------------------------------------------




 Dimension of arrays:
   k-points           NKPTS =      1   k-points in BZ     NKDIM =      1   number of bands    NBANDS=     32
   number of dos      NEDOS =    301   number of ions     NIONS =      5
   non local maximal  LDIM  =      4   non local SUM 2l+1 LMDIM =      8
   total plane-waves  NPLWV = ******
   max r-space proj   IRMAX =      1   max aug-charges    IRDMAX=  29269
   dimension x,y,z NGX =   378 NGY =  378 NGZ =  378
   dimension x,y,z NGXF=   756 NGYF=  756 NGZF=  756
   support grid    NGXF=   756 NGYF=  756 NGZF=  756
   ions per type =               2   1   2
   NGX,Y,Z   is equivalent  to a cutoff of  17.95, 17.95, 17.95 a.u.
   NGXF,Y,Z  is equivalent  to a cutoff of  35.91, 35.91, 35.91 a.u.

 SYSTEM =  C                                       
 POSCAR =   H  C  O                                

 Startparameter for this run:
   NWRITE =      2    write-flag & timer
   PREC   = acc       normal or accurate (medium, high low for compatibility)
   ISTART =      0    job   : 0-new  1-cont  2-samecut
   ICHARG =      2    charge: 1-file 2-atom 10-const
   ISPIN  =      1    spin polarized calculation?
   LNONCOLLINEAR =      F non collinear calculations
   LSORBIT =      F    spin-orbit coupling
   INIWAV =      1    electr: 0-lowe 1-rand  2-diag
   LASPH  =      T    aspherical Exc in radial PAW
   METAGGA=      F    non-selfconsistent MetaGGA calc.

 Electronic Relaxation 1
   ENCUT  = 1000.0 eV  73.50 Ry    8.57 a.u.  90.25 90.25 90.25*2*pi/ulx,y,z
   ENINI  = 1000.0     initial cutoff
   ENAUG  =  439.2 eV  augmentation charge cutoff
   NELM   =     60;   NELMIN=  2; NELMDL= -5     # of ELM steps 
   EDIFF  = 0.1E-06   stopping-criterion for ELM
   LREAL  =      F    real-space projection
   NLSPLINE    = F    spline interpolate recip. space projectors
   LCOMPAT=      F    compatible to vasp.4.4
   GGA_COMPAT  = T    GGA compatible to vasp.4.4-vasp.4.6
   LMAXPAW     = -100 max onsite density
   LMAXMIX     =    2 max onsite mixed and CHGCAR
   VOSKOWN=      0    Vosko Wilk Nusair interpolation
   ROPT   =    0.00000   0.00000   0.00000
 Ionic relaxation
   EDIFFG = 0.1E-05   stopping-criterion for IOM
   NSW    =      0    number of steps for IOM
   NBLOCK =      1;   KBLOCK =      1    inner block; outer block 
   IBRION =     -1    ionic relax: 0-MD 1-quasi-New 2-CG
   NFREE  =      0    steps in history (QN), initial steepest desc. (CG)
   ISIF   =      2    stress and relaxation
   IWAVPR =     10    prediction:  0-non 1-charg 2-wave 3-comb
   ISYM   =      2    0-nonsym 1-usesym 2-fastsym
   LCORR  =      T    Harris-Foulkes like correction to forces

   POTIM  = 0.5000    time-step for ionic-motion
   TEIN   =    0.0    initial temperature
   TEBEG  =    0.0;   TEEND  =   0.0 temperature during run
   SMASS  =  -3.00    Nose mass-parameter (am)
   estimated Nose-frequenzy (Omega)   =  0.10E-29 period in steps = 0.13E+47 mass=  -0.280E-25a.u.
   SCALEE = 1.0000    scale energy and forces
   NPACO  =    256;   APACO  = 16.0  distance and # of slots for P.C.
   PSTRESS=    0.0 pullay stress

  Mass of Ions in am
   POMASS =   1.00 12.01 16.00
  Ionic Valenz
   ZVAL   =   1.00  4.00  6.00
  Atomic Wigner-Seitz radii
   RWIGS  =  -1.00 -1.00 -1.00
  virtual crystal weights 
   VCA    =   1.00  1.00  1.00
   NELECT =      18.0000    total number of electrons
   NUPDOWN=      -1.0000    fix difference up-down

 DOS related values:
   EMIN   =  10.00;   EMAX   =-10.00  energy-range for DOS
   EFERMI =   0.00
   ISMEAR =     0;   SIGMA  =   0.01  broadening in eV -4-tet -1-fermi 0-gaus

 Electronic relaxation 2 (details)
   IALGO  =     38    algorithm
   LDIAG  =      T    sub-space diagonalisation (order eigenvalues)
   LSUBROT=      F    optimize rotation matrix (better conditioning)
   TURBO    =      0    0=normal 1=particle mesh
   IRESTART =      0    0=no restart 2=restart with 2 vectors
   NREBOOT  =      0    no. of reboots
   NMIN     =      0    reboot dimension
   EREF     =   0.00    reference energy to select bands
   IMIX   =      4    mixing-type and parameters
     AMIX     =   0.40;   BMIX     =  1.00
     AMIX_MAG =   1.60;   BMIX_MAG =  1.00
     AMIN     =   0.10
     WC   =   100.;   INIMIX=   1;  MIXPRE=   1;  MAXMIX= -45

 Intra band minimization:
   WEIMIN = 0.0000     energy-eigenvalue tresh-hold
   EBREAK =  0.78E-09  absolut break condition
   DEPER  =   0.30     relativ break condition  

   TIME   =   0.40     timestep for ELM

  volume/ion in A,a.u.               =    8575.00     57866.96
  Fermi-wavevector in a.u.,A,eV,Ry     =   0.122583  0.231649  0.204450  0.015027
  Thomas-Fermi vector in A             =   0.746568
 
 Write flags
   LWAVE        =      T    write WAVECAR
   LDOWNSAMPLE  =      F    k-point downsampling of WAVECAR
   LCHARG       =      T    write CHGCAR
   LVTOT        =      F    write LOCPOT, total local potential
   LVHAR        =      F    write LOCPOT, Hartree potential only
   LELF         =      F    write electronic localiz. function (ELF)
   LORBIT       =      0    0 simple, 1 ext, 2 COOP (PROOUT), +10 PAW based schemes


 Dipole corrections
   LMONO  =      F    monopole corrections only (constant potential shift)
   LDIPOL =      F    correct potential (dipole corrections)
   IDIPOL =      4    1-x, 2-y, 3-z, 4-all directions 
   EPSILON=  1.0000000 bulk dielectric constant

 Exchange correlation treatment:
   GGA     =    --    GGA type
   LEXCH   =     8    internal setting for exchange type
   VOSKOWN=      0    Vosko Wilk Nusair interpolation
   LHFCALC =     F    Hartree Fock is set to
   LHFONE  =     F    Hartree Fock one center treatment
   AEXX    =    0.0000 exact exchange contribution

 Linear response parameters
   LEPSILON=     F    determine dielectric tensor
   LRPA    =     F    only Hartree local field effects (RPA)
   LNABLA  =     F    use nabla operator in PAW spheres
   LVEL    =     F    velocity operator in full k-point grid
   LINTERFAST=   F  fast interpolation
   KINTER  =     0    interpolate to denser k-point grid
   CSHIFT  =0.1000    complex shift for real part using Kramers Kronig
   OMEGAMAX=  -1.0    maximum frequency
   DEG_THRESHOLD= 0.2000000E-02 threshold for treating states as degnerate
   RTIME   =   -0.100 relaxation time in fs
  (WPLASMAI=    0.000 imaginary part of plasma frequency in eV, 0.658/RTIME)
   DFIELD  = 0.0000000 0.0000000 0.0000000 field for delta impulse in time
 
 Orbital magnetization related:
   ORBITALMAG=     F  switch on orbital magnetization
   LCHIMAG   =     F  perturbation theory with respect to B field
   DQ        =  0.001000  dq finite difference perturbation B field
   LLRAUG    =     F  two centre corrections for induced B field



--------------------------------------------------------------------------------------------------------


 Static calculation
 charge density and potential will be updated during run
 non-spin polarized calculation
 Variant of blocked Davidson
 Davidson routine will perform the subspace rotation
 perform sub-space diagonalisation
    after iterative eigenvector-optimisation
 modified Broyden-mixing scheme, WC =      100.0
 initial mixing is a Kerker type mixing with AMIX =  0.4000 and BMIX =      1.0000
 Hartree-type preconditioning will be used
 using additional bands            23
 reciprocal scheme for non local part
 calculate Harris-corrections to forces 
   (improved forces if not selfconsistent)
 use gradient corrections 
 use of overlap-Matrix (Vanderbilt PP)
 Gauss-broadening in eV      SIGMA  =   0.01


--------------------------------------------------------------------------------------------------------


  energy-cutoff  :     1000.00
  volume of cell :    42875.00
      direct lattice vectors                 reciprocal lattice vectors
    35.000000000  0.000000000  0.000000000     0.028571429  0.000000000  0.000000000
     0.000000000 35.000000000  0.000000000     0.000000000  0.028571429  0.000000000
     0.000000000  0.000000000 35.000000000     0.000000000  0.000000000  0.028571429

  length of vectors
    35.000000000 35.000000000 35.000000000     0.028571429  0.028571429  0.028571429


 
 k-points in units of 2pi/SCALE and weight: g                                       
   0.00000000  0.00000000  0.00000000       1.000
 
 k-points in reciprocal lattice and weights: g                                       
   0.00000000  0.00000000  0.00000000       1.000
 
 position of ions in fractional coordinates (direct lattice) 
   0.00084868  0.13946793  0.97757108
   0.00039005  0.14152210  0.02084119
   0.00000000  0.00252160  0.00000000
   0.00000000  0.03506303  0.00000000
   0.00000000  0.12363446  0.00000000
 
 position of ions in cartesian coordinates  (Angst):
   0.02970387  4.88137746 34.21498793
   0.01365177  4.95327352  0.72944182
   0.00000000  0.08825600  0.00000000
   0.00000000  1.22720600  0.00000000
   0.00000000  4.32720600  0.00000000
 


--------------------------------------------------------------------------------------------------------


 use serial FFT for orbitals x direction half grid
 k-point   1 :   0.0000 0.0000 0.0000  plane waves: 1539209

 maximum and minimum number of plane-waves per node :   1539209  1539209

 maximum number of plane-waves:   1539209
 maximum index in each direction: 
   IXMAX=   90   IYMAX=   90   IZMAX=   90
   IXMIN=    0   IYMIN=  -90   IZMIN=  -90


 serial   3D FFT for wavefunctions
 parallel 3D FFT for charge:
    minimum data exchange during FFTs selected (reduces bandwidth)


 total amount of memory used by VASP MPI-rank0  4191804. kBytes
=======================================================================

   base      :      30000. kBytes
   nonl-proj :     418671. kBytes
   fftplans  :     676185. kBytes
   grid      :    3042313. kBytes
   one-center:          7. kBytes
   wavefun   :      24628. kBytes
 
     INWAV:  cpu time    0.0000: real time    0.0000
 Broyden mixing: mesh for mixing (old mesh)
   NGX =181   NGY =181   NGZ =181
  (NGX  =756   NGY  =756   NGZ  =756)
  gives a total of ****** points

 initial charge density was supplied:
 charge density of overlapping atoms calculated
 number of electron      18.0000000 magnetization 
 keeping initial charge density in first step


--------------------------------------------------------------------------------------------------------


 Maximum index for augmentation-charges          1124 (set IRDMAX)


--------------------------------------------------------------------------------------------------------


 First call to EWALD:  gamma=   0.051
 Maximum number of real-space cells 3x 3x 3
 Maximum number of reciprocal cells 3x 3x 3

    FEWALD:  cpu time    0.0008: real time    0.0008


--------------------------------------- Iteration      1(   1)  ---------------------------------------


    POTLOK:  cpu time   13.6930: real time   13.7148
    SETDIJ:  cpu time    0.0492: real time    0.0497
     EDDAV:  cpu time   17.8760: real time   17.9183
       DOS:  cpu time    0.0038: real time    0.0038
    --------------------------------------------
      LOOP:  cpu time   31.6220: real time   31.6865

 eigenvalue-minimisations  :   128
 total energy-change (2. order) : 0.9387510E+02  (-0.3600872E+03)
 number of electron      18.0000000 magnetization 
 augmentation part       18.0000000 magnetization 

 Free energy of the ion-electron system (eV)
  ---------------------------------------------------
  alpha Z        PSCENC =         0.02234163
  Ewald energy   TEWEN  =       622.60087333
  -Hartree energ DENC   =     -1434.52779050
  -exchange      EXHF   =         0.00000000
  -V(xc)+E(xc)   XCENC  =        71.86445062
  PAW double counting   =       802.92211551     -812.08006040
  entropy T*S    EENTRO =        -0.00000001
  eigenvalues    EBANDS =      -193.81611414
  atomic energy  EATOM  =      1036.88928565
  Solvation  Ediel_sol  =         0.00000000
  ---------------------------------------------------
  free energy    TOTEN  =        93.87510169 eV

  energy without entropy =       93.87510170  energy(sigma->0) =       93.87510170


--------------------------------------------------------------------------------------------------------




--------------------------------------- Iteration      1(   2)  ---------------------------------------


     EDDAV:  cpu time   14.3288: real time   14.3568
       DOS:  cpu time    0.0055: real time    0.0055
    --------------------------------------------
      LOOP:  cpu time   14.3343: real time   14.3623

 eigenvalue-minimisations  :    96
 total energy-change (2. order) :-0.1106248E+03  (-0.1106248E+03)
 number of electron      18.0000000 magnetization 
 augmentation part       18.0000000 magnetization 

 Free energy of the ion-electron system (eV)
  ---------------------------------------------------
  alpha Z        PSCENC =         0.02234163
  Ewald energy   TEWEN  =       622.60087333
  -Hartree energ DENC   =     -1434.52779050
  -exchange      EXHF   =         0.00000000
  -V(xc)+E(xc)   XCENC  =        71.86445062
  PAW double counting   =       802.92211551     -812.08006040
  entropy T*S    EENTRO =        -0.00000000
  eigenvalues    EBANDS =      -304.44088730
  atomic energy  EATOM  =      1036.88928565
  Solvation  Ediel_sol  =         0.00000000
  ---------------------------------------------------
  free energy    TOTEN  =       -16.74967145 eV

  energy without entropy =      -16.74967145  energy(sigma->0) =      -16.74967145


--------------------------------------------------------------------------------------------------------




--------------------------------------- Iteration      1(   3)  ---------------------------------------


     EDDAV:  cpu time   17.7915: real time   17.8261
       DOS:  cpu time    0.0036: real time    0.0036
    --------------------------------------------
      LOOP:  cpu time   17.7951: real time   17.8297

 eigenvalue-minimisations  :   128
 total energy-change (2. order) :-0.1421021E+02  (-0.1421021E+02)
 number of electron      18.0000000 magnetization 
 augmentation part       18.0000000 magnetization 

 Free energy of the ion-electron system (eV)
  ---------------------------------------------------
  alpha Z        PSCENC =         0.02234163
  Ewald energy   TEWEN  =       622.60087333
  -Hartree energ DENC   =     -1434.52779050
  -exchange      EXHF   =         0.00000000
  -V(xc)+E(xc)   XCENC  =        71.86445062
  PAW double counting   =       802.92211551     -812.08006040
  entropy T*S    EENTRO =        -0.00000000
  eigenvalues    EBANDS =      -318.65109678
  atomic energy  EATOM  =      1036.88928565
  Solvation  Ediel_sol  =         0.00000000
  ---------------------------------------------------
  free energy    TOTEN  =       -30.95988094 eV

  energy without entropy =      -30.95988094  energy(sigma->0) =      -30.95988094


--------------------------------------------------------------------------------------------------------




--------------------------------------- Iteration      1(   4)  ---------------------------------------


     EDDAV:  cpu time   14.2737: real time   14.3016
       DOS:  cpu time    0.0046: real time    0.0047
    --------------------------------------------
      LOOP:  cpu time   14.2783: real time   14.3062

 eigenvalue-minimisations  :    96
 total energy-change (2. order) :-0.8363128E-01  (-0.8363130E-01)
 number of electron      18.0000000 magnetization 
 augmentation part       18.0000000 magnetization 

 Free energy of the ion-electron system (eV)
  ---------------------------------------------------
  alpha Z        PSCENC =         0.02234163
  Ewald energy   TEWEN  =       622.60087333
  -Hartree energ DENC   =     -1434.52779050
  -exchange      EXHF   =         0.00000000
  -V(xc)+E(xc)   XCENC  =        71.86445062
  PAW double counting   =       802.92211551     -812.08006040
  entropy T*S    EENTRO =        -0.00000000
  eigenvalues    EBANDS =      -318.73472806
  atomic energy  EATOM  =      1036.88928565
  Solvation  Ediel_sol  =         0.00000000
  ---------------------------------------------------
  free energy    TOTEN  =       -31.04351222 eV

  energy without entropy =      -31.04351222  energy(sigma->0) =      -31.04351222


--------------------------------------------------------------------------------------------------------




--------------------------------------- Iteration      1(   5)  ---------------------------------------


     EDDAV:  cpu time   10.7359: real time   10.7568
       DOS:  cpu time    0.0028: real time    0.0028
    CHARGE:  cpu time    5.2699: real time    5.2778
    MIXING:  cpu time    0.2249: real time    0.2253
    --------------------------------------------
      LOOP:  cpu time   16.2335: real time   16.2628

 eigenvalue-minimisations  :    64
 total energy-change (2. order) :-0.3195435E-04  (-0.3196298E-04)
 number of electron      18.0000000 magnetization 
 augmentation part        3.0893722 magnetization 

 Broyden mixing:
  rms(total) = 0.42557E+01    rms(broyden)= 0.42557E+01
  rms(prec ) = 0.42627E+01
  weight for this iteration     100.00

 Free energy of the ion-electron system (eV)
  ---------------------------------------------------
  alpha Z        PSCENC =         0.02234163
  Ewald energy   TEWEN  =       622.60087333
  -Hartree energ DENC   =     -1434.52779050
  -exchange      EXHF   =         0.00000000
  -V(xc)+E(xc)   XCENC  =        71.86445062
  PAW double counting   =       802.92211551     -812.08006040
  entropy T*S    EENTRO =        -0.00000000
  eigenvalues    EBANDS =      -318.73476002
  atomic energy  EATOM  =      1036.88928565
  Solvation  Ediel_sol  =         0.00000000
  ---------------------------------------------------
  free energy    TOTEN  =       -31.04354417 eV

  energy without entropy =      -31.04354417  energy(sigma->0) =      -31.04354417


--------------------------------------------------------------------------------------------------------




--------------------------------------- Iteration      1(   6)  ---------------------------------------


    POTLOK:  cpu time   13.2857: real time   13.3075
    SETDIJ:  cpu time    0.0485: real time    0.0485
     EDDAV:  cpu time   14.2057: real time   14.2337
       DOS:  cpu time    0.0111: real time    0.0111
    CHARGE:  cpu time    5.3794: real time    5.3872
    MIXING:  cpu time    0.2864: real time    0.2909
    --------------------------------------------
      LOOP:  cpu time   33.2168: real time   33.2790

 eigenvalue-minimisations  :    96
 total energy-change (2. order) : 0.2621539E+01  (-0.1500559E+01)
 number of electron      18.0000000 magnetization 
 augmentation part        2.6848559 magnetization 

 Broyden mixing:
  rms(total) = 0.40711E+01    rms(broyden)= 0.40711E+01
  rms(prec ) = 0.40720E+01
  weight for this iteration     100.00

 eigenvalues of (default mixing * dielectric matrix)
  average eigenvalue GAMMA=   0.6868
  0.6868

 Free energy of the ion-electron system (eV)
  ---------------------------------------------------
  alpha Z        PSCENC =         0.02234163
  Ewald energy   TEWEN  =       622.60087333
  -Hartree energ DENC   =     -1472.64636374
  -exchange      EXHF   =         0.00000000
  -V(xc)+E(xc)   XCENC  =        73.97706089
  PAW double counting   =      1481.46866553    -1492.37847474
  entropy T*S    EENTRO =        -0.00000000
  eigenvalues    EBANDS =      -278.35539363
  atomic energy  EATOM  =      1036.88928565
  Solvation  Ediel_sol  =         0.00000000
  ---------------------------------------------------
  free energy    TOTEN  =       -28.42200507 eV

  energy without entropy =      -28.42200507  energy(sigma->0) =      -28.42200507


--------------------------------------------------------------------------------------------------------




--------------------------------------- Iteration      1(   7)  ---------------------------------------


    POTLOK:  cpu time   13.3260: real time   13.3476
    SETDIJ:  cpu time    0.0484: real time    0.0484
     EDDAV:  cpu time   17.8050: real time   17.8399
       DOS:  cpu time    0.0071: real time    0.0071
    CHARGE:  cpu time    5.1228: real time    5.1307
    MIXING:  cpu time    0.2908: real time    0.2919
    --------------------------------------------
      LOOP:  cpu time   36.6002: real time   36.6656

 eigenvalue-minimisations  :   128
 total energy-change (2. order) : 0.2048287E+00  (-0.5542890E-01)
 number of electron      18.0000000 magnetization 
 augmentation part        2.7073941 magnetization 

 Broyden mixing:
  rms(total) = 0.28101E+01    rms(broyden)= 0.28101E+01
  rms(prec ) = 0.28107E+01
  weight for this iteration     100.00

 eigenvalues of (default mixing * dielectric matrix)
  average eigenvalue GAMMA=   1.6396
  0.9411  2.3382

 Free energy of the ion-electron system (eV)
  ---------------------------------------------------
  alpha Z        PSCENC =         0.02234163
  Ewald energy   TEWEN  =       622.60087333
  -Hartree energ DENC   =     -1475.93836887
  -exchange      EXHF   =         0.00000000
  -V(xc)+E(xc)   XCENC  =        74.16016445
  PAW double counting   =      1989.82054721    -2000.55811814
  entropy T*S    EENTRO =        -0.00000000
  eigenvalues    EBANDS =      -275.21390166
  atomic energy  EATOM  =      1036.88928565
  Solvation  Ediel_sol  =         0.00000000
  ---------------------------------------------------
  free energy    TOTEN  =       -28.21717640 eV

  energy without entropy =      -28.21717640  energy(sigma->0) =      -28.21717640


--------------------------------------------------------------------------------------------------------




--------------------------------------- Iteration      1(   8)  ---------------------------------------


    POTLOK:  cpu time   13.3001: real time   13.3222
    SETDIJ:  cpu time    0.0484: real time    0.0485
     EDDAV:  cpu time   10.6613: real time   10.6824
       DOS:  cpu time    0.0125: real time    0.0125
    CHARGE:  cpu time    5.3388: real time    5.3468
    MIXING:  cpu time    0.2448: real time    0.2453
    --------------------------------------------
      LOOP:  cpu time   29.6059: real time   29.6576

 eigenvalue-minimisations  :    64
 total energy-change (2. order) : 0.1604745E+00  (-0.4942643E-01)
 number of electron      18.0000000 magnetization 
 augmentation part        2.6605267 magnetization 

 Broyden mixing:
  rms(total) = 0.46802E+00    rms(broyden)= 0.46802E+00
  rms(prec ) = 0.46917E+00
  weight for this iteration     100.00

 eigenvalues of (default mixing * dielectric matrix)
  average eigenvalue GAMMA=   1.3562
  2.5551  0.8940  0.6194

 Free energy of the ion-electron system (eV)
  ---------------------------------------------------
  alpha Z        PSCENC =         0.02234163
  Ewald energy   TEWEN  =       622.60087333
  -Hartree energ DENC   =     -1489.50759398
  -exchange      EXHF   =         0.00000000
  -V(xc)+E(xc)   XCENC  =        74.88624165
  PAW double counting   =      3595.13280493    -3605.85252454
  entropy T*S    EENTRO =        -0.00000000
  eigenvalues    EBANDS =      -262.22813053
  atomic energy  EATOM  =      1036.88928565
  Solvation  Ediel_sol  =         0.00000000
  ---------------------------------------------------
  free energy    TOTEN  =       -28.05670187 eV

  energy without entropy =      -28.05670187  energy(sigma->0) =      -28.05670187


--------------------------------------------------------------------------------------------------------




--------------------------------------- Iteration      1(   9)  ---------------------------------------


    POTLOK:  cpu time   13.3206: real time   13.3423
    SETDIJ:  cpu time    0.0485: real time    0.0485
     EDDAV:  cpu time   17.8304: real time   17.8666
       DOS:  cpu time    0.0200: real time    0.0200
    CHARGE:  cpu time    5.3961: real time    5.4038
    MIXING:  cpu time    0.2682: real time    0.2686
    --------------------------------------------
      LOOP:  cpu time   36.8837: real time   36.9499

 eigenvalue-minimisations  :   128
 total energy-change (2. order) : 0.3048448E-01  (-0.1962668E-01)
 number of electron      18.0000000 magnetization 
 augmentation part        2.6825073 magnetization 

 Broyden mixing:
  rms(total) = 0.17639E+00    rms(broyden)= 0.17639E+00
  rms(prec ) = 0.17684E+00
  weight for this iteration     100.00

 eigenvalues of (default mixing * dielectric matrix)
  average eigenvalue GAMMA=   1.4638
  2.4181  1.6750  0.6981  1.0638

 Free energy of the ion-electron system (eV)
  ---------------------------------------------------
  alpha Z        PSCENC =         0.02234163
  Ewald energy   TEWEN  =       622.60087333
  -Hartree energ DENC   =     -1489.41329778
  -exchange      EXHF   =         0.00000000
  -V(xc)+E(xc)   XCENC  =        74.86507867
  PAW double counting   =      3752.75137657    -3763.34527313
  entropy T*S    EENTRO =        -0.00000000
  eigenvalues    EBANDS =      -262.39660233
  atomic energy  EATOM  =      1036.88928565
  Solvation  Ediel_sol  =         0.00000000
  ---------------------------------------------------
  free energy    TOTEN  =       -28.02621738 eV

  energy without entropy =      -28.02621738  energy(sigma->0) =      -28.02621738


--------------------------------------------------------------------------------------------------------




--------------------------------------- Iteration      1(  10)  ---------------------------------------


    POTLOK:  cpu time   13.2684: real time   13.2929
    SETDIJ:  cpu time    0.0485: real time    0.0485
     EDDAV:  cpu time   10.7514: real time   10.7743
       DOS:  cpu time    0.0137: real time    0.0137
    CHARGE:  cpu time    5.1403: real time    5.1482
    MIXING:  cpu time    0.2576: real time    0.2581
    --------------------------------------------
      LOOP:  cpu time   29.4799: real time   29.5356

 eigenvalue-minimisations  :    64
 total energy-change (2. order) :-0.2075575E-02  (-0.1032107E-02)
 number of electron      18.0000000 magnetization 
 augmentation part        2.6888691 magnetization 

 Broyden mixing:
  rms(total) = 0.41000E-01    rms(broyden)= 0.41000E-01
  rms(prec ) = 0.41849E-01
  weight for this iteration     100.00

 eigenvalues of (default mixing * dielectric matrix)
  average eigenvalue GAMMA=   1.5030
  2.5601  1.6766  1.6125  0.7037  0.9621

 Free energy of the ion-electron system (eV)
  ---------------------------------------------------
  alpha Z        PSCENC =         0.02234163
  Ewald energy   TEWEN  =       622.60087333
  -Hartree energ DENC   =     -1489.70390479
  -exchange      EXHF   =         0.00000000
  -V(xc)+E(xc)   XCENC  =        74.82194948
  PAW double counting   =      3710.38871615    -3720.91782483
  entropy T*S    EENTRO =        -0.00000000
  eigenvalues    EBANDS =      -262.12972958
  atomic energy  EATOM  =      1036.88928565
  Solvation  Ediel_sol  =         0.00000000
  ---------------------------------------------------
  free energy    TOTEN  =       -28.02829296 eV

  energy without entropy =      -28.02829296  energy(sigma->0) =      -28.02829296


--------------------------------------------------------------------------------------------------------




--------------------------------------- Iteration      1(  11)  ---------------------------------------


    POTLOK:  cpu time   13.3642: real time   13.3868
    SETDIJ:  cpu time    0.0484: real time    0.0485
     EDDAV:  cpu time   14.1455: real time   14.1736
       DOS:  cpu time    0.0029: real time    0.0029
    CHARGE:  cpu time    5.1044: real time    5.1121
    MIXING:  cpu time    0.3139: real time    0.3144
    --------------------------------------------
      LOOP:  cpu time   32.9794: real time   33.0383

 eigenvalue-minimisations  :    96
 total energy-change (2. order) :-0.2224650E-02  (-0.1412391E-03)
 number of electron      18.0000000 magnetization 
 augmentation part        2.6869202 magnetization 

 Broyden mixing:
  rms(total) = 0.18942E-01    rms(broyden)= 0.18942E-01
  rms(prec ) = 0.19909E-01
  weight for this iteration     100.00

 eigenvalues of (default mixing * dielectric matrix)
  average eigenvalue GAMMA=   1.5912
  2.5355  2.5355  1.6763  0.7077  1.1089  0.9830

 Free energy of the ion-electron system (eV)
  ---------------------------------------------------
  alpha Z        PSCENC =         0.02234163
  Ewald energy   TEWEN  =       622.60087333
  -Hartree energ DENC   =     -1490.66703112
  -exchange      EXHF   =         0.00000000
  -V(xc)+E(xc)   XCENC  =        74.84025918
  PAW double counting   =      3721.41951350    -3731.93734705
  entropy T*S    EENTRO =        -0.00000000
  eigenvalues    EBANDS =      -261.19841272
  atomic energy  EATOM  =      1036.88928565
  Solvation  Ediel_sol  =         0.00000000
  ---------------------------------------------------
  free energy    TOTEN  =       -28.03051761 eV

  energy without entropy =      -28.03051761  energy(sigma->0) =      -28.03051761


--------------------------------------------------------------------------------------------------------




--------------------------------------- Iteration      1(  12)  ---------------------------------------


    POTLOK:  cpu time   13.3066: real time   13.3287
    SETDIJ:  cpu time    0.0485: real time    0.0485
     EDDAV:  cpu time   10.7785: real time   10.7999
       DOS:  cpu time    0.0055: real time    0.0055
    CHARGE:  cpu time    5.6245: real time    5.6329
    MIXING:  cpu time    0.2832: real time    0.2838
    --------------------------------------------
      LOOP:  cpu time   30.0468: real time   30.0992

 eigenvalue-minimisations  :    64
 total energy-change (2. order) :-0.3057733E-02  (-0.6501512E-04)
 number of electron      18.0000000 magnetization 
 augmentation part        2.6871191 magnetization 

 Broyden mixing:
  rms(total) = 0.61218E-02    rms(broyden)= 0.61218E-02
  rms(prec ) = 0.74949E-02
  weight for this iteration     100.00

 eigenvalues of (default mixing * dielectric matrix)
  average eigenvalue GAMMA=   1.6727
  2.7514  2.7514  2.0881  0.7080  0.9274  1.1004  1.3823

 Free energy of the ion-electron system (eV)
  ---------------------------------------------------
  alpha Z        PSCENC =         0.02234163
  Ewald energy   TEWEN  =       622.60087333
  -Hartree energ DENC   =     -1491.39979472
  -exchange      EXHF   =         0.00000000
  -V(xc)+E(xc)   XCENC  =        74.84736416
  PAW double counting   =      3715.58054558    -3726.08660594
  entropy T*S    EENTRO =        -0.00000000
  eigenvalues    EBANDS =      -260.48758503
  atomic energy  EATOM  =      1036.88928565
  Solvation  Ediel_sol  =         0.00000000
  ---------------------------------------------------
  free energy    TOTEN  =       -28.03357534 eV

  energy without entropy =      -28.03357534  energy(sigma->0) =      -28.03357534


--------------------------------------------------------------------------------------------------------




--------------------------------------- Iteration      1(  13)  ---------------------------------------


    POTLOK:  cpu time   13.3638: real time   13.3874
    SETDIJ:  cpu time    0.0485: real time    0.0485
     EDDAV:  cpu time   14.2200: real time   14.2483
       DOS:  cpu time    0.0064: real time    0.0064
    CHARGE:  cpu time    5.0904: real time    5.0981
    MIXING:  cpu time    0.3388: real time    0.3395
    --------------------------------------------
      LOOP:  cpu time   33.0679: real time   33.1283

 eigenvalue-minimisations  :    96
 total energy-change (2. order) :-0.3413562E-02  (-0.6068682E-04)
 number of electron      18.0000000 magnetization 
 augmentation part        2.6863954 magnetization 

 Broyden mixing:
  rms(total) = 0.44501E-02    rms(broyden)= 0.44501E-02
  rms(prec ) = 0.52823E-02
  weight for this iteration     100.00

 eigenvalues of (default mixing * dielectric matrix)
  average eigenvalue GAMMA=   1.7771
  4.1412  2.6151  2.1648  1.6619  0.7072  1.0262  1.0262  0.8742

 Free energy of the ion-electron system (eV)
  ---------------------------------------------------
  alpha Z        PSCENC =         0.02234163
  Ewald energy   TEWEN  =       622.60087333
  -Hartree energ DENC   =     -1492.07379068
  -exchange      EXHF   =         0.00000000
  -V(xc)+E(xc)   XCENC  =        74.85543206
  PAW double counting   =      3711.99801984    -3722.50215692
  entropy T*S    EENTRO =        -0.00000000
  eigenvalues    EBANDS =      -259.82699381
  atomic energy  EATOM  =      1036.88928565
  Solvation  Ediel_sol  =         0.00000000
  ---------------------------------------------------
  free energy    TOTEN  =       -28.03698890 eV

  energy without entropy =      -28.03698890  energy(sigma->0) =      -28.03698890


--------------------------------------------------------------------------------------------------------




--------------------------------------- Iteration      1(  14)  ---------------------------------------


    POTLOK:  cpu time   13.3179: real time   13.3400
    SETDIJ:  cpu time    0.0484: real time    0.0485
     EDDAV:  cpu time   10.7200: real time   10.7408
       DOS:  cpu time    0.0002: real time    0.0002
    CHARGE:  cpu time    5.5840: real time    5.5921
    MIXING:  cpu time    0.2961: real time    0.2966
    --------------------------------------------
      LOOP:  cpu time   29.9667: real time   30.0182

 eigenvalue-minimisations  :    64
 total energy-change (2. order) :-0.2771319E-02  (-0.3405835E-04)
 number of electron      18.0000000 magnetization 
 augmentation part        2.6863309 magnetization 

 Broyden mixing:
  rms(total) = 0.20665E-02    rms(broyden)= 0.20665E-02
  rms(prec ) = 0.26724E-02
  weight for this iteration     100.00

 eigenvalues of (default mixing * dielectric matrix)
  average eigenvalue GAMMA=   1.8640
  4.9172  2.6670  2.4153  1.8861  1.3399  1.0614  0.9759  0.7075  0.8058

 Free energy of the ion-electron system (eV)
  ---------------------------------------------------
  alpha Z        PSCENC =         0.02234163
  Ewald energy   TEWEN  =       622.60087333
  -Hartree energ DENC   =     -1492.57600074
  -exchange      EXHF   =         0.00000000
  -V(xc)+E(xc)   XCENC  =        74.85851080
  PAW double counting   =      3711.32549928    -3721.82551657
  entropy T*S    EENTRO =        -0.00000000
  eigenvalues    EBANDS =      -259.33475360
  atomic energy  EATOM  =      1036.88928565
  Solvation  Ediel_sol  =         0.00000000
  ---------------------------------------------------
  free energy    TOTEN  =       -28.03976022 eV

  energy without entropy =      -28.03976022  energy(sigma->0) =      -28.03976022


--------------------------------------------------------------------------------------------------------




--------------------------------------- Iteration      1(  15)  ---------------------------------------


    POTLOK:  cpu time   13.3451: real time   13.3702
    SETDIJ:  cpu time    0.0485: real time    0.0485
     EDDAV:  cpu time   17.6573: real time   17.6946
       DOS:  cpu time    0.0065: real time    0.0065
    CHARGE:  cpu time    5.5250: real time    5.5335
    MIXING:  cpu time    0.3082: real time    0.3088
    --------------------------------------------
      LOOP:  cpu time   36.8906: real time   36.9621

 eigenvalue-minimisations  :   128
 total energy-change (2. order) :-0.2219696E-02  (-0.1925446E-04)
 number of electron      18.0000000 magnetization 
 augmentation part        2.6860663 magnetization 

 Broyden mixing:
  rms(total) = 0.12874E-02    rms(broyden)= 0.12874E-02
  rms(prec ) = 0.16341E-02
  weight for this iteration     100.00

 eigenvalues of (default mixing * dielectric matrix)
  average eigenvalue GAMMA=   1.8791
  5.2442  2.9152  2.2287  1.8783  1.7222  0.7074  1.2469  1.0048  1.0048  0.8382

 Free energy of the ion-electron system (eV)
  ---------------------------------------------------
  alpha Z        PSCENC =         0.02234163
  Ewald energy   TEWEN  =       622.60087333
  -Hartree energ DENC   =     -1492.84214220
  -exchange      EXHF   =         0.00000000
  -V(xc)+E(xc)   XCENC  =        74.85885646
  PAW double counting   =      3711.49745905    -3721.99676549
  entropy T*S    EENTRO =        -0.00000000
  eigenvalues    EBANDS =      -259.07188835
  atomic energy  EATOM  =      1036.88928565
  Solvation  Ediel_sol  =         0.00000000
  ---------------------------------------------------
  free energy    TOTEN  =       -28.04197992 eV

  energy without entropy =      -28.04197992  energy(sigma->0) =      -28.04197992


--------------------------------------------------------------------------------------------------------




--------------------------------------- Iteration      1(  16)  ---------------------------------------


    POTLOK:  cpu time   13.3399: real time   13.3618
    SETDIJ:  cpu time    0.0485: real time    0.0485
     EDDAV:  cpu time   10.9081: real time   10.9288
       DOS:  cpu time    0.0143: real time    0.0143
    CHARGE:  cpu time    5.4491: real time    5.4569
    MIXING:  cpu time    0.3243: real time    0.3249
    --------------------------------------------
      LOOP:  cpu time   30.0843: real time   30.1353

 eigenvalue-minimisations  :    64
 total energy-change (2. order) :-0.1555304E-02  (-0.9556916E-05)
 number of electron      18.0000000 magnetization 
 augmentation part        2.6861451 magnetization 

 Broyden mixing:
  rms(total) = 0.89225E-03    rms(broyden)= 0.89225E-03
  rms(prec ) = 0.10544E-02
  weight for this iteration     100.00

 eigenvalues of (default mixing * dielectric matrix)
  average eigenvalue GAMMA=   2.0657
  7.0120  2.8859  2.7775  2.0994  2.0994  1.3181  0.7076  1.1048  0.9514  0.9514
  0.8149

 Free energy of the ion-electron system (eV)
  ---------------------------------------------------
  alpha Z        PSCENC =         0.02234163
  Ewald energy   TEWEN  =       622.60087333
  -Hartree energ DENC   =     -1492.95986215
  -exchange      EXHF   =         0.00000000
  -V(xc)+E(xc)   XCENC  =        74.85722780
  PAW double counting   =      3710.20685963    -3720.70542013
  entropy T*S    EENTRO =        -0.00000000
  eigenvalues    EBANDS =      -258.95484098
  atomic energy  EATOM  =      1036.88928565
  Solvation  Ediel_sol  =         0.00000000
  ---------------------------------------------------
  free energy    TOTEN  =       -28.04353522 eV

  energy without entropy =      -28.04353522  energy(sigma->0) =      -28.04353522


--------------------------------------------------------------------------------------------------------




--------------------------------------- Iteration      1(  17)  ---------------------------------------


    POTLOK:  cpu time   13.3288: real time   13.3507
    SETDIJ:  cpu time    0.0484: real time    0.0484
     EDDAV:  cpu time   17.7406: real time   17.7765
       DOS:  cpu time    0.0048: real time    0.0048
    CHARGE:  cpu time    5.3665: real time    5.3742
    MIXING:  cpu time    0.3322: real time    0.3328
    --------------------------------------------
      LOOP:  cpu time   36.8214: real time   36.8875

 eigenvalue-minimisations  :   128
 total energy-change (2. order) :-0.7508519E-03  (-0.5408309E-05)
 number of electron      18.0000000 magnetization 
 augmentation part        2.6859643 magnetization 

 Broyden mixing:
  rms(total) = 0.49871E-03    rms(broyden)= 0.49871E-03
  rms(prec ) = 0.58434E-03
  weight for this iteration     100.00

 eigenvalues of (default mixing * dielectric matrix)
  average eigenvalue GAMMA=   2.0341
  7.5215  3.2687  2.4950  1.9802  1.9802  1.3651  1.3651  1.0350  1.0350  0.8946
  0.7077  0.7608

 Free energy of the ion-electron system (eV)
  ---------------------------------------------------
  alpha Z        PSCENC =         0.02234163
  Ewald energy   TEWEN  =       622.60087333
  -Hartree energ DENC   =     -1493.07009703
  -exchange      EXHF   =         0.00000000
  -V(xc)+E(xc)   XCENC  =        74.85771545
  PAW double counting   =      3710.44317184    -3720.94173211
  entropy T*S    EENTRO =        -0.00000000
  eigenvalues    EBANDS =      -258.84584483
  atomic energy  EATOM  =      1036.88928565
  Solvation  Ediel_sol  =         0.00000000
  ---------------------------------------------------
  free energy    TOTEN  =       -28.04428607 eV

  energy without entropy =      -28.04428607  energy(sigma->0) =      -28.04428607


--------------------------------------------------------------------------------------------------------




--------------------------------------- Iteration      1(  18)  ---------------------------------------


    POTLOK:  cpu time   13.3538: real time   13.3753
    SETDIJ:  cpu time    0.0484: real time    0.0485
     EDDAV:  cpu time   10.6791: real time   10.7000
       DOS:  cpu time    0.0071: real time    0.0071
    CHARGE:  cpu time    5.4488: real time    5.4566
    MIXING:  cpu time    0.3561: real time    0.3568
    --------------------------------------------
      LOOP:  cpu time   29.8933: real time   29.9443

 eigenvalue-minimisations  :    64
 total energy-change (2. order) :-0.2660265E-03  (-0.5147998E-06)
 number of electron      18.0000000 magnetization 
 augmentation part        2.6859671 magnetization 

 Broyden mixing:
  rms(total) = 0.40143E-03    rms(broyden)= 0.40143E-03
  rms(prec ) = 0.46064E-03
  weight for this iteration     100.00

 eigenvalues of (default mixing * dielectric matrix)
  average eigenvalue GAMMA=   2.2194
  8.2703  4.6391  2.6192  2.6192  2.1339  1.8634  1.1919  1.1919  0.7076  0.9723
  0.9723  0.8864  0.7851

 Free energy of the ion-electron system (eV)
  ---------------------------------------------------
  alpha Z        PSCENC =         0.02234163
  Ewald energy   TEWEN  =       622.60087333
  -Hartree energ DENC   =     -1493.07406115
  -exchange      EXHF   =         0.00000000
  -V(xc)+E(xc)   XCENC  =        74.85697203
  PAW double counting   =      3710.18659366    -3720.68517734
  entropy T*S    EENTRO =        -0.00000000
  eigenvalues    EBANDS =      -258.84137990
  atomic energy  EATOM  =      1036.88928565
  Solvation  Ediel_sol  =         0.00000000
  ---------------------------------------------------
  free energy    TOTEN  =       -28.04455210 eV

  energy without entropy =      -28.04455210  energy(sigma->0) =      -28.04455210


--------------------------------------------------------------------------------------------------------




--------------------------------------- Iteration      1(  19)  ---------------------------------------


    POTLOK:  cpu time   13.3589: real time   13.3810
    SETDIJ:  cpu time    0.0485: real time    0.0485
     EDDAV:  cpu time   17.7781: real time   17.8129
       DOS:  cpu time    0.0094: real time    0.0094
    CHARGE:  cpu time    5.0817: real time    5.0894
    MIXING:  cpu time    0.3602: real time    0.3609
    --------------------------------------------
      LOOP:  cpu time   36.6368: real time   36.7020

 eigenvalue-minimisations  :   128
 total energy-change (2. order) :-0.4268600E-03  (-0.3008888E-05)
 number of electron      18.0000000 magnetization 
 augmentation part        2.6859955 magnetization 

 Broyden mixing:
  rms(total) = 0.15944E-03    rms(broyden)= 0.15944E-03
  rms(prec ) = 0.18217E-03
  weight for this iteration     100.00

 eigenvalues of (default mixing * dielectric matrix)
  average eigenvalue GAMMA=   2.1520
  8.3186  4.8457  2.7151  2.7151  2.1098  1.9036  1.1507  1.1507  0.7076  0.9769
  0.9769  0.8005  0.8784  0.8784

 Free energy of the ion-electron system (eV)
  ---------------------------------------------------
  alpha Z        PSCENC =         0.02234163
  Ewald energy   TEWEN  =       622.60087333
  -Hartree energ DENC   =     -1493.06101743
  -exchange      EXHF   =         0.00000000
  -V(xc)+E(xc)   XCENC  =        74.85573140
  PAW double counting   =      3710.26697890    -3720.76552764
  entropy T*S    EENTRO =        -0.00000000
  eigenvalues    EBANDS =      -258.85364481
  atomic energy  EATOM  =      1036.88928565
  Solvation  Ediel_sol  =         0.00000000
  ---------------------------------------------------
  free energy    TOTEN  =       -28.04497896 eV

  energy without entropy =      -28.04497896  energy(sigma->0) =      -28.04497896


--------------------------------------------------------------------------------------------------------




--------------------------------------- Iteration      1(  20)  ---------------------------------------


    POTLOK:  cpu time   13.2631: real time   13.2852
    SETDIJ:  cpu time    0.0485: real time    0.0485
     EDDAV:  cpu time   17.8679: real time   17.9058
       DOS:  cpu time    0.0058: real time    0.0058
    CHARGE:  cpu time    5.1797: real time    5.1873
    MIXING:  cpu time    0.4131: real time    0.4138
    --------------------------------------------
      LOOP:  cpu time   36.7781: real time   36.8465

 eigenvalue-minimisations  :   128
 total energy-change (2. order) :-0.5582020E-04  (-0.5039345E-07)
 number of electron      18.0000000 magnetization 
 augmentation part        2.6860043 magnetization 

 Broyden mixing:
  rms(total) = 0.96698E-04    rms(broyden)= 0.96698E-04
  rms(prec ) = 0.11769E-03
  weight for this iteration     100.00

 eigenvalues of (default mixing * dielectric matrix)
  average eigenvalue GAMMA=   2.1892
  8.8313  4.8578  3.2952  2.4693  2.4693  1.7205  1.4321  1.4321  0.7076  1.0645
  1.0004  0.9558  0.7805  0.9107  0.9107

 Free energy of the ion-electron system (eV)
  ---------------------------------------------------
  alpha Z        PSCENC =         0.02234163
  Ewald energy   TEWEN  =       622.60087333
  -Hartree energ DENC   =     -1493.06029830
  -exchange      EXHF   =         0.00000000
  -V(xc)+E(xc)   XCENC  =        74.85559789
  PAW double counting   =      3710.25392050    -3720.75244864
  entropy T*S    EENTRO =        -0.00000000
  eigenvalues    EBANDS =      -258.85430683
  atomic energy  EATOM  =      1036.88928565
  Solvation  Ediel_sol  =         0.00000000
  ---------------------------------------------------
  free energy    TOTEN  =       -28.04503478 eV

  energy without entropy =      -28.04503478  energy(sigma->0) =      -28.04503478


--------------------------------------------------------------------------------------------------------




--------------------------------------- Iteration      1(  21)  ---------------------------------------


    POTLOK:  cpu time   13.3359: real time   13.3579
    SETDIJ:  cpu time    0.0485: real time    0.0485
     EDDAV:  cpu time   17.7100: real time   17.7462
       DOS:  cpu time    0.0022: real time    0.0022
    CHARGE:  cpu time    5.5783: real time    5.5863
    MIXING:  cpu time    0.3907: real time    0.3916
    --------------------------------------------
      LOOP:  cpu time   37.0655: real time   37.1326

 eigenvalue-minimisations  :   128
 total energy-change (2. order) :-0.7593204E-04  (-0.7664167E-07)
 number of electron      18.0000000 magnetization 
 augmentation part        2.6860095 magnetization 

 Broyden mixing:
  rms(total) = 0.10818E-03    rms(broyden)= 0.10818E-03
  rms(prec ) = 0.11354E-03
  weight for this iteration     100.00

 eigenvalues of (default mixing * dielectric matrix)
  average eigenvalue GAMMA=   2.2472
  8.9790  5.7701  3.5818  2.5750  2.5750  2.0811  1.8639  1.1337  1.1337  0.7076
  0.9576  0.9576  0.9869  0.9869  0.7927  0.8723

 Free energy of the ion-electron system (eV)
  ---------------------------------------------------
  alpha Z        PSCENC =         0.02234163
  Ewald energy   TEWEN  =       622.60087333
  -Hartree energ DENC   =     -1493.06531248
  -exchange      EXHF   =         0.00000000
  -V(xc)+E(xc)   XCENC  =        74.85557706
  PAW double counting   =      3710.27527117    -3720.77380829
  entropy T*S    EENTRO =        -0.00000000
  eigenvalues    EBANDS =      -258.84933878
  atomic energy  EATOM  =      1036.88928565
  Solvation  Ediel_sol  =         0.00000000
  ---------------------------------------------------
  free energy    TOTEN  =       -28.04511071 eV

  energy without entropy =      -28.04511071  energy(sigma->0) =      -28.04511071


--------------------------------------------------------------------------------------------------------




--------------------------------------- Iteration      1(  22)  ---------------------------------------


    POTLOK:  cpu time   13.2955: real time   13.3171
    SETDIJ:  cpu time    0.0485: real time    0.0485
     EDDAV:  cpu time   17.8578: real time   17.8938
       DOS:  cpu time    0.0059: real time    0.0059
    CHARGE:  cpu time    5.1689: real time    5.1766
    MIXING:  cpu time    0.4707: real time    0.4715
    --------------------------------------------
      LOOP:  cpu time   36.8474: real time   36.9136

 eigenvalue-minimisations  :   128
 total energy-change (2. order) :-0.2927416E-04  (-0.2726306E-07)
 number of electron      18.0000000 magnetization 
 augmentation part        2.6859987 magnetization 

 Broyden mixing:
  rms(total) = 0.61834E-04    rms(broyden)= 0.61834E-04
  rms(prec ) = 0.64749E-04
  weight for this iteration     100.00

 eigenvalues of (default mixing * dielectric matrix)
  average eigenvalue GAMMA=   2.2947
  9.1851  6.1627  4.0606  2.8530  2.4266  2.4266  1.7511  1.3211  1.3211  1.2533
  0.7076  1.0121  1.0121  0.7928  0.9217  0.9013  0.9013

 Free energy of the ion-electron system (eV)
  ---------------------------------------------------
  alpha Z        PSCENC =         0.02234163
  Ewald energy   TEWEN  =       622.60087333
  -Hartree energ DENC   =     -1493.06534440
  -exchange      EXHF   =         0.00000000
  -V(xc)+E(xc)   XCENC  =        74.85555788
  PAW double counting   =      3710.28278472    -3720.78138618
  entropy T*S    EENTRO =        -0.00000000
  eigenvalues    EBANDS =      -258.84925262
  atomic energy  EATOM  =      1036.88928565
  Solvation  Ediel_sol  =         0.00000000
  ---------------------------------------------------
  free energy    TOTEN  =       -28.04513999 eV

  energy without entropy =      -28.04513999  energy(sigma->0) =      -28.04513999


--------------------------------------------------------------------------------------------------------




--------------------------------------- Iteration      1(  23)  ---------------------------------------


    POTLOK:  cpu time   13.3117: real time   13.3345
    SETDIJ:  cpu time    0.0485: real time    0.0485
     EDDAV:  cpu time   17.7839: real time   17.8203
       DOS:  cpu time    0.0013: real time    0.0013
    CHARGE:  cpu time    5.3701: real time    5.3775
    MIXING:  cpu time    0.4327: real time    0.4335
    --------------------------------------------
      LOOP:  cpu time   36.9482: real time   37.0157

 eigenvalue-minimisations  :   128
 total energy-change (2. order) :-0.1584245E-04  (-0.8461651E-08)
 number of electron      18.0000000 magnetization 
 augmentation part        2.6860023 magnetization 

 Broyden mixing:
  rms(total) = 0.28434E-04    rms(broyden)= 0.28434E-04
  rms(prec ) = 0.30202E-04
  weight for this iteration     100.00

 eigenvalues of (default mixing * dielectric matrix)
  average eigenvalue GAMMA=   2.3033
  9.3720  6.4173  4.4257  2.9360  2.4432  2.4432  2.0997  1.7731  1.1637  1.1637
  1.1107  0.7076  0.9128  0.9128  0.9544  0.9544  0.7923  0.8777

 Free energy of the ion-electron system (eV)
  ---------------------------------------------------
  alpha Z        PSCENC =         0.02234163
  Ewald energy   TEWEN  =       622.60087333
  -Hartree energ DENC   =     -1493.06550369
  -exchange      EXHF   =         0.00000000
  -V(xc)+E(xc)   XCENC  =        74.85552177
  PAW double counting   =      3710.26514892    -3720.76372064
  entropy T*S    EENTRO =        -0.00000000
  eigenvalues    EBANDS =      -258.84910279
  atomic energy  EATOM  =      1036.88928565
  Solvation  Ediel_sol  =         0.00000000
  ---------------------------------------------------
  free energy    TOTEN  =       -28.04515583 eV

  energy without entropy =      -28.04515583  energy(sigma->0) =      -28.04515583


--------------------------------------------------------------------------------------------------------




--------------------------------------- Iteration      1(  24)  ---------------------------------------


    POTLOK:  cpu time   13.2797: real time   13.3018
    SETDIJ:  cpu time    0.0485: real time    0.0486
     EDDAV:  cpu time   17.8215: real time   17.8566
       DOS:  cpu time    0.0076: real time    0.0076
    CHARGE:  cpu time    5.3093: real time    5.3165
    MIXING:  cpu time    0.4494: real time    0.4502
    --------------------------------------------
      LOOP:  cpu time   36.9161: real time   36.9813

 eigenvalue-minimisations  :   128
 total energy-change (2. order) :-0.5969127E-05  (-0.3081745E-08)
 number of electron      18.0000000 magnetization 
 augmentation part        2.6859984 magnetization 

 Broyden mixing:
  rms(total) = 0.14037E-04    rms(broyden)= 0.14037E-04
  rms(prec ) = 0.15298E-04
  weight for this iteration     100.00

 eigenvalues of (default mixing * dielectric matrix)
  average eigenvalue GAMMA=   2.3530
  9.4912  6.7543  4.8607  3.4020  2.5105  2.5105  2.3460  1.7634  1.3303  1.3303
  1.1295  1.1295  0.7076  0.9740  0.9740  0.9222  0.9222  0.7981  0.8507

 Free energy of the ion-electron system (eV)
  ---------------------------------------------------
  alpha Z        PSCENC =         0.02234163
  Ewald energy   TEWEN  =       622.60087333
  -Hartree energ DENC   =     -1493.06654724
  -exchange      EXHF   =         0.00000000
  -V(xc)+E(xc)   XCENC  =        74.85555372
  PAW double counting   =      3710.28013471    -3720.77871240
  entropy T*S    EENTRO =        -0.00000000
  eigenvalues    EBANDS =      -258.84809119
  atomic energy  EATOM  =      1036.88928565
  Solvation  Ediel_sol  =         0.00000000
  ---------------------------------------------------
  free energy    TOTEN  =       -28.04516180 eV

  energy without entropy =      -28.04516180  energy(sigma->0) =      -28.04516180


--------------------------------------------------------------------------------------------------------




--------------------------------------- Iteration      1(  25)  ---------------------------------------


    POTLOK:  cpu time   13.3200: real time   13.3441
    SETDIJ:  cpu time    0.0518: real time    0.0519
     EDDAV:  cpu time   17.8060: real time   17.8421
       DOS:  cpu time    0.0020: real time    0.0020
    CHARGE:  cpu time    5.2010: real time    5.2082
    MIXING:  cpu time    0.4938: real time    0.4948
    --------------------------------------------
      LOOP:  cpu time   36.8747: real time   36.9430

 eigenvalue-minimisations  :   128
 total energy-change (2. order) :-0.4018736E-05  (-0.3046893E-08)
 number of electron      18.0000000 magnetization 
 augmentation part        2.6859973 magnetization 

 Broyden mixing:
  rms(total) = 0.79593E-05    rms(broyden)= 0.79593E-05
  rms(prec ) = 0.85763E-05
  weight for this iteration     100.00

 eigenvalues of (default mixing * dielectric matrix)
  average eigenvalue GAMMA=   2.3933
  9.6107  7.0111  5.2745  3.7968  2.8849  2.4038  2.4038  2.1454  1.7190  1.1912
  1.1912  0.7076  1.0957  0.9472  0.9472  0.9979  0.7954  0.9220  0.9220  0.8994

 Free energy of the ion-electron system (eV)
  ---------------------------------------------------
  alpha Z        PSCENC =         0.02234163
  Ewald energy   TEWEN  =       622.60087333
  -Hartree energ DENC   =     -1493.06678861
  -exchange      EXHF   =         0.00000000
  -V(xc)+E(xc)   XCENC  =        74.85556054
  PAW double counting   =      3710.28262443    -3720.78120508
  entropy T*S    EENTRO =        -0.00000000
  eigenvalues    EBANDS =      -258.84785770
  atomic energy  EATOM  =      1036.88928565
  Solvation  Ediel_sol  =         0.00000000
  ---------------------------------------------------
  free energy    TOTEN  =       -28.04516582 eV

  energy without entropy =      -28.04516582  energy(sigma->0) =      -28.04516582


--------------------------------------------------------------------------------------------------------




--------------------------------------- Iteration      1(  26)  ---------------------------------------


    POTLOK:  cpu time   13.3029: real time   13.3252
    SETDIJ:  cpu time    0.0485: real time    0.0485
     EDDAV:  cpu time   17.8113: real time   17.8473
       DOS:  cpu time    0.0066: real time    0.0066
    CHARGE:  cpu time    5.4942: real time    5.5022
    MIXING:  cpu time    0.4860: real time    0.4870
    --------------------------------------------
      LOOP:  cpu time   37.1495: real time   37.2168

 eigenvalue-minimisations  :   128
 total energy-change (2. order) :-0.1468627E-05  (-0.2007400E-08)
 number of electron      18.0000000 magnetization 
 augmentation part        2.6859996 magnetization 

 Broyden mixing:
  rms(total) = 0.66276E-05    rms(broyden)= 0.66276E-05
  rms(prec ) = 0.68109E-05
  weight for this iteration     100.00

 eigenvalues of (default mixing * dielectric matrix)
  average eigenvalue GAMMA=   2.3611
  9.6029  7.1661  5.3073  3.9007  2.8240  2.4358  2.4358  1.9440  1.7449  1.3716
  1.3716  1.1492  1.1492  0.7076  0.9456  0.9456  0.9844  0.9541  0.9541  0.7945
  0.8938

 Free energy of the ion-electron system (eV)
  ---------------------------------------------------
  alpha Z        PSCENC =         0.02234163
  Ewald energy   TEWEN  =       622.60087333
  -Hartree energ DENC   =     -1493.06650455
  -exchange      EXHF   =         0.00000000
  -V(xc)+E(xc)   XCENC  =        74.85554363
  PAW double counting   =      3710.27546435    -3720.77403809
  entropy T*S    EENTRO =        -0.00000000
  eigenvalues    EBANDS =      -258.84813323
  atomic energy  EATOM  =      1036.88928565
  Solvation  Ediel_sol  =         0.00000000
  ---------------------------------------------------
  free energy    TOTEN  =       -28.04516729 eV

  energy without entropy =      -28.04516729  energy(sigma->0) =      -28.04516729


--------------------------------------------------------------------------------------------------------




--------------------------------------- Iteration      1(  27)  ---------------------------------------


    POTLOK:  cpu time   13.2841: real time   13.3067
    SETDIJ:  cpu time    0.0485: real time    0.0486
     EDDAV:  cpu time   17.7272: real time   17.7650
       DOS:  cpu time    0.0047: real time    0.0047
    CHARGE:  cpu time    5.2932: real time    5.3005
    MIXING:  cpu time    0.5056: real time    0.5066
    --------------------------------------------
      LOOP:  cpu time   36.8634: real time   36.9321

 eigenvalue-minimisations  :   128
 total energy-change (2. order) :-0.4700955E-06  (-0.1561304E-08)
 number of electron      18.0000000 magnetization 
 augmentation part        2.6859993 magnetization 

 Broyden mixing:
  rms(total) = 0.17090E-05    rms(broyden)= 0.17090E-05
  rms(prec ) = 0.19874E-05
  weight for this iteration     100.00

 eigenvalues of (default mixing * dielectric matrix)
  average eigenvalue GAMMA=   2.4266
  9.6185  7.6580  5.6175  4.4415  3.2035  2.5034  2.5034  2.3884  2.1206  1.6871
  1.2120  1.2120  0.7076  1.0864  0.9680  0.9680  0.7949  0.9339  0.9339  0.9711
  0.9711  0.8839

 Free energy of the ion-electron system (eV)
  ---------------------------------------------------
  alpha Z        PSCENC =         0.02234163
  Ewald energy   TEWEN  =       622.60087333
  -Hartree energ DENC   =     -1493.06646779
  -exchange      EXHF   =         0.00000000
  -V(xc)+E(xc)   XCENC  =        74.85554313
  PAW double counting   =      3710.27806608    -3720.77664279
  entropy T*S    EENTRO =        -0.00000000
  eigenvalues    EBANDS =      -258.84816699
  atomic energy  EATOM  =      1036.88928565
  Solvation  Ediel_sol  =         0.00000000
  ---------------------------------------------------
  free energy    TOTEN  =       -28.04516776 eV

  energy without entropy =      -28.04516776  energy(sigma->0) =      -28.04516776


--------------------------------------------------------------------------------------------------------




--------------------------------------- Iteration      1(  28)  ---------------------------------------


    POTLOK:  cpu time   13.3342: real time   13.3571
    SETDIJ:  cpu time    0.0485: real time    0.0485
     EDDAV:  cpu time   14.1951: real time   14.2237
       DOS:  cpu time    0.0046: real time    0.0046
    CHARGE:  cpu time    5.3086: real time    5.3160
    MIXING:  cpu time    0.5352: real time    0.5363
    --------------------------------------------
      LOOP:  cpu time   33.4261: real time   33.4862

 eigenvalue-minimisations  :    96
 total energy-change (2. order) :-0.3865098E-06  (-0.1303686E-08)
 number of electron      18.0000000 magnetization 
 augmentation part        2.6859994 magnetization 

 Broyden mixing:
  rms(total) = 0.23234E-05    rms(broyden)= 0.23234E-05
  rms(prec ) = 0.23804E-05
  weight for this iteration     100.00

 eigenvalues of (default mixing * dielectric matrix)
  average eigenvalue GAMMA=   2.4447
  9.6504  7.7916  5.8850  4.5883  3.3761  2.9616  2.3911  2.3911  1.9365  1.9365
  1.4328  1.4328  1.1438  1.1438  0.7076  0.9470  0.9470  0.7946  0.9941  0.9941
  0.9407  0.9407  0.9024

 Free energy of the ion-electron system (eV)
  ---------------------------------------------------
  alpha Z        PSCENC =         0.02234163
  Ewald energy   TEWEN  =       622.60087333
  -Hartree energ DENC   =     -1493.06641064
  -exchange      EXHF   =         0.00000000
  -V(xc)+E(xc)   XCENC  =        74.85554035
  PAW double counting   =      3710.27825756    -3720.77683437
  entropy T*S    EENTRO =        -0.00000000
  eigenvalues    EBANDS =      -258.84822165
  atomic energy  EATOM  =      1036.88928565
  Solvation  Ediel_sol  =         0.00000000
  ---------------------------------------------------
  free energy    TOTEN  =       -28.04516814 eV

  energy without entropy =      -28.04516814  energy(sigma->0) =      -28.04516814


--------------------------------------------------------------------------------------------------------




--------------------------------------- Iteration      1(  29)  ---------------------------------------


    POTLOK:  cpu time   13.2720: real time   13.2949
    SETDIJ:  cpu time    0.0485: real time    0.0485
     EDDAV:  cpu time   17.7852: real time   17.8207
       DOS:  cpu time    0.0073: real time    0.0073
    CHARGE:  cpu time    5.1566: real time    5.1638
    MIXING:  cpu time    0.5834: real time    0.5847
    --------------------------------------------
      LOOP:  cpu time   36.8530: real time   36.9197

 eigenvalue-minimisations  :   128
 total energy-change (2. order) :-0.1533444E-06  (-0.9913990E-09)
 number of electron      18.0000000 magnetization 
 augmentation part        2.6859993 magnetization 

 Broyden mixing:
  rms(total) = 0.82593E-06    rms(broyden)= 0.82593E-06
  rms(prec ) = 0.86648E-06
  weight for this iteration     100.00

 eigenvalues of (default mixing * dielectric matrix)
  average eigenvalue GAMMA=   2.4540
  9.7048  7.9639  6.1581  4.8495  3.7217  2.8249  2.3322  2.3322  2.2628  2.2628
  1.7035  1.2284  1.2284  0.7076  1.1072  0.9565  0.9565  1.0376  1.0376  0.7945
  0.9328  0.9328  0.9620  0.8983

 Free energy of the ion-electron system (eV)
  ---------------------------------------------------
  alpha Z        PSCENC =         0.02234163
  Ewald energy   TEWEN  =       622.60087333
  -Hartree energ DENC   =     -1493.06643493
  -exchange      EXHF   =         0.00000000
  -V(xc)+E(xc)   XCENC  =        74.85554085
  PAW double counting   =      3710.27762488    -3720.77620206
  entropy T*S    EENTRO =        -0.00000000
  eigenvalues    EBANDS =      -258.84819764
  atomic energy  EATOM  =      1036.88928565
  Solvation  Ediel_sol  =         0.00000000
  ---------------------------------------------------
  free energy    TOTEN  =       -28.04516830 eV

  energy without entropy =      -28.04516830  energy(sigma->0) =      -28.04516830


--------------------------------------------------------------------------------------------------------




--------------------------------------- Iteration      1(  30)  ---------------------------------------


    POTLOK:  cpu time   13.2737: real time   13.2954
    SETDIJ:  cpu time    0.0486: real time    0.0486
     EDDAV:  cpu time   17.7533: real time   17.7886
       DOS:  cpu time    0.0055: real time    0.0055
    --------------------------------------------
      LOOP:  cpu time   31.0811: real time   31.1381

 eigenvalue-minimisations  :   128
 total energy-change (2. order) :-0.5018478E-07  (-0.8557244E-09)
 number of electron      18.0000000 magnetization 
 augmentation part        2.6859993 magnetization 

 Free energy of the ion-electron system (eV)
  ---------------------------------------------------
  alpha Z        PSCENC =         0.02234163
  Ewald energy   TEWEN  =       622.60087333
  -Hartree energ DENC   =     -1493.06644796
  -exchange      EXHF   =         0.00000000
  -V(xc)+E(xc)   XCENC  =        74.85554160
  PAW double counting   =      3710.27760180    -3720.77617900
  entropy T*S    EENTRO =        -0.00000000
  eigenvalues    EBANDS =      -258.84818539
  atomic energy  EATOM  =      1036.88928565
  Solvation  Ediel_sol  =         0.00000000
  ---------------------------------------------------
  free energy    TOTEN  =       -28.04516835 eV

  energy without entropy =      -28.04516835  energy(sigma->0) =      -28.04516835


--------------------------------------------------------------------------------------------------------




 average (electrostatic) potential at core
  the test charge radii are     0.6256  0.8471  0.8742
  (the norm of the test charge is              1.0000)
       1 -41.4039       2 -41.4034       3 -86.3035       4 -93.4251       5 -90.6856
 
 
 
 E-fermi :  -7.1478     XC(G=0):  -0.0333     alpha+bet : -0.0076


 k-point     1 :       0.0000    0.0000    0.0000
  band No.  band energies     occupation 
      1     -29.2541      2.00000
      2     -25.4696      2.00000
      3     -13.5516      2.00000
      4     -13.1270      2.00000
      5     -11.4928      2.00000
      6     -11.4888      2.00000
      7      -9.1891      2.00000
      8      -8.6418      2.00000
      9      -7.2092      2.00000
     10      -1.9248      0.00000
     11      -1.9200      0.00000
     12      -0.9800      0.00000
     13      -0.0007      0.00000
     14       0.0936      0.00000
     15       0.1002      0.00000
     16       0.1133      0.00000
     17       0.1188      0.00000
     18       0.1199      0.00000
     19       0.1312      0.00000
     20       0.1867      0.00000
     21       0.1900      0.00000
     22       0.2216      0.00000
     23       0.2394      0.00000
     24       0.2401      0.00000
     25       0.2403      0.00000
     26       0.2414      0.00000
     27       0.2426      0.00000
     28       0.2438      0.00000
     29       0.2451      0.00000
     30       0.2452      0.00000
     31       0.2720      0.00000
     32       0.3195      0.00000


--------------------------------------------------------------------------------------------------------


 soft charge-density along one line, spin component            1
         0         1         2         3         4         5         6         7         8         9
 total charge-density along one line
 
 pseudopotential strength for first ion, spin component:            1
 -2.341  -3.716   0.013  -0.020   0.001
 -3.716  -5.732   0.026  -0.041   0.001
  0.013   0.026  -0.117  -0.014   0.001
 -0.020  -0.041  -0.014  -0.105  -0.001
  0.001   0.001   0.001  -0.001  -0.129
 total augmentation occupancy for first ion, spin component:            1
  2.827  -0.512  -0.599   0.858  -0.032
 -0.512   0.212   0.082  -0.093   0.004
 -0.599   0.082   0.182  -0.168   0.005
  0.858  -0.093  -0.168   0.310  -0.009
 -0.032   0.004   0.005  -0.009   0.103


------------------------ aborting loop because EDIFF is reached ----------------------------------------



 DIPCOR: dipole corrections for dipol
 direction  1 min pos   459, direction  2 min pos   458, direction  3 min pos   407,
 dipolmoment          -0.014160     -0.441353      0.017598 electrons x Angstroem
 Tr[quadrupol]         8.842867

 energy correction for charged system         0.000000 eV
 dipol+quadrupol energy correction            0.000137 eV
 added-field ion interaction          0.000000 eV  (added to PSCEN)

 
  *************** adding dipol energy to TOTEN NOW **************** 
    CHARGE:  cpu time    5.4659: real time    5.4731
    FORLOC:  cpu time    0.6002: real time    0.6010
    FORNL :  cpu time    0.3892: real time    0.3899
    STRESS:  cpu time   13.4991: real time   13.5236
    FORHAR:  cpu time    3.3471: real time    3.3531
    MIXING:  cpu time    0.5690: real time    0.5703
    OFIELD:  cpu time    0.0000: real time    0.0000

  Hirshfeld charges:
            ion         q(e)     
   ------------------------------
      1     H           0.148
      2     H           0.148
      3     C           0.061
      4     O          -0.066
      5     O          -0.291

  Hirshfeld-I charges:
            ion         q(e)        dq(e)    
   ------------------------------------------
      1     H           0.458      0.191E-04
      2     H           0.458      0.191E-04
      3     C           0.116     -0.742E-06
      4     O          -0.107      0.156E-05
      5     O          -0.925     -0.390E-04

   Hirshfeld-I converged in  19 cycles. Convergence criterion |dq|< 0.500E-04 e

  Atomic reference data used in the T-S method for vdW correction:
            C6at              R0at           ALPHAat      REFSTATE
            (au)              (au)            (au)                
   ---------------------------------------------------------------
   H           6.500          3.099          4.500         0
   C          46.600          3.590         12.000         0
   O          15.600          3.194          5.400         0

  Tkatchenko/Scheffler method for vdW energy calculation
  ---------------------------------------------------------------------------------------------

  Parameters of vdW forcefield:
            C6ts              R0ts           ALPHAts        RELVOL
            (au)              (au)            (au)                
   ---------------------------------------------------------------
   H           0.602          2.084          1.369          0.30420434
   H           0.599          2.083          1.366          0.30356916
   C          29.733          3.331          9.585          0.79877283
   O          13.367          3.112          4.999          0.92565168
   O          27.625          3.513          7.186          1.33073158

  vdW correction parametrized for the method pbe       

  IVDW =  21
  VDW_RADIUS =    50.000 A
  VDW_IDAMPF =  0
  VDW_S6 =     1.000
  VDW_SR =     0.950
  VDW_D =    20.000
  LVDW_ONECELL = F F F
  LVDW_SAMETYPE T T T
  LVDW_EWALD = F

  Number of pair interactions contributing to vdW energy:     234
  Edisp (eV):   -0.00708
    FORVDW:  cpu time   98.1125: real time   98.1632

  FORCE on cell =-STRESS in cart. coord.  units (eV):
  Direction    XX          YY          ZZ          XY          YZ          ZX
  --------------------------------------------------------------------------------------
  Alpha Z     0.02234     0.02234     0.02234
  Ewald     -63.33938   625.78748    60.15222     2.78644     1.92738    -1.42877
  Hartree   353.88365   763.95171   375.23108     0.67387     0.05973    -0.24843
  E(xc)     -79.81223   -78.32295   -79.33188     0.01051     0.00887    -0.00560
  Local    -646.49753 -1696.50257  -751.87368    -2.63808    -1.19908     1.21946
  n-local    60.14397    46.42030    55.29427    -0.13557    -0.05343     0.05784
  augment    91.10270    86.48148    83.60650    -0.15976    -0.14639     0.08711
  Kinetic   284.49624   259.12419   259.24935    -0.49473    -0.54005     0.29141
  Fock        0.00000     0.00000     0.00000     0.00000     0.00000     0.00000
  vdW        -0.00000    -0.00206     0.00066    -0.00005     0.00020    -0.00001
  -------------------------------------------------------------------------------------
  Total      -0.00023     6.95993     2.35086     0.04264     0.05723    -0.02699
  in kB      -0.00001     0.26008     0.08785     0.00159     0.00214    -0.00101
  external pressure =        0.12 kB  Pullay stress =        0.00 kB


 VOLUME and BASIS-vectors are now :
 -----------------------------------------------------------------------------
  energy-cutoff  :     1000.00
  volume of cell :    42875.00
      direct lattice vectors                 reciprocal lattice vectors
    35.000000000  0.000000000  0.000000000     0.028571429  0.000000000  0.000000000
     0.000000000 35.000000000  0.000000000     0.000000000  0.028571429  0.000000000
     0.000000000  0.000000000 35.000000000     0.000000000  0.000000000  0.028571429

  length of vectors
    35.000000000 35.000000000 35.000000000     0.028571429  0.028571429  0.028571429


 FORCES acting on ions
    electron-ion (+dipol)            ewald-force                    non-local-force                 convergence-correction
 -----------------------------------------------------------------------------------------------
   -.273E+01 -.568E+02 0.762E+02   0.302E+01 0.620E+02 -.843E+02   -.234E+00 -.425E+01 0.650E+01   0.148E-07 -.258E-07 -.186E-06
   -.117E+01 -.634E+02 -.711E+02   0.129E+01 0.693E+02 0.787E+02   -.100E+00 -.484E+01 -.608E+01   0.120E-07 -.473E-08 0.171E-06
   0.218E-01 0.253E+03 -.436E-01   -.213E-01 -.290E+03 0.414E-01   -.556E-03 0.319E+02 0.334E-02   0.637E-07 0.467E-06 -.477E-07
   0.649E-01 -.122E+03 -.120E+00   -.704E-01 0.201E+03 0.147E+00   0.541E-02 -.741E+02 -.292E-01   0.104E-06 -.912E-05 -.117E-07
   0.172E+01 -.267E+02 -.218E+01   -.422E+01 -.419E+02 0.540E+01   0.242E+01 0.666E+02 -.312E+01   0.781E-07 -.132E-05 -.110E-06
 -----------------------------------------------------------------------------------------------
   -.209E+01 -.153E+02 0.272E+01   0.000E+00 0.426E-13 0.178E-14   0.209E+01 0.153E+02 -.272E+01   0.273E-06 -.100E-04 -.185E-06
 
 
 POSITION                                       TOTAL-FORCE (eV/Angst)
 -----------------------------------------------------------------------------------
      0.02970      4.88138     34.21499         0.053158      0.936058     -1.599863
      0.01365      4.95327      0.72944         0.020215      1.085846      1.504075
      0.00000      0.08826      0.00000        -0.000114     -4.871248      0.001141
      0.00000      1.22721      0.00000        -0.000011      4.801746     -0.002222
      0.00000      4.32721      0.00000        -0.073248     -1.952403      0.096870
 -----------------------------------------------------------------------------------
    total drift:                               -0.000002      0.000299     -0.000015


--------------------------------------------------------------------------------------------------------



  FREE ENERGIE OF THE ION-ELECTRON SYSTEM (eV)
  ---------------------------------------------------
  free  energy   TOTEN  =       -28.05211483 eV

  energy  without entropy=      -28.05211483  energy(sigma->0) =      -28.05211483
 


--------------------------------------------------------------------------------------------------------


    POTLOK:  cpu time   14.8232: real time   14.8459


--------------------------------------------------------------------------------------------------------


 writing wavefunctions
     LOOP+:  cpu time 1464.3820: real time 1466.5028
    4ORBIT:  cpu time    0.0000: real time    0.0000

 total amount of memory used by VASP MPI-rank0  4191804. kBytes
=======================================================================

   base      :      30000. kBytes
   nonl-proj :     418671. kBytes
   fftplans  :     676185. kBytes
   grid      :    3042313. kBytes
   one-center:          7. kBytes
   wavefun   :      24628. kBytes
 
  
  
 General timing and accounting informations for this job:
 ========================================================
  
                  Total CPU time used (sec):     2912.848
                            User time (sec):     2786.407
                          System time (sec):      126.440
                         Elapsed time (sec):     2921.024
  
                   Maximum memory used (kb):     5574796.
                   Average memory used (kb):           0.
  
                          Minor page faults:     80340404
                          Major page faults:          871
                 Voluntary context switches:        25114
