 vasp.6.1.2 22Jul20 (build Jan  6 2021 09:55:43) gamma-only                      
 executed on             LinuxPGI date 2023.10.20  09:32:07
 running on   32 total cores
 distrk:  each k-point on   32 cores,    1 groups
 distr:  one band on NCORE=   1 cores,   32 groups


--------------------------------------------------------------------------------------------------------


 INCAR:
 POTCAR:    PAW_PBE H_s 15May2010                 
 POTCAR:    PAW_PBE C_s 06Sep2000                 
 POTCAR:    PAW_PBE O_s 07Sep2000                 
 -----------------------------------------------------------------------------
|                                                                             |
|           W    W    AA    RRRRR   N    N  II  N    N   GGGG   !!!           |
|           W    W   A  A   R    R  NN   N  II  NN   N  G    G  !!!           |
|           W    W  A    A  R    R  N N  N  II  N N  N  G       !!!           |
|           W WW W  AAAAAA  RRRRR   N  N N  II  N  N N  G  GGG   !            |
|           WW  WW  A    A  R   R   N   NN  II  N   NN  G    G                |
|           W    W  A    A  R    R  N    N  II  N    N   GGGG   !!!           |
|                                                                             |
|     For optimal performance we recommend to set                             |
|       NCORE = 4 - approx SQRT(number of cores).                             |
|     NCORE specifies how many cores store one orbital (NPAR=cpu/NCORE).      |
|     This setting can greatly improve the performance of VASP for DFT.       |
|     The default, NCORE=1 might be grossly inefficient on modern             |
|     multi-core architectures or massively parallel machines. Do your        |
|     own testing!!!!                                                         |
|     Unfortunately you need to use the default for GW and RPA                |
|     calculations (for HF NCORE is supported but not extensively tested      |
|     yet).                                                                   |
|                                                                             |
 -----------------------------------------------------------------------------

 POTCAR:    PAW_PBE H_s 15May2010                 
   VRHFIN =H: ultrasoft test                                                                        
   LEXCH  = PE                                                                                      
   EATOM  =    12.4884 eV,    0.9179 Ry                                                             
                                                                                                    
   TITEL  = PAW_PBE H_s 15May2010                                                                   
   LULTRA =        F    use ultrasoft PP ?                                                          
   IUNSCR =        0    unscreen: 0-lin 1-nonlin 2-no                                               
   RPACOR =    0.000    partial core radius                                                         
   POMASS =    1.000; ZVAL   =    1.000    mass and valenz                                          
   RCORE  =    1.300    outmost cutoff radius                                                       
   RWIGS  =    0.700; RWIGS  =    0.370    wigner-seitz radius (au A)                               
   ENMAX  =  200.000; ENMIN  =  150.000 eV                                                          
   RCLOC  =    0.701    cutoff for local pot                                                        
   LCOR   =        T    correct aug charges                                                         
   LPAW   =        T    paw PP                                                                      
   EAUG   =  300.000                                                                                
   RMAX   =    1.330    core radius for proj-oper                                                   
   RAUG   =    1.200    factor for augmentation sphere                                              
   RDEP   =    1.337    radius for radial grids                                                     
   RDEPT  =    1.114    core radius for aug-charge                                                  
                                                                                                    
   Atomic configuration                                                                             
    2 entries                                                                                       
     n  l   j            E        occ.                                                              
     1  0  0.50        -6.4927   1.0000                                                             
     2  1  0.50        -3.4015   0.0000                                                             
   Description                                                                                      
     l       E           TYP  RCUT    TYP  RCUT                                                     
     0     -6.4927494     23  1.300                                                                 
     0      6.8029130     23  1.300                                                                 
     1     -4.0817478     23  1.300                                                                 
  local pseudopotential read in
  atomic valenz-charges read in
  non local Contribution for L=            0  read in
    real space projection operators read in
  non local Contribution for L=            0  read in
    real space projection operators read in
  non local Contribution for L=            1  read in
    real space projection operators read in
    PAW grid and wavefunctions read in
 
   number of l-projection  operators is LMAX  =            3
   number of lm-projection operators is LMMAX =            5
 
 POTCAR:    PAW_PBE C_s 06Sep2000                 
   VRHFIN =C: s2p2                                                                                  
   LEXCH  = PE                                                                                      
   EATOM  =   147.1560 eV,   10.8157 Ry                                                             
                                                                                                    
   TITEL  = PAW_PBE C_s 06Sep2000                                                                   
   LULTRA =        F    use ultrasoft PP ?                                                          
   IUNSCR =        0    unscreen: 0-lin 1-nonlin 2-no                                               
   RPACOR =    0.000    partial core radius                                                         
   POMASS =   12.011; ZVAL   =    4.000    mass and valenz                                          
   RCORE  =    1.850    outmost cutoff radius                                                       
   RWIGS  =    1.890; RWIGS  =    1.000    wigner-seitz radius (au A)                               
   ENMAX  =  273.911; ENMIN  =  205.433 eV                                                          
   RCLOC  =    0.804    cutoff for local pot                                                        
   LCOR   =        T    correct aug charges                                                         
   LPAW   =        T    paw PP                                                                      
   EAUG   =  439.243                                                                                
   DEXC   =    0.000                                                                                
   RMAX   =    1.897    core radius for proj-oper                                                   
   RAUG   =    1.300    factor for augmentation sphere                                              
   RDEP   =    1.940    radius for radial grids                                                     
   RDEPT  =    1.573    core radius for aug-charge                                                  
                                                                                                    
   Atomic configuration                                                                             
    4 entries                                                                                       
     n  l   j            E        occ.                                                              
     1  0  0.50      -273.3789   2.0000                                                             
     2  0  0.50       -13.7508   2.0000                                                             
     2  1  0.50        -5.2854   2.0000                                                             
     3  2  1.50        -1.3606   0.0000                                                             
   Description                                                                                      
     l       E           TYP  RCUT    TYP  RCUT                                                     
     0    -13.7508457     23  1.500                                                                 
     0    -11.0934578     23  1.500                                                                 
     1     -5.2854381     23  1.850                                                                 
     1     -1.3099858     23  1.850                                                                 
  local pseudopotential read in
  atomic valenz-charges read in
  non local Contribution for L=            0  read in
    real space projection operators read in
  non local Contribution for L=            0  read in
    real space projection operators read in
  non local Contribution for L=            1  read in
    real space projection operators read in
  non local Contribution for L=            1  read in
    real space projection operators read in
    PAW grid and wavefunctions read in
 
   number of l-projection  operators is LMAX  =            4
   number of lm-projection operators is LMMAX =            8
 
 POTCAR:    PAW_PBE O_s 07Sep2000                 
   VRHFIN =O: s2p4                                                                                  
   LEXCH  = PE                                                                                      
   EATOM  =   432.3788 eV,   31.7789 Ry                                                             
                                                                                                    
   TITEL  = PAW_PBE O_s 07Sep2000                                                                   
   LULTRA =        F    use ultrasoft PP ?                                                          
   IUNSCR =        0    unscreen: 0-lin 1-nonlin 2-no                                               
   RPACOR =    0.000    partial core radius                                                         
   POMASS =   16.000; ZVAL   =    6.000    mass and valenz                                          
   RCORE  =    1.850    outmost cutoff radius                                                       
   RWIGS  =    1.700; RWIGS  =    0.900    wigner-seitz radius (au A)                               
   ENMAX  =  282.853; ENMIN  =  212.140 eV                                                          
   RCLOC  =    0.804    cutoff for local pot                                                        
   LCOR   =        T    correct aug charges                                                         
   LPAW   =        T    paw PP                                                                      
   EAUG   =  412.352                                                                                
   RMAX   =    1.897    core radius for proj-oper                                                   
   RAUG   =    1.300    factor for augmentation sphere                                              
   RDEP   =    1.878    radius for radial grids                                                     
   RDEPT  =    1.572    core radius for aug-charge                                                  
                                                                                                    
   Atomic configuration                                                                             
    4 entries                                                                                       
     n  l   j            E        occ.                                                              
     1  0  0.50      -514.6923   2.0000                                                             
     2  0  0.50       -23.9615   2.0000                                                             
     2  1  0.50        -9.0305   4.0000                                                             
     3  2  1.50        -1.3606   0.0000                                                             
   Description                                                                                      
     l       E           TYP  RCUT    TYP  RCUT                                                     
     0    -23.9615315     23  1.500                                                                 
     0    -25.3221141     23  1.500                                                                 
     1     -9.0304908     23  1.850                                                                 
     1     -7.3935399     23  1.850                                                                 
  local pseudopotential read in
  atomic valenz-charges read in
  non local Contribution for L=            0  read in
    real space projection operators read in
  non local Contribution for L=            0  read in
    real space projection operators read in
  non local Contribution for L=            1  read in
    real space projection operators read in
  non local Contribution for L=            1  read in
    real space projection operators read in
    PAW grid and wavefunctions read in
 
   number of l-projection  operators is LMAX  =            4
   number of lm-projection operators is LMMAX =            8
 
  PAW_PBE H_s 15May2010                 :
 energy of atom  1       EATOM=  -12.4884
 kinetic energy error for atom=    0.0000 (will be added to EATOM!!)
  PAW_PBE C_s 06Sep2000                 :
 energy of atom  2       EATOM= -147.1560
 kinetic energy error for atom=    0.0002 (will be added to EATOM!!)
  PAW_PBE O_s 07Sep2000                 :
 energy of atom  3       EATOM= -432.3788
 kinetic energy error for atom=    0.0004 (will be added to EATOM!!)
 
 
 POSCAR:  H  C  O
  positions in cartesian coordinates
  No initial velocities read in
 exchange correlation table for  LEXCH =        8
   RHO(1)=    0.500       N(1)  =     2000
   RHO(2)=  100.500       N(2)  =     4000
 


--------------------------------------------------------------------------------------------------------


 ion  position               nearest neighbor table
   1  0.001  0.145  0.978-   5 0.96
   2  0.000  0.147  0.021-   5 0.96
   3  0.000  0.003  0.000-   4 1.14
   4  0.000  0.035  0.000-   3 1.14
   5  0.000  0.129  0.000-   2 0.96   1 0.96
 
 -----------------------------------------------------------------------------
|                                                                             |
|           W    W    AA    RRRRR   N    N  II  N    N   GGGG   !!!           |
|           W    W   A  A   R    R  NN   N  II  NN   N  G    G  !!!           |
|           W    W  A    A  R    R  N N  N  II  N N  N  G       !!!           |
|           W WW W  AAAAAA  RRRRR   N  N N  II  N  N N  G  GGG   !            |
|           WW  WW  A    A  R   R   N   NN  II  N   NN  G    G                |
|           W    W  A    A  R    R  N    N  II  N    N   GGGG   !!!           |
|                                                                             |
|     The distance between some ions is very small. Please check the          |
|     nearest-neighbor list in the OUTCAR file.                               |
|     I HOPE YOU KNOW WHAT YOU ARE DOING!                                     |
|                                                                             |
 -----------------------------------------------------------------------------

  LATTYP: Found a simple cubic cell.
 ALAT       =    35.0000000000
  
  Lattice vectors:
  
 A1 = (  35.0000000000,   0.0000000000,   0.0000000000)
 A2 = (   0.0000000000,  35.0000000000,   0.0000000000)
 A3 = (   0.0000000000,   0.0000000000,  35.0000000000)


Analysis of symmetry for initial positions (statically):
=====================================================================
 Subroutine PRICEL returns:
 Original cell was already a primitive cell.
 

 Routine SETGRP: Setting up the symmetry group for a 
 simple cubic supercell.


 Subroutine GETGRP returns: Found  1 space group operations
 (whereof  1 operations were pure point group operations)
 out of a pool of 48 trial point group operations.


The static configuration has the point symmetry C_1 .


Analysis of symmetry for dynamics (positions and initial velocities):
=====================================================================
 Subroutine PRICEL returns:
 Original cell was already a primitive cell.
 

 Routine SETGRP: Setting up the symmetry group for a 
 simple cubic supercell.


 Subroutine GETGRP returns: Found  1 space group operations
 (whereof  1 operations were pure point group operations)
 out of a pool of 48 trial point group operations.


The dynamic configuration has the point symmetry C_1 .


 Subroutine INISYM returns: Found  1 space group operations
 (whereof  1 operations are pure point group operations),
 and found     1 'primitive' translations


----------------------------------------------------------------------------------------

                                     Primitive cell                                     

  volume of cell :   42875.0000

  direct lattice vectors                    reciprocal lattice vectors
    35.000000000  0.000000000  0.000000000     0.028571429  0.000000000  0.000000000
     0.000000000 35.000000000  0.000000000     0.000000000  0.028571429  0.000000000
     0.000000000  0.000000000 35.000000000     0.000000000  0.000000000  0.028571429

  length of vectors
    35.000000000 35.000000000 35.000000000     0.028571429  0.028571429  0.028571429

  position of ions in fractional coordinates (direct lattice)
     0.000848682  0.145182213  0.977571084
     0.000390051  0.147236386  0.020841195
     0.000000000  0.002521600  0.000000000
     0.000000000  0.035063029  0.000000000
     0.000000000  0.129348743  0.000000000

  ion indices of the primitive-cell ions
   primitive index   ion index
                 1           1
                 2           2
                 3           3
                 4           4
                 5           5

----------------------------------------------------------------------------------------

 
 
 KPOINTS: g                                       

Automatic generation of k-mesh.
Space group operators:
 irot       det(A)        alpha          n_x          n_y          n_z        tau_x        tau_y        tau_z
    1     1.000000     0.000000     1.000000     0.000000     0.000000     0.000000     0.000000     0.000000
 
 Subroutine IBZKPT returns following result:
 ===========================================
 
 Found      1 irreducible k-points:
 
 Following reciprocal coordinates:
            Coordinates               Weight
  0.000000  0.000000  0.000000      1.000000
 
 Following cartesian coordinates:
            Coordinates               Weight
  0.000000  0.000000  0.000000      1.000000
 


--------------------------------------------------------------------------------------------------------




 Dimension of arrays:
   k-points           NKPTS =      1   k-points in BZ     NKDIM =      1   number of bands    NBANDS=     32
   number of dos      NEDOS =    301   number of ions     NIONS =      5
   non local maximal  LDIM  =      4   non local SUM 2l+1 LMDIM =      8
   total plane-waves  NPLWV = ******
   max r-space proj   IRMAX =      1   max aug-charges    IRDMAX=  29269
   dimension x,y,z NGX =   378 NGY =  378 NGZ =  378
   dimension x,y,z NGXF=   756 NGYF=  756 NGZF=  756
   support grid    NGXF=   756 NGYF=  756 NGZF=  756
   ions per type =               2   1   2
   NGX,Y,Z   is equivalent  to a cutoff of  17.95, 17.95, 17.95 a.u.
   NGXF,Y,Z  is equivalent  to a cutoff of  35.91, 35.91, 35.91 a.u.

 SYSTEM =  C                                       
 POSCAR =   H  C  O                                

 Startparameter for this run:
   NWRITE =      2    write-flag & timer
   PREC   = acc       normal or accurate (medium, high low for compatibility)
   ISTART =      0    job   : 0-new  1-cont  2-samecut
   ICHARG =      2    charge: 1-file 2-atom 10-const
   ISPIN  =      1    spin polarized calculation?
   LNONCOLLINEAR =      F non collinear calculations
   LSORBIT =      F    spin-orbit coupling
   INIWAV =      1    electr: 0-lowe 1-rand  2-diag
   LASPH  =      T    aspherical Exc in radial PAW
   METAGGA=      F    non-selfconsistent MetaGGA calc.

 Electronic Relaxation 1
   ENCUT  = 1000.0 eV  73.50 Ry    8.57 a.u.  90.25 90.25 90.25*2*pi/ulx,y,z
   ENINI  = 1000.0     initial cutoff
   ENAUG  =  439.2 eV  augmentation charge cutoff
   NELM   =     60;   NELMIN=  2; NELMDL= -5     # of ELM steps 
   EDIFF  = 0.1E-06   stopping-criterion for ELM
   LREAL  =      F    real-space projection
   NLSPLINE    = F    spline interpolate recip. space projectors
   LCOMPAT=      F    compatible to vasp.4.4
   GGA_COMPAT  = T    GGA compatible to vasp.4.4-vasp.4.6
   LMAXPAW     = -100 max onsite density
   LMAXMIX     =    2 max onsite mixed and CHGCAR
   VOSKOWN=      0    Vosko Wilk Nusair interpolation
   ROPT   =    0.00000   0.00000   0.00000
 Ionic relaxation
   EDIFFG = 0.1E-05   stopping-criterion for IOM
   NSW    =      0    number of steps for IOM
   NBLOCK =      1;   KBLOCK =      1    inner block; outer block 
   IBRION =     -1    ionic relax: 0-MD 1-quasi-New 2-CG
   NFREE  =      0    steps in history (QN), initial steepest desc. (CG)
   ISIF   =      2    stress and relaxation
   IWAVPR =     10    prediction:  0-non 1-charg 2-wave 3-comb
   ISYM   =      2    0-nonsym 1-usesym 2-fastsym
   LCORR  =      T    Harris-Foulkes like correction to forces

   POTIM  = 0.5000    time-step for ionic-motion
   TEIN   =    0.0    initial temperature
   TEBEG  =    0.0;   TEEND  =   0.0 temperature during run
   SMASS  =  -3.00    Nose mass-parameter (am)
   estimated Nose-frequenzy (Omega)   =  0.10E-29 period in steps = 0.13E+47 mass=  -0.280E-25a.u.
   SCALEE = 1.0000    scale energy and forces
   NPACO  =    256;   APACO  = 16.0  distance and # of slots for P.C.
   PSTRESS=    0.0 pullay stress

  Mass of Ions in am
   POMASS =   1.00 12.01 16.00
  Ionic Valenz
   ZVAL   =   1.00  4.00  6.00
  Atomic Wigner-Seitz radii
   RWIGS  =  -1.00 -1.00 -1.00
  virtual crystal weights 
   VCA    =   1.00  1.00  1.00
   NELECT =      18.0000    total number of electrons
   NUPDOWN=      -1.0000    fix difference up-down

 DOS related values:
   EMIN   =  10.00;   EMAX   =-10.00  energy-range for DOS
   EFERMI =   0.00
   ISMEAR =     0;   SIGMA  =   0.01  broadening in eV -4-tet -1-fermi 0-gaus

 Electronic relaxation 2 (details)
   IALGO  =     38    algorithm
   LDIAG  =      T    sub-space diagonalisation (order eigenvalues)
   LSUBROT=      F    optimize rotation matrix (better conditioning)
   TURBO    =      0    0=normal 1=particle mesh
   IRESTART =      0    0=no restart 2=restart with 2 vectors
   NREBOOT  =      0    no. of reboots
   NMIN     =      0    reboot dimension
   EREF     =   0.00    reference energy to select bands
   IMIX   =      4    mixing-type and parameters
     AMIX     =   0.40;   BMIX     =  1.00
     AMIX_MAG =   1.60;   BMIX_MAG =  1.00
     AMIN     =   0.10
     WC   =   100.;   INIMIX=   1;  MIXPRE=   1;  MAXMIX= -45

 Intra band minimization:
   WEIMIN = 0.0000     energy-eigenvalue tresh-hold
   EBREAK =  0.78E-09  absolut break condition
   DEPER  =   0.30     relativ break condition  

   TIME   =   0.40     timestep for ELM

  volume/ion in A,a.u.               =    8575.00     57866.96
  Fermi-wavevector in a.u.,A,eV,Ry     =   0.122583  0.231649  0.204450  0.015027
  Thomas-Fermi vector in A             =   0.746568
 
 Write flags
   LWAVE        =      T    write WAVECAR
   LDOWNSAMPLE  =      F    k-point downsampling of WAVECAR
   LCHARG       =      T    write CHGCAR
   LVTOT        =      F    write LOCPOT, total local potential
   LVHAR        =      F    write LOCPOT, Hartree potential only
   LELF         =      F    write electronic localiz. function (ELF)
   LORBIT       =      0    0 simple, 1 ext, 2 COOP (PROOUT), +10 PAW based schemes


 Dipole corrections
   LMONO  =      F    monopole corrections only (constant potential shift)
   LDIPOL =      F    correct potential (dipole corrections)
   IDIPOL =      4    1-x, 2-y, 3-z, 4-all directions 
   EPSILON=  1.0000000 bulk dielectric constant

 Exchange correlation treatment:
   GGA     =    --    GGA type
   LEXCH   =     8    internal setting for exchange type
   VOSKOWN=      0    Vosko Wilk Nusair interpolation
   LHFCALC =     F    Hartree Fock is set to
   LHFONE  =     F    Hartree Fock one center treatment
   AEXX    =    0.0000 exact exchange contribution

 Linear response parameters
   LEPSILON=     F    determine dielectric tensor
   LRPA    =     F    only Hartree local field effects (RPA)
   LNABLA  =     F    use nabla operator in PAW spheres
   LVEL    =     F    velocity operator in full k-point grid
   LINTERFAST=   F  fast interpolation
   KINTER  =     0    interpolate to denser k-point grid
   CSHIFT  =0.1000    complex shift for real part using Kramers Kronig
   OMEGAMAX=  -1.0    maximum frequency
   DEG_THRESHOLD= 0.2000000E-02 threshold for treating states as degnerate
   RTIME   =   -0.100 relaxation time in fs
  (WPLASMAI=    0.000 imaginary part of plasma frequency in eV, 0.658/RTIME)
   DFIELD  = 0.0000000 0.0000000 0.0000000 field for delta impulse in time
 
 Orbital magnetization related:
   ORBITALMAG=     F  switch on orbital magnetization
   LCHIMAG   =     F  perturbation theory with respect to B field
   DQ        =  0.001000  dq finite difference perturbation B field
   LLRAUG    =     F  two centre corrections for induced B field



--------------------------------------------------------------------------------------------------------


 Static calculation
 charge density and potential will be updated during run
 non-spin polarized calculation
 Variant of blocked Davidson
 Davidson routine will perform the subspace rotation
 perform sub-space diagonalisation
    after iterative eigenvector-optimisation
 modified Broyden-mixing scheme, WC =      100.0
 initial mixing is a Kerker type mixing with AMIX =  0.4000 and BMIX =      1.0000
 Hartree-type preconditioning will be used
 using additional bands            23
 reciprocal scheme for non local part
 calculate Harris-corrections to forces 
   (improved forces if not selfconsistent)
 use gradient corrections 
 use of overlap-Matrix (Vanderbilt PP)
 Gauss-broadening in eV      SIGMA  =   0.01


--------------------------------------------------------------------------------------------------------


  energy-cutoff  :     1000.00
  volume of cell :    42875.00
      direct lattice vectors                 reciprocal lattice vectors
    35.000000000  0.000000000  0.000000000     0.028571429  0.000000000  0.000000000
     0.000000000 35.000000000  0.000000000     0.000000000  0.028571429  0.000000000
     0.000000000  0.000000000 35.000000000     0.000000000  0.000000000  0.028571429

  length of vectors
    35.000000000 35.000000000 35.000000000     0.028571429  0.028571429  0.028571429


 
 k-points in units of 2pi/SCALE and weight: g                                       
   0.00000000  0.00000000  0.00000000       1.000
 
 k-points in reciprocal lattice and weights: g                                       
   0.00000000  0.00000000  0.00000000       1.000
 
 position of ions in fractional coordinates (direct lattice) 
   0.00084868  0.14518221  0.97757108
   0.00039005  0.14723639  0.02084119
   0.00000000  0.00252160  0.00000000
   0.00000000  0.03506303  0.00000000
   0.00000000  0.12934874  0.00000000
 
 position of ions in cartesian coordinates  (Angst):
   0.02970387  5.08137746 34.21498793
   0.01365177  5.15327352  0.72944182
   0.00000000  0.08825600  0.00000000
   0.00000000  1.22720600  0.00000000
   0.00000000  4.52720600  0.00000000
 


--------------------------------------------------------------------------------------------------------


 use serial FFT for orbitals x direction half grid
 k-point   1 :   0.0000 0.0000 0.0000  plane waves: 1539209

 maximum and minimum number of plane-waves per node :   1539209  1539209

 maximum number of plane-waves:   1539209
 maximum index in each direction: 
   IXMAX=   90   IYMAX=   90   IZMAX=   90
   IXMIN=    0   IYMIN=  -90   IZMIN=  -90


 serial   3D FFT for wavefunctions
 parallel 3D FFT for charge:
    minimum data exchange during FFTs selected (reduces bandwidth)


 total amount of memory used by VASP MPI-rank0  4191804. kBytes
=======================================================================

   base      :      30000. kBytes
   nonl-proj :     418671. kBytes
   fftplans  :     676185. kBytes
   grid      :    3042313. kBytes
   one-center:          7. kBytes
   wavefun   :      24628. kBytes
 
     INWAV:  cpu time    0.0000: real time    0.0000
 Broyden mixing: mesh for mixing (old mesh)
   NGX =181   NGY =181   NGZ =181
  (NGX  =756   NGY  =756   NGZ  =756)
  gives a total of ****** points

 initial charge density was supplied:
 charge density of overlapping atoms calculated
 number of electron      18.0000000 magnetization 
 keeping initial charge density in first step


--------------------------------------------------------------------------------------------------------


 Maximum index for augmentation-charges          1122 (set IRDMAX)


--------------------------------------------------------------------------------------------------------


 First call to EWALD:  gamma=   0.051
 Maximum number of real-space cells 3x 3x 3
 Maximum number of reciprocal cells 3x 3x 3

    FEWALD:  cpu time    0.0021: real time    0.0021


--------------------------------------- Iteration      1(   1)  ---------------------------------------


    POTLOK:  cpu time   13.5803: real time   13.6029
    SETDIJ:  cpu time    0.0492: real time    0.0496
     EDDAV:  cpu time   17.6089: real time   17.6516
       DOS:  cpu time    0.0042: real time    0.0042
    --------------------------------------------
      LOOP:  cpu time   31.2427: real time   31.3083

 eigenvalue-minimisations  :   128
 total energy-change (2. order) : 0.9363156E+02  (-0.3603311E+03)
 number of electron      18.0000000 magnetization 
 augmentation part       18.0000000 magnetization 

 Free energy of the ion-electron system (eV)
  ---------------------------------------------------
  alpha Z        PSCENC =         0.02234163
  Ewald energy   TEWEN  =       605.69564822
  -Hartree energ DENC   =     -1417.63536580
  -exchange      EXHF   =         0.00000000
  -V(xc)+E(xc)   XCENC  =        71.85864903
  PAW double counting   =       802.92211551     -812.08006040
  entropy T*S    EENTRO =        -0.00000000
  eigenvalues    EBANDS =      -194.04105318
  atomic energy  EATOM  =      1036.88928565
  Solvation  Ediel_sol  =         0.00000000
  ---------------------------------------------------
  free energy    TOTEN  =        93.63156067 eV

  energy without entropy =       93.63156067  energy(sigma->0) =       93.63156067


--------------------------------------------------------------------------------------------------------




--------------------------------------- Iteration      1(   2)  ---------------------------------------


     EDDAV:  cpu time   14.1067: real time   14.1355
       DOS:  cpu time    0.0051: real time    0.0051
    --------------------------------------------
      LOOP:  cpu time   14.1118: real time   14.1406

 eigenvalue-minimisations  :    96
 total energy-change (2. order) :-0.1108371E+03  (-0.1108371E+03)
 number of electron      18.0000000 magnetization 
 augmentation part       18.0000000 magnetization 

 Free energy of the ion-electron system (eV)
  ---------------------------------------------------
  alpha Z        PSCENC =         0.02234163
  Ewald energy   TEWEN  =       605.69564822
  -Hartree energ DENC   =     -1417.63536580
  -exchange      EXHF   =         0.00000000
  -V(xc)+E(xc)   XCENC  =        71.85864903
  PAW double counting   =       802.92211551     -812.08006040
  entropy T*S    EENTRO =        -0.00000000
  eigenvalues    EBANDS =      -304.87814295
  atomic energy  EATOM  =      1036.88928565
  Solvation  Ediel_sol  =         0.00000000
  ---------------------------------------------------
  free energy    TOTEN  =       -17.20552910 eV

  energy without entropy =      -17.20552910  energy(sigma->0) =      -17.20552910


--------------------------------------------------------------------------------------------------------




--------------------------------------- Iteration      1(   3)  ---------------------------------------


     EDDAV:  cpu time   17.5558: real time   17.5953
       DOS:  cpu time    0.0065: real time    0.0065
    --------------------------------------------
      LOOP:  cpu time   17.5623: real time   17.6018

 eigenvalue-minimisations  :   128
 total energy-change (2. order) :-0.1378028E+02  (-0.1378028E+02)
 number of electron      18.0000000 magnetization 
 augmentation part       18.0000000 magnetization 

 Free energy of the ion-electron system (eV)
  ---------------------------------------------------
  alpha Z        PSCENC =         0.02234163
  Ewald energy   TEWEN  =       605.69564822
  -Hartree energ DENC   =     -1417.63536580
  -exchange      EXHF   =         0.00000000
  -V(xc)+E(xc)   XCENC  =        71.85864903
  PAW double counting   =       802.92211551     -812.08006040
  entropy T*S    EENTRO =        -0.00000000
  eigenvalues    EBANDS =      -318.65842103
  atomic energy  EATOM  =      1036.88928565
  Solvation  Ediel_sol  =         0.00000000
  ---------------------------------------------------
  free energy    TOTEN  =       -30.98580718 eV

  energy without entropy =      -30.98580718  energy(sigma->0) =      -30.98580718


--------------------------------------------------------------------------------------------------------




--------------------------------------- Iteration      1(   4)  ---------------------------------------


     EDDAV:  cpu time   14.1607: real time   14.1891
       DOS:  cpu time    0.0072: real time    0.0072
    --------------------------------------------
      LOOP:  cpu time   14.1680: real time   14.1963

 eigenvalue-minimisations  :    96
 total energy-change (2. order) :-0.6093977E-01  (-0.6093979E-01)
 number of electron      18.0000000 magnetization 
 augmentation part       18.0000000 magnetization 

 Free energy of the ion-electron system (eV)
  ---------------------------------------------------
  alpha Z        PSCENC =         0.02234163
  Ewald energy   TEWEN  =       605.69564822
  -Hartree energ DENC   =     -1417.63536580
  -exchange      EXHF   =         0.00000000
  -V(xc)+E(xc)   XCENC  =        71.85864903
  PAW double counting   =       802.92211551     -812.08006040
  entropy T*S    EENTRO =        -0.00000000
  eigenvalues    EBANDS =      -318.71936079
  atomic energy  EATOM  =      1036.88928565
  Solvation  Ediel_sol  =         0.00000000
  ---------------------------------------------------
  free energy    TOTEN  =       -31.04674695 eV

  energy without entropy =      -31.04674695  energy(sigma->0) =      -31.04674695


--------------------------------------------------------------------------------------------------------




--------------------------------------- Iteration      1(   5)  ---------------------------------------


     EDDAV:  cpu time   10.5741: real time   10.5993
       DOS:  cpu time    0.0031: real time    0.0031
    CHARGE:  cpu time    5.4464: real time    5.4550
    MIXING:  cpu time    0.2194: real time    0.2199
    --------------------------------------------
      LOOP:  cpu time   16.2431: real time   16.2773

 eigenvalue-minimisations  :    64
 total energy-change (2. order) :-0.2394093E-04  (-0.2394855E-04)
 number of electron      17.9999999 magnetization 
 augmentation part        3.0892432 magnetization 

 Broyden mixing:
  rms(total) = 0.42552E+01    rms(broyden)= 0.42552E+01
  rms(prec ) = 0.42622E+01
  weight for this iteration     100.00

 Free energy of the ion-electron system (eV)
  ---------------------------------------------------
  alpha Z        PSCENC =         0.02234163
  Ewald energy   TEWEN  =       605.69564822
  -Hartree energ DENC   =     -1417.63536580
  -exchange      EXHF   =         0.00000000
  -V(xc)+E(xc)   XCENC  =        71.85864903
  PAW double counting   =       802.92211551     -812.08006040
  entropy T*S    EENTRO =        -0.00000000
  eigenvalues    EBANDS =      -318.71938474
  atomic energy  EATOM  =      1036.88928565
  Solvation  Ediel_sol  =         0.00000000
  ---------------------------------------------------
  free energy    TOTEN  =       -31.04677089 eV

  energy without entropy =      -31.04677089  energy(sigma->0) =      -31.04677089


--------------------------------------------------------------------------------------------------------




--------------------------------------- Iteration      1(   6)  ---------------------------------------


    POTLOK:  cpu time   13.2800: real time   13.3022
    SETDIJ:  cpu time    0.0484: real time    0.0484
     EDDAV:  cpu time   14.0391: real time   14.0676
       DOS:  cpu time    0.0107: real time    0.0107
    CHARGE:  cpu time    5.3219: real time    5.3296
    MIXING:  cpu time    0.2131: real time    0.2163
    --------------------------------------------
      LOOP:  cpu time   32.9132: real time   32.9748

 eigenvalue-minimisations  :    96
 total energy-change (2. order) : 0.2617963E+01  (-0.1497969E+01)
 number of electron      17.9999999 magnetization 
 augmentation part        2.6850942 magnetization 

 Broyden mixing:
  rms(total) = 0.40677E+01    rms(broyden)= 0.40677E+01
  rms(prec ) = 0.40686E+01
  weight for this iteration     100.00

 eigenvalues of (default mixing * dielectric matrix)
  average eigenvalue GAMMA=   0.6900
  0.6900

 Free energy of the ion-electron system (eV)
  ---------------------------------------------------
  alpha Z        PSCENC =         0.02234163
  Ewald energy   TEWEN  =       605.69564822
  -Hartree energ DENC   =     -1455.63907615
  -exchange      EXHF   =         0.00000000
  -V(xc)+E(xc)   XCENC  =        73.97561530
  PAW double counting   =      1481.25922500    -1492.16875102
  entropy T*S    EENTRO =        -0.00000000
  eigenvalues    EBANDS =      -278.46309642
  atomic energy  EATOM  =      1036.88928565
  Solvation  Ediel_sol  =         0.00000000
  ---------------------------------------------------
  free energy    TOTEN  =       -28.42880779 eV

  energy without entropy =      -28.42880779  energy(sigma->0) =      -28.42880779


--------------------------------------------------------------------------------------------------------




--------------------------------------- Iteration      1(   7)  ---------------------------------------


    POTLOK:  cpu time   13.2282: real time   13.2530
    SETDIJ:  cpu time    0.0486: real time    0.0486
     EDDAV:  cpu time   17.6140: real time   17.6488
       DOS:  cpu time    0.0167: real time    0.0168
    CHARGE:  cpu time    5.1135: real time    5.1214
    MIXING:  cpu time    0.2125: real time    0.2137
    --------------------------------------------
      LOOP:  cpu time   36.2334: real time   36.3023

 eigenvalue-minimisations  :   128
 total energy-change (2. order) : 0.2044667E+00  (-0.5563082E-01)
 number of electron      17.9999999 magnetization 
 augmentation part        2.7076701 magnetization 

 Broyden mixing:
  rms(total) = 0.28043E+01    rms(broyden)= 0.28043E+01
  rms(prec ) = 0.28048E+01
  weight for this iteration     100.00

 eigenvalues of (default mixing * dielectric matrix)
  average eigenvalue GAMMA=   1.6417
  0.9409  2.3425

 Free energy of the ion-electron system (eV)
  ---------------------------------------------------
  alpha Z        PSCENC =         0.02234163
  Ewald energy   TEWEN  =       605.69564822
  -Hartree energ DENC   =     -1458.89800854
  -exchange      EXHF   =         0.00000000
  -V(xc)+E(xc)   XCENC  =        74.15885198
  PAW double counting   =      1991.71098346    -2002.44870542
  entropy T*S    EENTRO =        -0.00000000
  eigenvalues    EBANDS =      -275.35473811
  atomic energy  EATOM  =      1036.88928565
  Solvation  Ediel_sol  =         0.00000000
  ---------------------------------------------------
  free energy    TOTEN  =       -28.22434113 eV

  energy without entropy =      -28.22434113  energy(sigma->0) =      -28.22434113


--------------------------------------------------------------------------------------------------------




--------------------------------------- Iteration      1(   8)  ---------------------------------------


    POTLOK:  cpu time   13.2798: real time   13.3021
    SETDIJ:  cpu time    0.0488: real time    0.0488
     EDDAV:  cpu time   10.6126: real time   10.6367
       DOS:  cpu time    0.0043: real time    0.0043
    CHARGE:  cpu time    5.0587: real time    5.0667
    MIXING:  cpu time    0.2882: real time    0.2887
    --------------------------------------------
      LOOP:  cpu time   29.2925: real time   29.3474

 eigenvalue-minimisations  :    64
 total energy-change (2. order) : 0.1599067E+00  (-0.4891754E-01)
 number of electron      17.9999999 magnetization 
 augmentation part        2.6610573 magnetization 

 Broyden mixing:
  rms(total) = 0.46468E+00    rms(broyden)= 0.46468E+00
  rms(prec ) = 0.46582E+00
  weight for this iteration     100.00

 eigenvalues of (default mixing * dielectric matrix)
  average eigenvalue GAMMA=   1.3562
  2.5555  0.8945  0.6187

 Free energy of the ion-electron system (eV)
  ---------------------------------------------------
  alpha Z        PSCENC =         0.02234163
  Ewald energy   TEWEN  =       605.69564822
  -Hartree energ DENC   =     -1472.29319700
  -exchange      EXHF   =         0.00000000
  -V(xc)+E(xc)   XCENC  =        74.88516801
  PAW double counting   =      3596.27658455    -3606.99891439
  entropy T*S    EENTRO =        -0.00000000
  eigenvalues    EBANDS =      -262.54135114
  atomic energy  EATOM  =      1036.88928565
  Solvation  Ediel_sol  =         0.00000000
  ---------------------------------------------------
  free energy    TOTEN  =       -28.06443446 eV

  energy without entropy =      -28.06443446  energy(sigma->0) =      -28.06443446


--------------------------------------------------------------------------------------------------------




--------------------------------------- Iteration      1(   9)  ---------------------------------------


    POTLOK:  cpu time   13.2758: real time   13.2989
    SETDIJ:  cpu time    0.0487: real time    0.0487
     EDDAV:  cpu time   17.5857: real time   17.6214
       DOS:  cpu time    0.0126: real time    0.0127
    CHARGE:  cpu time    5.3567: real time    5.3644
    MIXING:  cpu time    0.2312: real time    0.2317
    --------------------------------------------
      LOOP:  cpu time   36.5108: real time   36.5778

 eigenvalue-minimisations  :   128
 total energy-change (2. order) : 0.2989709E-01  (-0.1937396E-01)
 number of electron      17.9999999 magnetization 
 augmentation part        2.6829260 magnetization 

 Broyden mixing:
  rms(total) = 0.17697E+00    rms(broyden)= 0.17697E+00
  rms(prec ) = 0.17742E+00
  weight for this iteration     100.00

 eigenvalues of (default mixing * dielectric matrix)
  average eigenvalue GAMMA=   1.4624
  2.4163  1.6694  0.6990  1.0650

 Free energy of the ion-electron system (eV)
  ---------------------------------------------------
  alpha Z        PSCENC =         0.02234163
  Ewald energy   TEWEN  =       605.69564822
  -Hartree energ DENC   =     -1472.16144530
  -exchange      EXHF   =         0.00000000
  -V(xc)+E(xc)   XCENC  =        74.86250318
  PAW double counting   =      3750.88851942    -3761.48626003
  entropy T*S    EENTRO =        -0.00000000
  eigenvalues    EBANDS =      -262.74513015
  atomic energy  EATOM  =      1036.88928565
  Solvation  Ediel_sol  =         0.00000000
  ---------------------------------------------------
  free energy    TOTEN  =       -28.03453738 eV

  energy without entropy =      -28.03453738  energy(sigma->0) =      -28.03453738


--------------------------------------------------------------------------------------------------------




--------------------------------------- Iteration      1(  10)  ---------------------------------------


    POTLOK:  cpu time   13.3050: real time   13.3272
    SETDIJ:  cpu time    0.0484: real time    0.0484
     EDDAV:  cpu time   14.1486: real time   14.1776
       DOS:  cpu time    0.0034: real time    0.0034
    CHARGE:  cpu time    5.0099: real time    5.0185
    MIXING:  cpu time    0.3114: real time    0.3119
    --------------------------------------------
      LOOP:  cpu time   32.8267: real time   32.8870

 eigenvalue-minimisations  :    96
 total energy-change (2. order) :-0.2536698E-02  (-0.1036232E-02)
 number of electron      17.9999999 magnetization 
 augmentation part        2.6891682 magnetization 

 Broyden mixing:
  rms(total) = 0.41093E-01    rms(broyden)= 0.41093E-01
  rms(prec ) = 0.41946E-01
  weight for this iteration     100.00

 eigenvalues of (default mixing * dielectric matrix)
  average eigenvalue GAMMA=   1.5053
  2.5715  1.6446  1.6446  0.7028  0.9630

 Free energy of the ion-electron system (eV)
  ---------------------------------------------------
  alpha Z        PSCENC =         0.02234163
  Ewald energy   TEWEN  =       605.69564822
  -Hartree energ DENC   =     -1472.41062194
  -exchange      EXHF   =         0.00000000
  -V(xc)+E(xc)   XCENC  =        74.81844550
  PAW double counting   =      3707.68778982    -3718.22171968
  entropy T*S    EENTRO =        -0.00000000
  eigenvalues    EBANDS =      -262.51824328
  atomic energy  EATOM  =      1036.88928565
  Solvation  Ediel_sol  =         0.00000000
  ---------------------------------------------------
  free energy    TOTEN  =       -28.03707407 eV

  energy without entropy =      -28.03707407  energy(sigma->0) =      -28.03707407


--------------------------------------------------------------------------------------------------------




--------------------------------------- Iteration      1(  11)  ---------------------------------------


    POTLOK:  cpu time   13.2785: real time   13.3002
    SETDIJ:  cpu time    0.0486: real time    0.0486
     EDDAV:  cpu time   14.1207: real time   14.1489
       DOS:  cpu time    0.0002: real time    0.0002
    CHARGE:  cpu time    5.3407: real time    5.3487
    MIXING:  cpu time    0.3073: real time    0.3079
    --------------------------------------------
      LOOP:  cpu time   33.0960: real time   33.1545

 eigenvalue-minimisations  :    96
 total energy-change (2. order) :-0.2499731E-02  (-0.1267702E-03)
 number of electron      17.9999999 magnetization 
 augmentation part        2.6873383 magnetization 

 Broyden mixing:
  rms(total) = 0.20607E-01    rms(broyden)= 0.20607E-01
  rms(prec ) = 0.21505E-01
  weight for this iteration     100.00

 eigenvalues of (default mixing * dielectric matrix)
  average eigenvalue GAMMA=   1.5755
  2.5252  2.5252  1.5841  0.7065  0.9941  1.1179

 Free energy of the ion-electron system (eV)
  ---------------------------------------------------
  alpha Z        PSCENC =         0.02234163
  Ewald energy   TEWEN  =       605.69564822
  -Hartree energ DENC   =     -1473.35123654
  -exchange      EXHF   =         0.00000000
  -V(xc)+E(xc)   XCENC  =        74.83633284
  PAW double counting   =      3720.28846832    -3730.81058840
  entropy T*S    EENTRO =        -0.00000000
  eigenvalues    EBANDS =      -261.60982553
  atomic energy  EATOM  =      1036.88928565
  Solvation  Ediel_sol  =         0.00000000
  ---------------------------------------------------
  free energy    TOTEN  =       -28.03957380 eV

  energy without entropy =      -28.03957380  energy(sigma->0) =      -28.03957380


--------------------------------------------------------------------------------------------------------




--------------------------------------- Iteration      1(  12)  ---------------------------------------


    POTLOK:  cpu time   13.3842: real time   13.4071
    SETDIJ:  cpu time    0.0485: real time    0.0485
     EDDAV:  cpu time   10.6456: real time   10.6689
       DOS:  cpu time    0.0102: real time    0.0102
    CHARGE:  cpu time    5.0930: real time    5.1010
    MIXING:  cpu time    0.2742: real time    0.2747
    --------------------------------------------
      LOOP:  cpu time   29.4557: real time   29.5103

 eigenvalue-minimisations  :    64
 total energy-change (2. order) :-0.3209828E-02  (-0.6237366E-04)
 number of electron      17.9999999 magnetization 
 augmentation part        2.6875592 magnetization 

 Broyden mixing:
  rms(total) = 0.56130E-02    rms(broyden)= 0.56130E-02
  rms(prec ) = 0.71433E-02
  weight for this iteration     100.00

 eigenvalues of (default mixing * dielectric matrix)
  average eigenvalue GAMMA=   1.7809
  3.3803  2.5930  2.3398  0.7073  0.9492  1.0894  1.4074

 Free energy of the ion-electron system (eV)
  ---------------------------------------------------
  alpha Z        PSCENC =         0.02234163
  Ewald energy   TEWEN  =       605.69564822
  -Hartree energ DENC   =     -1474.01329028
  -exchange      EXHF   =         0.00000000
  -V(xc)+E(xc)   XCENC  =        74.84146389
  PAW double counting   =      3712.70410024    -3723.21518035
  entropy T*S    EENTRO =        -0.00000000
  eigenvalues    EBANDS =      -260.96715263
  atomic energy  EATOM  =      1036.88928565
  Solvation  Ediel_sol  =         0.00000000
  ---------------------------------------------------
  free energy    TOTEN  =       -28.04278363 eV

  energy without entropy =      -28.04278363  energy(sigma->0) =      -28.04278363


--------------------------------------------------------------------------------------------------------




--------------------------------------- Iteration      1(  13)  ---------------------------------------


    POTLOK:  cpu time   13.2743: real time   13.2963
    SETDIJ:  cpu time    0.0485: real time    0.0485
     EDDAV:  cpu time   10.6251: real time   10.6464
       DOS:  cpu time    0.0021: real time    0.0021
    CHARGE:  cpu time    5.3146: real time    5.3224
    MIXING:  cpu time    0.2859: real time    0.2865
    --------------------------------------------
      LOOP:  cpu time   29.5505: real time   29.6022

 eigenvalue-minimisations  :    64
 total energy-change (2. order) :-0.4642184E-02  (-0.1117744E-03)
 number of electron      17.9999999 magnetization 
 augmentation part        2.6867933 magnetization 

 Broyden mixing:
  rms(total) = 0.35556E-02    rms(broyden)= 0.35556E-02
  rms(prec ) = 0.42793E-02
  weight for this iteration     100.00

 eigenvalues of (default mixing * dielectric matrix)
  average eigenvalue GAMMA=   1.8053
  4.3118  2.5625  2.2902  1.5821  0.7069  1.0396  1.0396  0.9099

 Free energy of the ion-electron system (eV)
  ---------------------------------------------------
  alpha Z        PSCENC =         0.02234163
  Ewald energy   TEWEN  =       605.69564822
  -Hartree energ DENC   =     -1474.94108113
  -exchange      EXHF   =         0.00000000
  -V(xc)+E(xc)   XCENC  =        74.85262724
  PAW double counting   =      3709.67764530    -3720.18555725
  entropy T*S    EENTRO =        -0.00000000
  eigenvalues    EBANDS =      -260.05833548
  atomic energy  EATOM  =      1036.88928565
  Solvation  Ediel_sol  =         0.00000000
  ---------------------------------------------------
  free energy    TOTEN  =       -28.04742582 eV

  energy without entropy =      -28.04742582  energy(sigma->0) =      -28.04742582


--------------------------------------------------------------------------------------------------------




--------------------------------------- Iteration      1(  14)  ---------------------------------------


    POTLOK:  cpu time   13.3438: real time   13.3656
    SETDIJ:  cpu time    0.0484: real time    0.0484
     EDDAV:  cpu time   17.6102: real time   17.6487
       DOS:  cpu time    0.0105: real time    0.0105
    CHARGE:  cpu time    5.0401: real time    5.0480
    MIXING:  cpu time    0.2729: real time    0.2735
    --------------------------------------------
      LOOP:  cpu time   36.3260: real time   36.3948

 eigenvalue-minimisations  :   128
 total energy-change (2. order) :-0.2049092E-02  (-0.1960410E-04)
 number of electron      17.9999999 magnetization 
 augmentation part        2.6865158 magnetization 

 Broyden mixing:
  rms(total) = 0.20245E-02    rms(broyden)= 0.20245E-02
  rms(prec ) = 0.25894E-02
  weight for this iteration     100.00

 eigenvalues of (default mixing * dielectric matrix)
  average eigenvalue GAMMA=   1.8333
  4.6533  2.7091  2.1204  2.1204  0.7068  1.1641  1.1641  0.9309  0.9309

 Free energy of the ion-electron system (eV)
  ---------------------------------------------------
  alpha Z        PSCENC =         0.02234163
  Ewald energy   TEWEN  =       605.69564822
  -Hartree energ DENC   =     -1475.25893008
  -exchange      EXHF   =         0.00000000
  -V(xc)+E(xc)   XCENC  =        74.85354284
  PAW double counting   =      3709.06060031    -3719.56595923
  entropy T*S    EENTRO =        -0.00000000
  eigenvalues    EBANDS =      -259.74600425
  atomic energy  EATOM  =      1036.88928565
  Solvation  Ediel_sol  =         0.00000000
  ---------------------------------------------------
  free energy    TOTEN  =       -28.04947491 eV

  energy without entropy =      -28.04947491  energy(sigma->0) =      -28.04947491


--------------------------------------------------------------------------------------------------------




--------------------------------------- Iteration      1(  15)  ---------------------------------------


    POTLOK:  cpu time   13.2928: real time   13.3148
    SETDIJ:  cpu time    0.0485: real time    0.0485
     EDDAV:  cpu time   10.6163: real time   10.6389
       DOS:  cpu time    0.0182: real time    0.0182
    CHARGE:  cpu time    5.2835: real time    5.2916
    MIXING:  cpu time    0.3057: real time    0.3064
    --------------------------------------------
      LOOP:  cpu time   29.5648: real time   29.6184

 eigenvalue-minimisations  :    64
 total energy-change (2. order) :-0.2012161E-02  (-0.1188710E-04)
 number of electron      17.9999999 magnetization 
 augmentation part        2.6866569 magnetization 

 Broyden mixing:
  rms(total) = 0.14144E-02    rms(broyden)= 0.14144E-02
  rms(prec ) = 0.17609E-02
  weight for this iteration     100.00

 eigenvalues of (default mixing * dielectric matrix)
  average eigenvalue GAMMA=   1.9308
  5.8990  2.7191  2.6038  1.6570  1.6570  0.7067  0.9712  0.9712  1.0614  1.0614

 Free energy of the ion-electron system (eV)
  ---------------------------------------------------
  alpha Z        PSCENC =         0.02234163
  Ewald energy   TEWEN  =       605.69564822
  -Hartree energ DENC   =     -1475.42660602
  -exchange      EXHF   =         0.00000000
  -V(xc)+E(xc)   XCENC  =        74.85127502
  PAW double counting   =      3708.45086631    -3718.95424843
  entropy T*S    EENTRO =        -0.00000000
  eigenvalues    EBANDS =      -259.58004946
  atomic energy  EATOM  =      1036.88928565
  Solvation  Ediel_sol  =         0.00000000
  ---------------------------------------------------
  free energy    TOTEN  =       -28.05148707 eV

  energy without entropy =      -28.05148707  energy(sigma->0) =      -28.05148707


--------------------------------------------------------------------------------------------------------




--------------------------------------- Iteration      1(  16)  ---------------------------------------


    POTLOK:  cpu time   13.3519: real time   13.3738
    SETDIJ:  cpu time    0.0484: real time    0.0484
     EDDAV:  cpu time   17.6197: real time   17.6555
       DOS:  cpu time    0.0040: real time    0.0040
    CHARGE:  cpu time    5.3167: real time    5.3259
    MIXING:  cpu time    0.3224: real time    0.3231
    --------------------------------------------
      LOOP:  cpu time   36.6631: real time   36.7307

 eigenvalue-minimisations  :   128
 total energy-change (2. order) :-0.1389751E-02  (-0.1407849E-04)
 number of electron      17.9999999 magnetization 
 augmentation part        2.6863673 magnetization 

 Broyden mixing:
  rms(total) = 0.97859E-03    rms(broyden)= 0.97859E-03
  rms(prec ) = 0.11335E-02
  weight for this iteration     100.00

 eigenvalues of (default mixing * dielectric matrix)
  average eigenvalue GAMMA=   1.9978
  6.7339  3.1690  2.3249  2.3249  1.7212  0.7068  1.1210  0.9162  0.9950  0.9813
  0.9813

 Free energy of the ion-electron system (eV)
  ---------------------------------------------------
  alpha Z        PSCENC =         0.02234163
  Ewald energy   TEWEN  =       605.69564822
  -Hartree energ DENC   =     -1475.65017756
  -exchange      EXHF   =         0.00000000
  -V(xc)+E(xc)   XCENC  =        74.85314305
  PAW double counting   =      3708.79159774    -3719.29531208
  entropy T*S    EENTRO =        -0.00000000
  eigenvalues    EBANDS =      -259.35940347
  atomic energy  EATOM  =      1036.88928565
  Solvation  Ediel_sol  =         0.00000000
  ---------------------------------------------------
  free energy    TOTEN  =       -28.05287682 eV

  energy without entropy =      -28.05287682  energy(sigma->0) =      -28.05287682


--------------------------------------------------------------------------------------------------------




--------------------------------------- Iteration      1(  17)  ---------------------------------------


    POTLOK:  cpu time   13.3257: real time   13.3480
    SETDIJ:  cpu time    0.0485: real time    0.0485
     EDDAV:  cpu time   10.6296: real time   10.6509
       DOS:  cpu time    0.0102: real time    0.0102
    CHARGE:  cpu time    5.3496: real time    5.3578
    MIXING:  cpu time    0.3374: real time    0.3381
    --------------------------------------------
      LOOP:  cpu time   29.7010: real time   29.7535

 eigenvalue-minimisations  :    64
 total energy-change (2. order) :-0.8261801E-03  (-0.4116614E-05)
 number of electron      17.9999999 magnetization 
 augmentation part        2.6864103 magnetization 

 Broyden mixing:
  rms(total) = 0.48477E-03    rms(broyden)= 0.48477E-03
  rms(prec ) = 0.59003E-03
  weight for this iteration     100.00

 eigenvalues of (default mixing * dielectric matrix)
  average eigenvalue GAMMA=   2.1139
  7.3789  3.8487  2.6268  2.4715  1.8984  1.5033  0.7068  1.0249  1.0249  0.9668
  0.9580  0.9580

 Free energy of the ion-electron system (eV)
  ---------------------------------------------------
  alpha Z        PSCENC =         0.02234163
  Ewald energy   TEWEN  =       605.69564822
  -Hartree energ DENC   =     -1475.68640162
  -exchange      EXHF   =         0.00000000
  -V(xc)+E(xc)   XCENC  =        74.85137001
  PAW double counting   =      3708.10529636    -3718.60838302
  entropy T*S    EENTRO =        -0.00000000
  eigenvalues    EBANDS =      -259.32286023
  atomic energy  EATOM  =      1036.88928565
  Solvation  Ediel_sol  =         0.00000000
  ---------------------------------------------------
  free energy    TOTEN  =       -28.05370300 eV

  energy without entropy =      -28.05370300  energy(sigma->0) =      -28.05370300


--------------------------------------------------------------------------------------------------------




--------------------------------------- Iteration      1(  18)  ---------------------------------------


    POTLOK:  cpu time   13.3266: real time   13.3495
    SETDIJ:  cpu time    0.0484: real time    0.0485
     EDDAV:  cpu time   17.5496: real time   17.5854
       DOS:  cpu time    0.0049: real time    0.0049
    CHARGE:  cpu time    5.3061: real time    5.3142
    MIXING:  cpu time    0.3264: real time    0.3271
    --------------------------------------------
      LOOP:  cpu time   36.5620: real time   36.6296

 eigenvalue-minimisations  :   128
 total energy-change (2. order) :-0.6051352E-03  (-0.3857184E-05)
 number of electron      17.9999999 magnetization 
 augmentation part        2.6863557 magnetization 

 Broyden mixing:
  rms(total) = 0.43675E-03    rms(broyden)= 0.43675E-03
  rms(prec ) = 0.46543E-03
  weight for this iteration     100.00

 eigenvalues of (default mixing * dielectric matrix)
  average eigenvalue GAMMA=   2.1725
  8.0420  4.5256  2.6269  2.6269  2.0370  1.8582  0.7067  1.0832  1.0832  0.9366
  0.9366  0.9396  0.8406

 Free energy of the ion-electron system (eV)
  ---------------------------------------------------
  alpha Z        PSCENC =         0.02234163
  Ewald energy   TEWEN  =       605.69564822
  -Hartree energ DENC   =     -1475.69783038
  -exchange      EXHF   =         0.00000000
  -V(xc)+E(xc)   XCENC  =        74.85039039
  PAW double counting   =      3708.17938921    -3718.68256706
  entropy T*S    EENTRO =        -0.00000000
  eigenvalues    EBANDS =      -259.31096580
  atomic energy  EATOM  =      1036.88928565
  Solvation  Ediel_sol  =         0.00000000
  ---------------------------------------------------
  free energy    TOTEN  =       -28.05430814 eV

  energy without entropy =      -28.05430814  energy(sigma->0) =      -28.05430814


--------------------------------------------------------------------------------------------------------




--------------------------------------- Iteration      1(  19)  ---------------------------------------


    POTLOK:  cpu time   13.3012: real time   13.3236
    SETDIJ:  cpu time    0.0830: real time    0.0830
     EDDAV:  cpu time   17.6403: real time   17.6768
       DOS:  cpu time    0.0134: real time    0.0134
    CHARGE:  cpu time    5.1713: real time    5.1791
    MIXING:  cpu time    0.3597: real time    0.3605
    --------------------------------------------
      LOOP:  cpu time   36.5689: real time   36.6363

 eigenvalue-minimisations  :   128
 total energy-change (2. order) :-0.1970067E-03  (-0.5623549E-06)
 number of electron      17.9999999 magnetization 
 augmentation part        2.6864079 magnetization 

 Broyden mixing:
  rms(total) = 0.21899E-03    rms(broyden)= 0.21899E-03
  rms(prec ) = 0.23769E-03
  weight for this iteration     100.00

 eigenvalues of (default mixing * dielectric matrix)
  average eigenvalue GAMMA=   2.2102
  8.7009  4.7694  3.1175  2.5280  2.3951  1.7594  0.7068  1.1691  0.9817  0.9817
  1.0161  1.0161  0.9007  0.9007

 Free energy of the ion-electron system (eV)
  ---------------------------------------------------
  alpha Z        PSCENC =         0.02234163
  Ewald energy   TEWEN  =       605.69564822
  -Hartree energ DENC   =     -1475.69537213
  -exchange      EXHF   =         0.00000000
  -V(xc)+E(xc)   XCENC  =        74.84963660
  PAW double counting   =      3707.98470652    -3718.48776277
  entropy T*S    EENTRO =        -0.00000000
  eigenvalues    EBANDS =      -259.31298886
  atomic energy  EATOM  =      1036.88928565
  Solvation  Ediel_sol  =         0.00000000
  ---------------------------------------------------
  free energy    TOTEN  =       -28.05450514 eV

  energy without entropy =      -28.05450514  energy(sigma->0) =      -28.05450514


--------------------------------------------------------------------------------------------------------




--------------------------------------- Iteration      1(  20)  ---------------------------------------


    POTLOK:  cpu time   13.3559: real time   13.3785
    SETDIJ:  cpu time    0.0484: real time    0.0485
     EDDAV:  cpu time   17.6483: real time   17.6840
       DOS:  cpu time    0.0074: real time    0.0074
    CHARGE:  cpu time    5.3012: real time    5.3088
    MIXING:  cpu time    0.3745: real time    0.3753
    --------------------------------------------
      LOOP:  cpu time   36.7357: real time   36.8024

 eigenvalue-minimisations  :   128
 total energy-change (2. order) :-0.9065737E-04  (-0.1083612E-06)
 number of electron      17.9999999 magnetization 
 augmentation part        2.6864005 magnetization 

 Broyden mixing:
  rms(total) = 0.12509E-03    rms(broyden)= 0.12509E-03
  rms(prec ) = 0.13698E-03
  weight for this iteration     100.00

 eigenvalues of (default mixing * dielectric matrix)
  average eigenvalue GAMMA=   2.2733
  8.9133  5.2299  2.9865  2.9865  2.4824  2.2739  1.7298  0.7068  1.1242  0.9838
  0.9838  0.9623  0.9623  0.8873  0.8873

 Free energy of the ion-electron system (eV)
  ---------------------------------------------------
  alpha Z        PSCENC =         0.02234163
  Ewald energy   TEWEN  =       605.69564822
  -Hartree energ DENC   =     -1475.70138472
  -exchange      EXHF   =         0.00000000
  -V(xc)+E(xc)   XCENC  =        74.84961923
  PAW double counting   =      3707.93480194    -3718.43794531
  entropy T*S    EENTRO =        -0.00000000
  eigenvalues    EBANDS =      -259.30696244
  atomic energy  EATOM  =      1036.88928565
  Solvation  Ediel_sol  =         0.00000000
  ---------------------------------------------------
  free energy    TOTEN  =       -28.05459580 eV

  energy without entropy =      -28.05459580  energy(sigma->0) =      -28.05459580


--------------------------------------------------------------------------------------------------------




--------------------------------------- Iteration      1(  21)  ---------------------------------------


    POTLOK:  cpu time   13.3106: real time   13.3337
    SETDIJ:  cpu time    0.0485: real time    0.0485
     EDDAV:  cpu time   17.6017: real time   17.6398
       DOS:  cpu time    0.0105: real time    0.0105
    CHARGE:  cpu time    5.1248: real time    5.1329
    MIXING:  cpu time    0.3686: real time    0.3693
    --------------------------------------------
      LOOP:  cpu time   36.4648: real time   36.5347

 eigenvalue-minimisations  :   128
 total energy-change (2. order) :-0.6510401E-04  (-0.5933056E-07)
 number of electron      17.9999999 magnetization 
 augmentation part        2.6863911 magnetization 

 Broyden mixing:
  rms(total) = 0.79916E-04    rms(broyden)= 0.79916E-04
  rms(prec ) = 0.84619E-04
  weight for this iteration     100.00

 eigenvalues of (default mixing * dielectric matrix)
  average eigenvalue GAMMA=   2.2912
  9.0655  5.9153  3.7810  2.6218  2.6218  2.3001  1.7358  0.7068  1.1608  1.0118
  1.0118  1.0119  1.0119  0.9291  0.9291  0.8452

 Free energy of the ion-electron system (eV)
  ---------------------------------------------------
  alpha Z        PSCENC =         0.02234163
  Ewald energy   TEWEN  =       605.69564822
  -Hartree energ DENC   =     -1475.70227322
  -exchange      EXHF   =         0.00000000
  -V(xc)+E(xc)   XCENC  =        74.84956167
  PAW double counting   =      3707.97324854    -3718.47645877
  entropy T*S    EENTRO =        -0.00000000
  eigenvalues    EBANDS =      -259.30601463
  atomic energy  EATOM  =      1036.88928565
  Solvation  Ediel_sol  =         0.00000000
  ---------------------------------------------------
  free energy    TOTEN  =       -28.05466090 eV

  energy without entropy =      -28.05466090  energy(sigma->0) =      -28.05466090


--------------------------------------------------------------------------------------------------------




--------------------------------------- Iteration      1(  22)  ---------------------------------------


    POTLOK:  cpu time   13.3001: real time   13.3225
    SETDIJ:  cpu time    0.0485: real time    0.0485
     EDDAV:  cpu time   17.6019: real time   17.6387
       DOS:  cpu time    0.0164: real time    0.0164
    CHARGE:  cpu time    5.0224: real time    5.0301
    MIXING:  cpu time    0.4258: real time    0.4266
    --------------------------------------------
      LOOP:  cpu time   36.4149: real time   36.4828

 eigenvalue-minimisations  :   128
 total energy-change (2. order) :-0.2051475E-04  (-0.2081129E-07)
 number of electron      17.9999999 magnetization 
 augmentation part        2.6863970 magnetization 

 Broyden mixing:
  rms(total) = 0.28600E-04    rms(broyden)= 0.28600E-04
  rms(prec ) = 0.33035E-04
  weight for this iteration     100.00

 eigenvalues of (default mixing * dielectric matrix)
  average eigenvalue GAMMA=   2.3023
  9.2892  6.1874  4.1573  2.7950  2.5168  2.2982  1.7982  1.6295  1.1621  0.7068
  1.0000  1.0000  0.9750  0.9750  0.8940  0.8769  0.8769

 Free energy of the ion-electron system (eV)
  ---------------------------------------------------
  alpha Z        PSCENC =         0.02234163
  Ewald energy   TEWEN  =       605.69564822
  -Hartree energ DENC   =     -1475.70170592
  -exchange      EXHF   =         0.00000000
  -V(xc)+E(xc)   XCENC  =        74.84950914
  PAW double counting   =      3707.99252361    -3718.49570271
  entropy T*S    EENTRO =        -0.00000000
  eigenvalues    EBANDS =      -259.30658104
  atomic energy  EATOM  =      1036.88928565
  Solvation  Ediel_sol  =         0.00000000
  ---------------------------------------------------
  free energy    TOTEN  =       -28.05468142 eV

  energy without entropy =      -28.05468142  energy(sigma->0) =      -28.05468142


--------------------------------------------------------------------------------------------------------




--------------------------------------- Iteration      1(  23)  ---------------------------------------


    POTLOK:  cpu time   13.3050: real time   13.3277
    SETDIJ:  cpu time    0.0694: real time    0.0695
     EDDAV:  cpu time   17.6332: real time   17.6684
       DOS:  cpu time    0.0051: real time    0.0051
    CHARGE:  cpu time    5.0584: real time    5.0661
    MIXING:  cpu time    0.4293: real time    0.4301
    --------------------------------------------
      LOOP:  cpu time   36.5005: real time   36.5669

 eigenvalue-minimisations  :   128
 total energy-change (2. order) :-0.1189284E-04  (-0.5828415E-08)
 number of electron      17.9999999 magnetization 
 augmentation part        2.6863933 magnetization 

 Broyden mixing:
  rms(total) = 0.18511E-04    rms(broyden)= 0.18511E-04
  rms(prec ) = 0.20797E-04
  weight for this iteration     100.00

 eigenvalues of (default mixing * dielectric matrix)
  average eigenvalue GAMMA=   2.3608
  9.3099  6.6990  4.5644  3.2892  2.6020  2.6020  2.2496  1.7296  0.7068  1.0013
  1.0013  1.0952  1.0253  1.0253  0.9790  0.9151  0.8498  0.8498

 Free energy of the ion-electron system (eV)
  ---------------------------------------------------
  alpha Z        PSCENC =         0.02234163
  Ewald energy   TEWEN  =       605.69564822
  -Hartree energ DENC   =     -1475.70315362
  -exchange      EXHF   =         0.00000000
  -V(xc)+E(xc)   XCENC  =        74.84953825
  PAW double counting   =      3707.99376413    -3718.49695022
  entropy T*S    EENTRO =        -0.00000000
  eigenvalues    EBANDS =      -259.30516735
  atomic energy  EATOM  =      1036.88928565
  Solvation  Ediel_sol  =         0.00000000
  ---------------------------------------------------
  free energy    TOTEN  =       -28.05469331 eV

  energy without entropy =      -28.05469331  energy(sigma->0) =      -28.05469331


--------------------------------------------------------------------------------------------------------




--------------------------------------- Iteration      1(  24)  ---------------------------------------


    POTLOK:  cpu time   13.2787: real time   13.3010
    SETDIJ:  cpu time    0.0485: real time    0.0485
     EDDAV:  cpu time   17.6379: real time   17.6739
       DOS:  cpu time    0.0099: real time    0.0099
    CHARGE:  cpu time    5.0258: real time    5.0334
    MIXING:  cpu time    0.4359: real time    0.4395
    --------------------------------------------
      LOOP:  cpu time   36.4367: real time   36.5062

 eigenvalue-minimisations  :   128
 total energy-change (2. order) :-0.7372343E-05  (-0.4732042E-08)
 number of electron      17.9999999 magnetization 
 augmentation part        2.6863930 magnetization 

 Broyden mixing:
  rms(total) = 0.15538E-04    rms(broyden)= 0.15538E-04
  rms(prec ) = 0.16191E-04
  weight for this iteration     100.00

 eigenvalues of (default mixing * dielectric matrix)
  average eigenvalue GAMMA=   2.4087
  9.6146  6.7150  5.1177  3.2993  2.9364  2.4807  2.3965  2.0315  1.7175  0.7068
  1.1152  0.9926  0.9926  1.0282  0.9668  0.9668  0.9110  0.9110  0.8652

 Free energy of the ion-electron system (eV)
  ---------------------------------------------------
  alpha Z        PSCENC =         0.02234163
  Ewald energy   TEWEN  =       605.69564822
  -Hartree energ DENC   =     -1475.70344275
  -exchange      EXHF   =         0.00000000
  -V(xc)+E(xc)   XCENC  =        74.84954290
  PAW double counting   =      3708.00152328    -3718.50470192
  entropy T*S    EENTRO =        -0.00000000
  eigenvalues    EBANDS =      -259.30489769
  atomic energy  EATOM  =      1036.88928565
  Solvation  Ediel_sol  =         0.00000000
  ---------------------------------------------------
  free energy    TOTEN  =       -28.05470068 eV

  energy without entropy =      -28.05470068  energy(sigma->0) =      -28.05470068


--------------------------------------------------------------------------------------------------------




--------------------------------------- Iteration      1(  25)  ---------------------------------------


    POTLOK:  cpu time   13.2667: real time   13.2887
    SETDIJ:  cpu time    0.0484: real time    0.0485
     EDDAV:  cpu time   17.5222: real time   17.5578
       DOS:  cpu time    0.0221: real time    0.0221
    CHARGE:  cpu time    5.0786: real time    5.0884
    MIXING:  cpu time    0.4637: real time    0.4646
    --------------------------------------------
      LOOP:  cpu time   36.4018: real time   36.4700

 eigenvalue-minimisations  :   128
 total energy-change (2. order) :-0.2644050E-05  (-0.2191891E-08)
 number of electron      17.9999999 magnetization 
 augmentation part        2.6863947 magnetization 

 Broyden mixing:
  rms(total) = 0.73412E-05    rms(broyden)= 0.73412E-05
  rms(prec ) = 0.77190E-05
  weight for this iteration     100.00

 eigenvalues of (default mixing * dielectric matrix)
  average eigenvalue GAMMA=   2.4215
  9.6236  7.1433  5.3353  3.9296  2.9122  2.5547  2.5547  2.2261  1.7322  0.7068
  1.1046  0.9980  0.9980  1.0187  1.0187  0.9705  0.9705  0.8747  0.8790  0.8790

 Free energy of the ion-electron system (eV)
  ---------------------------------------------------
  alpha Z        PSCENC =         0.02234163
  Ewald energy   TEWEN  =       605.69564822
  -Hartree energ DENC   =     -1475.70351195
  -exchange      EXHF   =         0.00000000
  -V(xc)+E(xc)   XCENC  =        74.84953161
  PAW double counting   =      3707.99637957    -3718.49955133
  entropy T*S    EENTRO =        -0.00000000
  eigenvalues    EBANDS =      -259.30482673
  atomic energy  EATOM  =      1036.88928565
  Solvation  Ediel_sol  =         0.00000000
  ---------------------------------------------------
  free energy    TOTEN  =       -28.05470333 eV

  energy without entropy =      -28.05470333  energy(sigma->0) =      -28.05470333


--------------------------------------------------------------------------------------------------------




--------------------------------------- Iteration      1(  26)  ---------------------------------------


    POTLOK:  cpu time   13.3167: real time   13.3393
    SETDIJ:  cpu time    0.0485: real time    0.0485
     EDDAV:  cpu time   17.6370: real time   17.6725
       DOS:  cpu time    0.0107: real time    0.0107
    CHARGE:  cpu time    4.9854: real time    4.9931
    MIXING:  cpu time    0.4752: real time    0.4762
    --------------------------------------------
      LOOP:  cpu time   36.4735: real time   36.5402

 eigenvalue-minimisations  :   128
 total energy-change (2. order) :-0.9463115E-06  (-0.1840483E-08)
 number of electron      17.9999999 magnetization 
 augmentation part        2.6863946 magnetization 

 Broyden mixing:
  rms(total) = 0.52758E-05    rms(broyden)= 0.52758E-05
  rms(prec ) = 0.54405E-05
  weight for this iteration     100.00

 eigenvalues of (default mixing * dielectric matrix)
  average eigenvalue GAMMA=   2.4564
  9.6654  7.2882  5.5445  4.0829  2.8242  2.8242  2.6776  2.4005  2.1763  1.7327
  0.7068  0.9951  0.9951  1.1152  1.0311  0.9723  0.9723  0.8907  0.8907  0.9229
  0.8752

 Free energy of the ion-electron system (eV)
  ---------------------------------------------------
  alpha Z        PSCENC =         0.02234163
  Ewald energy   TEWEN  =       605.69564822
  -Hartree energ DENC   =     -1475.70335622
  -exchange      EXHF   =         0.00000000
  -V(xc)+E(xc)   XCENC  =        74.84952705
  PAW double counting   =      3707.99361619    -3718.49679249
  entropy T*S    EENTRO =        -0.00000000
  eigenvalues    EBANDS =      -259.30497430
  atomic energy  EATOM  =      1036.88928565
  Solvation  Ediel_sol  =         0.00000000
  ---------------------------------------------------
  free energy    TOTEN  =       -28.05470427 eV

  energy without entropy =      -28.05470427  energy(sigma->0) =      -28.05470427


--------------------------------------------------------------------------------------------------------




--------------------------------------- Iteration      1(  27)  ---------------------------------------


    POTLOK:  cpu time   13.2603: real time   13.2819
    SETDIJ:  cpu time    0.0484: real time    0.0485
     EDDAV:  cpu time   17.7137: real time   17.7495
       DOS:  cpu time    0.0060: real time    0.0060
    CHARGE:  cpu time    5.0503: real time    5.0580
    MIXING:  cpu time    0.4914: real time    0.4924
    --------------------------------------------
      LOOP:  cpu time   36.5702: real time   36.6363

 eigenvalue-minimisations  :   128
 total energy-change (2. order) :-0.5805432E-06  (-0.1348806E-08)
 number of electron      17.9999999 magnetization 
 augmentation part        2.6863945 magnetization 

 Broyden mixing:
  rms(total) = 0.23797E-05    rms(broyden)= 0.23797E-05
  rms(prec ) = 0.24683E-05
  weight for this iteration     100.00

 eigenvalues of (default mixing * dielectric matrix)
  average eigenvalue GAMMA=   2.4694
  9.6431  7.7355  5.7840  4.5720  3.3613  2.8508  2.4840  2.4840  2.2142  1.7387
  0.7068  0.9997  0.9997  1.1140  1.0318  1.0318  0.9895  0.9643  0.9643  0.8697
  0.8933  0.8933

 Free energy of the ion-electron system (eV)
  ---------------------------------------------------
  alpha Z        PSCENC =         0.02234163
  Ewald energy   TEWEN  =       605.69564822
  -Hartree energ DENC   =     -1475.70331897
  -exchange      EXHF   =         0.00000000
  -V(xc)+E(xc)   XCENC  =        74.84952577
  PAW double counting   =      3707.99510749    -3718.49828474
  entropy T*S    EENTRO =        -0.00000000
  eigenvalues    EBANDS =      -259.30500991
  atomic energy  EATOM  =      1036.88928565
  Solvation  Ediel_sol  =         0.00000000
  ---------------------------------------------------
  free energy    TOTEN  =       -28.05470486 eV

  energy without entropy =      -28.05470486  energy(sigma->0) =      -28.05470486


--------------------------------------------------------------------------------------------------------




--------------------------------------- Iteration      1(  28)  ---------------------------------------


    POTLOK:  cpu time   13.2965: real time   13.3199
    SETDIJ:  cpu time    0.0485: real time    0.0485
     EDDAV:  cpu time   17.5894: real time   17.6267
       DOS:  cpu time    0.0064: real time    0.0064
    CHARGE:  cpu time    5.2682: real time    5.2758
    MIXING:  cpu time    0.5290: real time    0.5301
    --------------------------------------------
      LOOP:  cpu time   36.7380: real time   36.8074

 eigenvalue-minimisations  :   128
 total energy-change (2. order) :-0.1632241E-06  (-0.1026958E-08)
 number of electron      17.9999999 magnetization 
 augmentation part        2.6863945 magnetization 

 Broyden mixing:
  rms(total) = 0.16210E-05    rms(broyden)= 0.16210E-05
  rms(prec ) = 0.16675E-05
  weight for this iteration     100.00

 eigenvalues of (default mixing * dielectric matrix)
  average eigenvalue GAMMA=   2.5119
  9.6768  7.9608  6.0271  4.8305  3.6485  2.8395  2.6018  2.6018  2.2854  2.1262
  1.7483  0.7068  1.1495  0.9960  0.9960  1.0372  0.9780  0.9780  0.8908  0.8908
  0.9678  0.9557  0.8799

 Free energy of the ion-electron system (eV)
  ---------------------------------------------------
  alpha Z        PSCENC =         0.02234163
  Ewald energy   TEWEN  =       605.69564822
  -Hartree energ DENC   =     -1475.70329533
  -exchange      EXHF   =         0.00000000
  -V(xc)+E(xc)   XCENC  =        74.84952481
  PAW double counting   =      3707.99472057    -3718.49789807
  entropy T*S    EENTRO =        -0.00000000
  eigenvalues    EBANDS =      -259.30503251
  atomic energy  EATOM  =      1036.88928565
  Solvation  Ediel_sol  =         0.00000000
  ---------------------------------------------------
  free energy    TOTEN  =       -28.05470502 eV

  energy without entropy =      -28.05470502  energy(sigma->0) =      -28.05470502


--------------------------------------------------------------------------------------------------------




--------------------------------------- Iteration      1(  29)  ---------------------------------------


    POTLOK:  cpu time   13.2051: real time   13.2272
    SETDIJ:  cpu time    0.0484: real time    0.0484
     EDDAV:  cpu time   17.5615: real time   17.5996
       DOS:  cpu time    0.0088: real time    0.0088
    CHARGE:  cpu time    5.2612: real time    5.2692
    MIXING:  cpu time    0.5231: real time    0.5242
    --------------------------------------------
      LOOP:  cpu time   36.6081: real time   36.6776

 eigenvalue-minimisations  :   128
 total energy-change (2. order) :-0.1207966E-06  (-0.8469527E-09)
 number of electron      17.9999999 magnetization 
 augmentation part        2.6863944 magnetization 

 Broyden mixing:
  rms(total) = 0.41432E-06    rms(broyden)= 0.41432E-06
  rms(prec ) = 0.45252E-06
  weight for this iteration     100.00

 eigenvalues of (default mixing * dielectric matrix)
  average eigenvalue GAMMA=   2.5078
  9.6985  8.0817  6.2909  4.9488  3.9148  2.8062  2.8062  2.4037  2.4037  2.2431
  1.7389  1.4412  0.7068  0.9959  0.9959  1.1494  0.9771  0.9771  0.8951  0.8951
  1.0058  1.0058  0.9229  0.8829

 Free energy of the ion-electron system (eV)
  ---------------------------------------------------
  alpha Z        PSCENC =         0.02234163
  Ewald energy   TEWEN  =       605.69564822
  -Hartree energ DENC   =     -1475.70331878
  -exchange      EXHF   =         0.00000000
  -V(xc)+E(xc)   XCENC  =        74.84952598
  PAW double counting   =      3707.99540850    -3718.49858569
  entropy T*S    EENTRO =        -0.00000000
  eigenvalues    EBANDS =      -259.30501065
  atomic energy  EATOM  =      1036.88928565
  Solvation  Ediel_sol  =         0.00000000
  ---------------------------------------------------
  free energy    TOTEN  =       -28.05470514 eV

  energy without entropy =      -28.05470514  energy(sigma->0) =      -28.05470514


--------------------------------------------------------------------------------------------------------




--------------------------------------- Iteration      1(  30)  ---------------------------------------


    POTLOK:  cpu time   13.2739: real time   13.2963
    SETDIJ:  cpu time    0.0484: real time    0.0484
     EDDAV:  cpu time   17.6399: real time   17.6777
       DOS:  cpu time    0.0046: real time    0.0047
    --------------------------------------------
      LOOP:  cpu time   30.9668: real time   31.0271

 eigenvalue-minimisations  :   128
 total energy-change (2. order) :-0.3113109E-07  (-0.7719247E-09)
 number of electron      17.9999999 magnetization 
 augmentation part        2.6863944 magnetization 

 Free energy of the ion-electron system (eV)
  ---------------------------------------------------
  alpha Z        PSCENC =         0.02234163
  Ewald energy   TEWEN  =       605.69564822
  -Hartree energ DENC   =     -1475.70332076
  -exchange      EXHF   =         0.00000000
  -V(xc)+E(xc)   XCENC  =        74.84952603
  PAW double counting   =      3707.99561980    -3718.49879682
  entropy T*S    EENTRO =        -0.00000000
  eigenvalues    EBANDS =      -259.30500893
  atomic energy  EATOM  =      1036.88928565
  Solvation  Ediel_sol  =         0.00000000
  ---------------------------------------------------
  free energy    TOTEN  =       -28.05470517 eV

  energy without entropy =      -28.05470517  energy(sigma->0) =      -28.05470517


--------------------------------------------------------------------------------------------------------




 average (electrostatic) potential at core
  the test charge radii are     0.6256  0.8471  0.8742
  (the norm of the test charge is              1.0000)
       1 -41.4088       2 -41.4086       3 -86.3420       4 -93.4691       5 -90.6928
 
 
 
 E-fermi :  -7.1570     XC(G=0):  -0.0328     alpha+bet : -0.0076


 k-point     1 :       0.0000    0.0000    0.0000
  band No.  band energies     occupation 
      1     -29.2940      2.00000
      2     -25.4746      2.00000
      3     -13.5989      2.00000
      4     -13.1317      2.00000
      5     -11.5318      2.00000
      6     -11.5286      2.00000
      7      -9.1919      2.00000
      8      -8.6874      2.00000
      9      -7.2137      2.00000
     10      -1.9575      0.00000
     11      -1.9540      0.00000
     12      -0.9846      0.00000
     13      -0.0003      0.00000
     14       0.0906      0.00000
     15       0.1013      0.00000
     16       0.1141      0.00000
     17       0.1192      0.00000
     18       0.1205      0.00000
     19       0.1316      0.00000
     20       0.1858      0.00000
     21       0.1906      0.00000
     22       0.2225      0.00000
     23       0.2400      0.00000
     24       0.2408      0.00000
     25       0.2409      0.00000
     26       0.2422      0.00000
     27       0.2431      0.00000
     28       0.2447      0.00000
     29       0.2457      0.00000
     30       0.2457      0.00000
     31       0.2725      0.00000
     32       0.3207      0.00000


--------------------------------------------------------------------------------------------------------


 soft charge-density along one line, spin component            1
         0         1         2         3         4         5         6         7         8         9
 total charge-density along one line
 
 pseudopotential strength for first ion, spin component:            1
 -2.341  -3.716   0.013  -0.020   0.001
 -3.716  -5.732   0.026  -0.041   0.001
  0.013   0.026  -0.117  -0.014   0.001
 -0.020  -0.041  -0.014  -0.105  -0.001
  0.001   0.001   0.001  -0.001  -0.129
 total augmentation occupancy for first ion, spin component:            1
  2.827  -0.512  -0.599   0.858  -0.032
 -0.512   0.212   0.081  -0.093   0.004
 -0.599   0.081   0.182  -0.168   0.005
  0.858  -0.093  -0.168   0.310  -0.009
 -0.032   0.004   0.005  -0.009   0.103


------------------------ aborting loop because EDIFF is reached ----------------------------------------



 DIPCOR: dipole corrections for dipol
 direction  1 min pos   455, direction  2 min pos   458, direction  3 min pos   407,
 dipolmoment          -0.014175     -0.438547      0.017725 electrons x Angstroem
 Tr[quadrupol]         8.651841

 energy correction for charged system         0.000000 eV
 dipol+quadrupol energy correction            0.000136 eV
 added-field ion interaction          0.000000 eV  (added to PSCEN)

 
  *************** adding dipol energy to TOTEN NOW **************** 
    CHARGE:  cpu time    5.0113: real time    5.0189
    FORLOC:  cpu time    0.5603: real time    0.5611
    FORNL :  cpu time    0.3933: real time    0.3940
    STRESS:  cpu time   13.5604: real time   13.5863
    FORHAR:  cpu time    3.3521: real time    3.3580
    MIXING:  cpu time    0.5681: real time    0.5692
    OFIELD:  cpu time    0.0000: real time    0.0000

  Hirshfeld charges:
            ion         q(e)     
   ------------------------------
      1     H           0.148
      2     H           0.148
      3     C           0.063
      4     O          -0.067
      5     O          -0.293

  Hirshfeld-I charges:
            ion         q(e)        dq(e)    
   ------------------------------------------
      1     H           0.459      0.238E-04
      2     H           0.459      0.238E-04
      3     C           0.120     -0.767E-06
      4     O          -0.114      0.151E-05
      5     O          -0.923     -0.484E-04

   Hirshfeld-I converged in  18 cycles. Convergence criterion |dq|< 0.500E-04 e

  Atomic reference data used in the T-S method for vdW correction:
            C6at              R0at           ALPHAat      REFSTATE
            (au)              (au)            (au)                
   ---------------------------------------------------------------
   H           6.500          3.099          4.500         0
   C          46.600          3.590         12.000         0
   O          15.600          3.194          5.400         0

  Tkatchenko/Scheffler method for vdW energy calculation
  ---------------------------------------------------------------------------------------------

  Parameters of vdW forcefield:
            C6ts              R0ts           ALPHAts        RELVOL
            (au)              (au)            (au)                
   ---------------------------------------------------------------
   H           0.598          2.082          1.365          0.30324007
   H           0.596          2.081          1.362          0.30271674
   C          29.552          3.328          9.556          0.79634389
   O          13.500          3.118          5.023          0.93024466
   O          27.349          3.507          7.150          1.32406796

  vdW correction parametrized for the method pbe       

  IVDW =  21
  VDW_RADIUS =    50.000 A
  VDW_IDAMPF =  0
  VDW_S6 =     1.000
  VDW_SR =     0.950
  VDW_D =    20.000
  LVDW_ONECELL = F F F
  LVDW_SAMETYPE T T T
  LVDW_EWALD = F

  Number of pair interactions contributing to vdW energy:     234
  Edisp (eV):   -0.00747
    FORVDW:  cpu time   92.2785: real time   92.3351

  FORCE on cell =-STRESS in cart. coord.  units (eV):
  Direction    XX          YY          ZZ          XY          YZ          ZX
  --------------------------------------------------------------------------------------
  Alpha Z     0.02234     0.02234     0.02234
  Ewald     -63.38005   609.28972    59.78544     2.75379     1.98832    -1.42472
  Hartree   352.14644   750.16135   373.39551     0.65272     0.09014    -0.24713
  E(xc)     -79.80393   -78.32412   -79.32364     0.01051     0.00890    -0.00559
  Local    -644.75272 -1666.13501  -749.71008    -2.58476    -1.28937     1.21419
  n-local    60.12945    46.40888    55.28178    -0.13553    -0.05329     0.05783
  augment    91.13158    86.47426    83.63303    -0.15964    -0.14641     0.08713
  Kinetic   284.50666   258.94921   259.26677    -0.49465    -0.54140     0.29131
  Fock        0.00000     0.00000     0.00000     0.00000     0.00000     0.00000
  vdW        -0.00000     0.00013     0.00077    -0.00004     0.00015    -0.00001
  -------------------------------------------------------------------------------------
  Total      -0.00022     6.84675     2.35193     0.04239     0.05705    -0.02699
  in kB      -0.00001     0.25585     0.08789     0.00158     0.00213    -0.00101
  external pressure =        0.11 kB  Pullay stress =        0.00 kB


 VOLUME and BASIS-vectors are now :
 -----------------------------------------------------------------------------
  energy-cutoff  :     1000.00
  volume of cell :    42875.00
      direct lattice vectors                 reciprocal lattice vectors
    35.000000000  0.000000000  0.000000000     0.028571429  0.000000000  0.000000000
     0.000000000 35.000000000  0.000000000     0.000000000  0.028571429  0.000000000
     0.000000000  0.000000000 35.000000000     0.000000000  0.000000000  0.028571429

  length of vectors
    35.000000000 35.000000000 35.000000000     0.028571429  0.028571429  0.028571429


 FORCES acting on ions
    electron-ion (+dipol)            ewald-force                    non-local-force                 convergence-correction
 -----------------------------------------------------------------------------------------------
   -.272E+01 -.560E+02 0.759E+02   0.301E+01 0.612E+02 -.840E+02   -.234E+00 -.425E+01 0.650E+01   -.106E-07 -.464E-06 0.360E-06
   -.116E+01 -.627E+02 -.709E+02   0.129E+01 0.686E+02 0.785E+02   -.100E+00 -.484E+01 -.608E+01   -.321E-08 -.505E-06 -.320E-06
   0.194E-01 0.251E+03 -.382E-01   -.189E-01 -.288E+03 0.363E-01   -.591E-03 0.320E+02 0.277E-02   0.112E-06 0.245E-05 -.104E-08
   0.556E-01 -.130E+03 -.102E+00   -.603E-01 0.208E+03 0.124E+00   0.488E-02 -.738E+02 -.242E-01   0.110E-06 0.271E-05 0.239E-07
   0.172E+01 -.185E+02 -.219E+01   -.422E+01 -.499E+02 0.540E+01   0.243E+01 0.665E+02 -.312E+01   -.660E-07 -.329E-05 0.271E-06
 -----------------------------------------------------------------------------------------------
   -.210E+01 -.155E+02 0.271E+01   0.000E+00 0.213E-13 0.888E-15   0.210E+01 0.155E+02 -.271E+01   0.143E-06 0.907E-06 0.334E-06
 
 
 POSITION                                       TOTAL-FORCE (eV/Angst)
 -----------------------------------------------------------------------------------
      0.02970      5.08138     34.21499         0.053187      0.930598     -1.600216
      0.01365      5.15327      0.72944         0.020253      1.079713      1.505131
      0.00000      0.08826      0.00000        -0.000127     -4.871590      0.000929
      0.00000      1.22721      0.00000         0.000100      4.838732     -0.001667
      0.00000      4.52721      0.00000        -0.073412     -1.977453      0.095823
 -----------------------------------------------------------------------------------
    total drift:                                0.000001      0.000101     -0.000040


--------------------------------------------------------------------------------------------------------



  FREE ENERGIE OF THE ION-ELECTRON SYSTEM (eV)
  ---------------------------------------------------
  free  energy   TOTEN  =       -28.06203878 eV

  energy  without entropy=      -28.06203878  energy(sigma->0) =      -28.06203878
 


--------------------------------------------------------------------------------------------------------


    POTLOK:  cpu time   14.8339: real time   14.8569


--------------------------------------------------------------------------------------------------------


 writing wavefunctions
     LOOP+:  cpu time 1451.5793: real time 1453.6993
    4ORBIT:  cpu time    0.0000: real time    0.0000

 total amount of memory used by VASP MPI-rank0  4191804. kBytes
=======================================================================

   base      :      30000. kBytes
   nonl-proj :     418671. kBytes
   fftplans  :     676185. kBytes
   grid      :    3042313. kBytes
   one-center:          7. kBytes
   wavefun   :      24628. kBytes
 
  
  
 General timing and accounting informations for this job:
 ========================================================
  
                  Total CPU time used (sec):     2886.166
                            User time (sec):     2750.968
                          System time (sec):      135.197
                         Elapsed time (sec):     2892.151
  
                   Maximum memory used (kb):     5575220.
                   Average memory used (kb):           0.
  
                          Minor page faults:     80383747
                          Major page faults:          927
                 Voluntary context switches:        15627
