 vasp.6.1.2 22Jul20 (build Jan  6 2021 09:55:43) gamma-only                      
 executed on             LinuxPGI date 2023.10.20  09:50:49
 running on   32 total cores
 distrk:  each k-point on   32 cores,    1 groups
 distr:  one band on NCORE=   1 cores,   32 groups


--------------------------------------------------------------------------------------------------------


 INCAR:
 POTCAR:    PAW_PBE H_s 15May2010                 
 POTCAR:    PAW_PBE C_s 06Sep2000                 
 POTCAR:    PAW_PBE O_s 07Sep2000                 
 -----------------------------------------------------------------------------
|                                                                             |
|           W    W    AA    RRRRR   N    N  II  N    N   GGGG   !!!           |
|           W    W   A  A   R    R  NN   N  II  NN   N  G    G  !!!           |
|           W    W  A    A  R    R  N N  N  II  N N  N  G       !!!           |
|           W WW W  AAAAAA  RRRRR   N  N N  II  N  N N  G  GGG   !            |
|           WW  WW  A    A  R   R   N   NN  II  N   NN  G    G                |
|           W    W  A    A  R    R  N    N  II  N    N   GGGG   !!!           |
|                                                                             |
|     For optimal performance we recommend to set                             |
|       NCORE = 4 - approx SQRT(number of cores).                             |
|     NCORE specifies how many cores store one orbital (NPAR=cpu/NCORE).      |
|     This setting can greatly improve the performance of VASP for DFT.       |
|     The default, NCORE=1 might be grossly inefficient on modern             |
|     multi-core architectures or massively parallel machines. Do your        |
|     own testing!!!!                                                         |
|     Unfortunately you need to use the default for GW and RPA                |
|     calculations (for HF NCORE is supported but not extensively tested      |
|     yet).                                                                   |
|                                                                             |
 -----------------------------------------------------------------------------

 POTCAR:    PAW_PBE H_s 15May2010                 
   VRHFIN =H: ultrasoft test                                                                        
   LEXCH  = PE                                                                                      
   EATOM  =    12.4884 eV,    0.9179 Ry                                                             
                                                                                                    
   TITEL  = PAW_PBE H_s 15May2010                                                                   
   LULTRA =        F    use ultrasoft PP ?                                                          
   IUNSCR =        0    unscreen: 0-lin 1-nonlin 2-no                                               
   RPACOR =    0.000    partial core radius                                                         
   POMASS =    1.000; ZVAL   =    1.000    mass and valenz                                          
   RCORE  =    1.300    outmost cutoff radius                                                       
   RWIGS  =    0.700; RWIGS  =    0.370    wigner-seitz radius (au A)                               
   ENMAX  =  200.000; ENMIN  =  150.000 eV                                                          
   RCLOC  =    0.701    cutoff for local pot                                                        
   LCOR   =        T    correct aug charges                                                         
   LPAW   =        T    paw PP                                                                      
   EAUG   =  300.000                                                                                
   RMAX   =    1.330    core radius for proj-oper                                                   
   RAUG   =    1.200    factor for augmentation sphere                                              
   RDEP   =    1.337    radius for radial grids                                                     
   RDEPT  =    1.114    core radius for aug-charge                                                  
                                                                                                    
   Atomic configuration                                                                             
    2 entries                                                                                       
     n  l   j            E        occ.                                                              
     1  0  0.50        -6.4927   1.0000                                                             
     2  1  0.50        -3.4015   0.0000                                                             
   Description                                                                                      
     l       E           TYP  RCUT    TYP  RCUT                                                     
     0     -6.4927494     23  1.300                                                                 
     0      6.8029130     23  1.300                                                                 
     1     -4.0817478     23  1.300                                                                 
  local pseudopotential read in
  atomic valenz-charges read in
  non local Contribution for L=            0  read in
    real space projection operators read in
  non local Contribution for L=            0  read in
    real space projection operators read in
  non local Contribution for L=            1  read in
    real space projection operators read in
    PAW grid and wavefunctions read in
 
   number of l-projection  operators is LMAX  =            3
   number of lm-projection operators is LMMAX =            5
 
 POTCAR:    PAW_PBE C_s 06Sep2000                 
   VRHFIN =C: s2p2                                                                                  
   LEXCH  = PE                                                                                      
   EATOM  =   147.1560 eV,   10.8157 Ry                                                             
                                                                                                    
   TITEL  = PAW_PBE C_s 06Sep2000                                                                   
   LULTRA =        F    use ultrasoft PP ?                                                          
   IUNSCR =        0    unscreen: 0-lin 1-nonlin 2-no                                               
   RPACOR =    0.000    partial core radius                                                         
   POMASS =   12.011; ZVAL   =    4.000    mass and valenz                                          
   RCORE  =    1.850    outmost cutoff radius                                                       
   RWIGS  =    1.890; RWIGS  =    1.000    wigner-seitz radius (au A)                               
   ENMAX  =  273.911; ENMIN  =  205.433 eV                                                          
   RCLOC  =    0.804    cutoff for local pot                                                        
   LCOR   =        T    correct aug charges                                                         
   LPAW   =        T    paw PP                                                                      
   EAUG   =  439.243                                                                                
   DEXC   =    0.000                                                                                
   RMAX   =    1.897    core radius for proj-oper                                                   
   RAUG   =    1.300    factor for augmentation sphere                                              
   RDEP   =    1.940    radius for radial grids                                                     
   RDEPT  =    1.573    core radius for aug-charge                                                  
                                                                                                    
   Atomic configuration                                                                             
    4 entries                                                                                       
     n  l   j            E        occ.                                                              
     1  0  0.50      -273.3789   2.0000                                                             
     2  0  0.50       -13.7508   2.0000                                                             
     2  1  0.50        -5.2854   2.0000                                                             
     3  2  1.50        -1.3606   0.0000                                                             
   Description                                                                                      
     l       E           TYP  RCUT    TYP  RCUT                                                     
     0    -13.7508457     23  1.500                                                                 
     0    -11.0934578     23  1.500                                                                 
     1     -5.2854381     23  1.850                                                                 
     1     -1.3099858     23  1.850                                                                 
  local pseudopotential read in
  atomic valenz-charges read in
  non local Contribution for L=            0  read in
    real space projection operators read in
  non local Contribution for L=            0  read in
    real space projection operators read in
  non local Contribution for L=            1  read in
    real space projection operators read in
  non local Contribution for L=            1  read in
    real space projection operators read in
    PAW grid and wavefunctions read in
 
   number of l-projection  operators is LMAX  =            4
   number of lm-projection operators is LMMAX =            8
 
 POTCAR:    PAW_PBE O_s 07Sep2000                 
   VRHFIN =O: s2p4                                                                                  
   LEXCH  = PE                                                                                      
   EATOM  =   432.3788 eV,   31.7789 Ry                                                             
                                                                                                    
   TITEL  = PAW_PBE O_s 07Sep2000                                                                   
   LULTRA =        F    use ultrasoft PP ?                                                          
   IUNSCR =        0    unscreen: 0-lin 1-nonlin 2-no                                               
   RPACOR =    0.000    partial core radius                                                         
   POMASS =   16.000; ZVAL   =    6.000    mass and valenz                                          
   RCORE  =    1.850    outmost cutoff radius                                                       
   RWIGS  =    1.700; RWIGS  =    0.900    wigner-seitz radius (au A)                               
   ENMAX  =  282.853; ENMIN  =  212.140 eV                                                          
   RCLOC  =    0.804    cutoff for local pot                                                        
   LCOR   =        T    correct aug charges                                                         
   LPAW   =        T    paw PP                                                                      
   EAUG   =  412.352                                                                                
   RMAX   =    1.897    core radius for proj-oper                                                   
   RAUG   =    1.300    factor for augmentation sphere                                              
   RDEP   =    1.878    radius for radial grids                                                     
   RDEPT  =    1.572    core radius for aug-charge                                                  
                                                                                                    
   Atomic configuration                                                                             
    4 entries                                                                                       
     n  l   j            E        occ.                                                              
     1  0  0.50      -514.6923   2.0000                                                             
     2  0  0.50       -23.9615   2.0000                                                             
     2  1  0.50        -9.0305   4.0000                                                             
     3  2  1.50        -1.3606   0.0000                                                             
   Description                                                                                      
     l       E           TYP  RCUT    TYP  RCUT                                                     
     0    -23.9615315     23  1.500                                                                 
     0    -25.3221141     23  1.500                                                                 
     1     -9.0304908     23  1.850                                                                 
     1     -7.3935399     23  1.850                                                                 
  local pseudopotential read in
  atomic valenz-charges read in
  non local Contribution for L=            0  read in
    real space projection operators read in
  non local Contribution for L=            0  read in
    real space projection operators read in
  non local Contribution for L=            1  read in
    real space projection operators read in
  non local Contribution for L=            1  read in
    real space projection operators read in
    PAW grid and wavefunctions read in
 
   number of l-projection  operators is LMAX  =            4
   number of lm-projection operators is LMMAX =            8
 
  PAW_PBE H_s 15May2010                 :
 energy of atom  1       EATOM=  -12.4884
 kinetic energy error for atom=    0.0000 (will be added to EATOM!!)
  PAW_PBE C_s 06Sep2000                 :
 energy of atom  2       EATOM= -147.1560
 kinetic energy error for atom=    0.0002 (will be added to EATOM!!)
  PAW_PBE O_s 07Sep2000                 :
 energy of atom  3       EATOM= -432.3788
 kinetic energy error for atom=    0.0004 (will be added to EATOM!!)
 
 
 POSCAR:  H  C  O
  positions in cartesian coordinates
  No initial velocities read in
 exchange correlation table for  LEXCH =        8
   RHO(1)=    0.500       N(1)  =     2000
   RHO(2)=  100.500       N(2)  =     4000
 


--------------------------------------------------------------------------------------------------------


 ion  position               nearest neighbor table
   1  0.001  0.157  0.978-   5 0.96
   2  0.000  0.159  0.021-   5 0.96
   3  0.000  0.003  0.000-   4 1.14
   4  0.000  0.035  0.000-   3 1.14
   5  0.000  0.141  0.000-   2 0.96   1 0.96
 
 -----------------------------------------------------------------------------
|                                                                             |
|           W    W    AA    RRRRR   N    N  II  N    N   GGGG   !!!           |
|           W    W   A  A   R    R  NN   N  II  NN   N  G    G  !!!           |
|           W    W  A    A  R    R  N N  N  II  N N  N  G       !!!           |
|           W WW W  AAAAAA  RRRRR   N  N N  II  N  N N  G  GGG   !            |
|           WW  WW  A    A  R   R   N   NN  II  N   NN  G    G                |
|           W    W  A    A  R    R  N    N  II  N    N   GGGG   !!!           |
|                                                                             |
|     The distance between some ions is very small. Please check the          |
|     nearest-neighbor list in the OUTCAR file.                               |
|     I HOPE YOU KNOW WHAT YOU ARE DOING!                                     |
|                                                                             |
 -----------------------------------------------------------------------------

  LATTYP: Found a simple cubic cell.
 ALAT       =    35.0000000000
  
  Lattice vectors:
  
 A1 = (  35.0000000000,   0.0000000000,   0.0000000000)
 A2 = (   0.0000000000,  35.0000000000,   0.0000000000)
 A3 = (   0.0000000000,   0.0000000000,  35.0000000000)


Analysis of symmetry for initial positions (statically):
=====================================================================
 Subroutine PRICEL returns:
 Original cell was already a primitive cell.
 

 Routine SETGRP: Setting up the symmetry group for a 
 simple cubic supercell.


 Subroutine GETGRP returns: Found  1 space group operations
 (whereof  1 operations were pure point group operations)
 out of a pool of 48 trial point group operations.


The static configuration has the point symmetry C_1 .


Analysis of symmetry for dynamics (positions and initial velocities):
=====================================================================
 Subroutine PRICEL returns:
 Original cell was already a primitive cell.
 

 Routine SETGRP: Setting up the symmetry group for a 
 simple cubic supercell.


 Subroutine GETGRP returns: Found  1 space group operations
 (whereof  1 operations were pure point group operations)
 out of a pool of 48 trial point group operations.


The dynamic configuration has the point symmetry C_1 .


 Subroutine INISYM returns: Found  1 space group operations
 (whereof  1 operations are pure point group operations),
 and found     1 'primitive' translations


----------------------------------------------------------------------------------------

                                     Primitive cell                                     

  volume of cell :   42875.0000

  direct lattice vectors                    reciprocal lattice vectors
    35.000000000  0.000000000  0.000000000     0.028571429  0.000000000  0.000000000
     0.000000000 35.000000000  0.000000000     0.000000000  0.028571429  0.000000000
     0.000000000  0.000000000 35.000000000     0.000000000  0.000000000  0.028571429

  length of vectors
    35.000000000 35.000000000 35.000000000     0.028571429  0.028571429  0.028571429

  position of ions in fractional coordinates (direct lattice)
     0.000848682  0.156610785  0.977571084
     0.000390051  0.158664958  0.020841195
     0.000000000  0.002521600  0.000000000
     0.000000000  0.035063029  0.000000000
     0.000000000  0.140777314  0.000000000

  ion indices of the primitive-cell ions
   primitive index   ion index
                 1           1
                 2           2
                 3           3
                 4           4
                 5           5

----------------------------------------------------------------------------------------

 
 
 KPOINTS: g                                       

Automatic generation of k-mesh.
Space group operators:
 irot       det(A)        alpha          n_x          n_y          n_z        tau_x        tau_y        tau_z
    1     1.000000     0.000000     1.000000     0.000000     0.000000     0.000000     0.000000     0.000000
 
 Subroutine IBZKPT returns following result:
 ===========================================
 
 Found      1 irreducible k-points:
 
 Following reciprocal coordinates:
            Coordinates               Weight
  0.000000  0.000000  0.000000      1.000000
 
 Following cartesian coordinates:
            Coordinates               Weight
  0.000000  0.000000  0.000000      1.000000
 


--------------------------------------------------------------------------------------------------------




 Dimension of arrays:
   k-points           NKPTS =      1   k-points in BZ     NKDIM =      1   number of bands    NBANDS=     32
   number of dos      NEDOS =    301   number of ions     NIONS =      5
   non local maximal  LDIM  =      4   non local SUM 2l+1 LMDIM =      8
   total plane-waves  NPLWV = ******
   max r-space proj   IRMAX =      1   max aug-charges    IRDMAX=  29269
   dimension x,y,z NGX =   378 NGY =  378 NGZ =  378
   dimension x,y,z NGXF=   756 NGYF=  756 NGZF=  756
   support grid    NGXF=   756 NGYF=  756 NGZF=  756
   ions per type =               2   1   2
   NGX,Y,Z   is equivalent  to a cutoff of  17.95, 17.95, 17.95 a.u.
   NGXF,Y,Z  is equivalent  to a cutoff of  35.91, 35.91, 35.91 a.u.

 SYSTEM =  C                                       
 POSCAR =   H  C  O                                

 Startparameter for this run:
   NWRITE =      2    write-flag & timer
   PREC   = acc       normal or accurate (medium, high low for compatibility)
   ISTART =      0    job   : 0-new  1-cont  2-samecut
   ICHARG =      2    charge: 1-file 2-atom 10-const
   ISPIN  =      1    spin polarized calculation?
   LNONCOLLINEAR =      F non collinear calculations
   LSORBIT =      F    spin-orbit coupling
   INIWAV =      1    electr: 0-lowe 1-rand  2-diag
   LASPH  =      T    aspherical Exc in radial PAW
   METAGGA=      F    non-selfconsistent MetaGGA calc.

 Electronic Relaxation 1
   ENCUT  = 1000.0 eV  73.50 Ry    8.57 a.u.  90.25 90.25 90.25*2*pi/ulx,y,z
   ENINI  = 1000.0     initial cutoff
   ENAUG  =  439.2 eV  augmentation charge cutoff
   NELM   =     60;   NELMIN=  2; NELMDL= -5     # of ELM steps 
   EDIFF  = 0.1E-06   stopping-criterion for ELM
   LREAL  =      F    real-space projection
   NLSPLINE    = F    spline interpolate recip. space projectors
   LCOMPAT=      F    compatible to vasp.4.4
   GGA_COMPAT  = T    GGA compatible to vasp.4.4-vasp.4.6
   LMAXPAW     = -100 max onsite density
   LMAXMIX     =    2 max onsite mixed and CHGCAR
   VOSKOWN=      0    Vosko Wilk Nusair interpolation
   ROPT   =    0.00000   0.00000   0.00000
 Ionic relaxation
   EDIFFG = 0.1E-05   stopping-criterion for IOM
   NSW    =      0    number of steps for IOM
   NBLOCK =      1;   KBLOCK =      1    inner block; outer block 
   IBRION =     -1    ionic relax: 0-MD 1-quasi-New 2-CG
   NFREE  =      0    steps in history (QN), initial steepest desc. (CG)
   ISIF   =      2    stress and relaxation
   IWAVPR =     10    prediction:  0-non 1-charg 2-wave 3-comb
   ISYM   =      2    0-nonsym 1-usesym 2-fastsym
   LCORR  =      T    Harris-Foulkes like correction to forces

   POTIM  = 0.5000    time-step for ionic-motion
   TEIN   =    0.0    initial temperature
   TEBEG  =    0.0;   TEEND  =   0.0 temperature during run
   SMASS  =  -3.00    Nose mass-parameter (am)
   estimated Nose-frequenzy (Omega)   =  0.10E-29 period in steps = 0.13E+47 mass=  -0.280E-25a.u.
   SCALEE = 1.0000    scale energy and forces
   NPACO  =    256;   APACO  = 16.0  distance and # of slots for P.C.
   PSTRESS=    0.0 pullay stress

  Mass of Ions in am
   POMASS =   1.00 12.01 16.00
  Ionic Valenz
   ZVAL   =   1.00  4.00  6.00
  Atomic Wigner-Seitz radii
   RWIGS  =  -1.00 -1.00 -1.00
  virtual crystal weights 
   VCA    =   1.00  1.00  1.00
   NELECT =      18.0000    total number of electrons
   NUPDOWN=      -1.0000    fix difference up-down

 DOS related values:
   EMIN   =  10.00;   EMAX   =-10.00  energy-range for DOS
   EFERMI =   0.00
   ISMEAR =     0;   SIGMA  =   0.01  broadening in eV -4-tet -1-fermi 0-gaus

 Electronic relaxation 2 (details)
   IALGO  =     38    algorithm
   LDIAG  =      T    sub-space diagonalisation (order eigenvalues)
   LSUBROT=      F    optimize rotation matrix (better conditioning)
   TURBO    =      0    0=normal 1=particle mesh
   IRESTART =      0    0=no restart 2=restart with 2 vectors
   NREBOOT  =      0    no. of reboots
   NMIN     =      0    reboot dimension
   EREF     =   0.00    reference energy to select bands
   IMIX   =      4    mixing-type and parameters
     AMIX     =   0.40;   BMIX     =  1.00
     AMIX_MAG =   1.60;   BMIX_MAG =  1.00
     AMIN     =   0.10
     WC   =   100.;   INIMIX=   1;  MIXPRE=   1;  MAXMIX= -45

 Intra band minimization:
   WEIMIN = 0.0000     energy-eigenvalue tresh-hold
   EBREAK =  0.78E-09  absolut break condition
   DEPER  =   0.30     relativ break condition  

   TIME   =   0.40     timestep for ELM

  volume/ion in A,a.u.               =    8575.00     57866.96
  Fermi-wavevector in a.u.,A,eV,Ry     =   0.122583  0.231649  0.204450  0.015027
  Thomas-Fermi vector in A             =   0.746568
 
 Write flags
   LWAVE        =      T    write WAVECAR
   LDOWNSAMPLE  =      F    k-point downsampling of WAVECAR
   LCHARG       =      T    write CHGCAR
   LVTOT        =      F    write LOCPOT, total local potential
   LVHAR        =      F    write LOCPOT, Hartree potential only
   LELF         =      F    write electronic localiz. function (ELF)
   LORBIT       =      0    0 simple, 1 ext, 2 COOP (PROOUT), +10 PAW based schemes


 Dipole corrections
   LMONO  =      F    monopole corrections only (constant potential shift)
   LDIPOL =      F    correct potential (dipole corrections)
   IDIPOL =      4    1-x, 2-y, 3-z, 4-all directions 
   EPSILON=  1.0000000 bulk dielectric constant

 Exchange correlation treatment:
   GGA     =    --    GGA type
   LEXCH   =     8    internal setting for exchange type
   VOSKOWN=      0    Vosko Wilk Nusair interpolation
   LHFCALC =     F    Hartree Fock is set to
   LHFONE  =     F    Hartree Fock one center treatment
   AEXX    =    0.0000 exact exchange contribution

 Linear response parameters
   LEPSILON=     F    determine dielectric tensor
   LRPA    =     F    only Hartree local field effects (RPA)
   LNABLA  =     F    use nabla operator in PAW spheres
   LVEL    =     F    velocity operator in full k-point grid
   LINTERFAST=   F  fast interpolation
   KINTER  =     0    interpolate to denser k-point grid
   CSHIFT  =0.1000    complex shift for real part using Kramers Kronig
   OMEGAMAX=  -1.0    maximum frequency
   DEG_THRESHOLD= 0.2000000E-02 threshold for treating states as degnerate
   RTIME   =   -0.100 relaxation time in fs
  (WPLASMAI=    0.000 imaginary part of plasma frequency in eV, 0.658/RTIME)
   DFIELD  = 0.0000000 0.0000000 0.0000000 field for delta impulse in time
 
 Orbital magnetization related:
   ORBITALMAG=     F  switch on orbital magnetization
   LCHIMAG   =     F  perturbation theory with respect to B field
   DQ        =  0.001000  dq finite difference perturbation B field
   LLRAUG    =     F  two centre corrections for induced B field



--------------------------------------------------------------------------------------------------------


 Static calculation
 charge density and potential will be updated during run
 non-spin polarized calculation
 Variant of blocked Davidson
 Davidson routine will perform the subspace rotation
 perform sub-space diagonalisation
    after iterative eigenvector-optimisation
 modified Broyden-mixing scheme, WC =      100.0
 initial mixing is a Kerker type mixing with AMIX =  0.4000 and BMIX =      1.0000
 Hartree-type preconditioning will be used
 using additional bands            23
 reciprocal scheme for non local part
 calculate Harris-corrections to forces 
   (improved forces if not selfconsistent)
 use gradient corrections 
 use of overlap-Matrix (Vanderbilt PP)
 Gauss-broadening in eV      SIGMA  =   0.01


--------------------------------------------------------------------------------------------------------


  energy-cutoff  :     1000.00
  volume of cell :    42875.00
      direct lattice vectors                 reciprocal lattice vectors
    35.000000000  0.000000000  0.000000000     0.028571429  0.000000000  0.000000000
     0.000000000 35.000000000  0.000000000     0.000000000  0.028571429  0.000000000
     0.000000000  0.000000000 35.000000000     0.000000000  0.000000000  0.028571429

  length of vectors
    35.000000000 35.000000000 35.000000000     0.028571429  0.028571429  0.028571429


 
 k-points in units of 2pi/SCALE and weight: g                                       
   0.00000000  0.00000000  0.00000000       1.000
 
 k-points in reciprocal lattice and weights: g                                       
   0.00000000  0.00000000  0.00000000       1.000
 
 position of ions in fractional coordinates (direct lattice) 
   0.00084868  0.15661078  0.97757108
   0.00039005  0.15866496  0.02084119
   0.00000000  0.00252160  0.00000000
   0.00000000  0.03506303  0.00000000
   0.00000000  0.14077731  0.00000000
 
 position of ions in cartesian coordinates  (Angst):
   0.02970387  5.48137746 34.21498793
   0.01365177  5.55327352  0.72944182
   0.00000000  0.08825600  0.00000000
   0.00000000  1.22720600  0.00000000
   0.00000000  4.92720600  0.00000000
 


--------------------------------------------------------------------------------------------------------


 use serial FFT for orbitals x direction half grid
 k-point   1 :   0.0000 0.0000 0.0000  plane waves: 1539209

 maximum and minimum number of plane-waves per node :   1539209  1539209

 maximum number of plane-waves:   1539209
 maximum index in each direction: 
   IXMAX=   90   IYMAX=   90   IZMAX=   90
   IXMIN=    0   IYMIN=  -90   IZMIN=  -90


 serial   3D FFT for wavefunctions
 parallel 3D FFT for charge:
    minimum data exchange during FFTs selected (reduces bandwidth)


 total amount of memory used by VASP MPI-rank0  4191804. kBytes
=======================================================================

   base      :      30000. kBytes
   nonl-proj :     418671. kBytes
   fftplans  :     676185. kBytes
   grid      :    3042313. kBytes
   one-center:          7. kBytes
   wavefun   :      24628. kBytes
 
     INWAV:  cpu time    0.0000: real time    0.0000
 Broyden mixing: mesh for mixing (old mesh)
   NGX =181   NGY =181   NGZ =181
  (NGX  =756   NGY  =756   NGZ  =756)
  gives a total of ****** points

 initial charge density was supplied:
 charge density of overlapping atoms calculated
 number of electron      18.0000000 magnetization 
 keeping initial charge density in first step


--------------------------------------------------------------------------------------------------------


 Maximum index for augmentation-charges          1124 (set IRDMAX)


--------------------------------------------------------------------------------------------------------


 First call to EWALD:  gamma=   0.051
 Maximum number of real-space cells 3x 3x 3
 Maximum number of reciprocal cells 3x 3x 3

    FEWALD:  cpu time    0.0007: real time    0.0007


--------------------------------------- Iteration      1(   1)  ---------------------------------------


    POTLOK:  cpu time   13.0738: real time   13.0992
    SETDIJ:  cpu time    0.0406: real time    0.0411
     EDDAV:  cpu time   18.3616: real time   18.4090
       DOS:  cpu time    0.0148: real time    0.0148
    --------------------------------------------
      LOOP:  cpu time   31.4909: real time   31.5641

 eigenvalue-minimisations  :   128
 total energy-change (2. order) : 0.9098328E+02  (-0.3629959E+03)
 number of electron      18.0000000 magnetization 
 augmentation part       18.0000000 magnetization 

 Free energy of the ion-electron system (eV)
  ---------------------------------------------------
  alpha Z        PSCENC =         0.02234163
  Ewald energy   TEWEN  =       576.89805319
  -Hartree energ DENC   =     -1388.84760130
  -exchange      EXHF   =         0.00000000
  -V(xc)+E(xc)   XCENC  =        71.85423456
  PAW double counting   =       802.92211551     -812.08006040
  entropy T*S    EENTRO =        -0.00000000
  eigenvalues    EBANDS =      -196.67508813
  atomic energy  EATOM  =      1036.88928565
  Solvation  Ediel_sol  =         0.00000000
  ---------------------------------------------------
  free energy    TOTEN  =        90.98328071 eV

  energy without entropy =       90.98328071  energy(sigma->0) =       90.98328071


--------------------------------------------------------------------------------------------------------




--------------------------------------- Iteration      1(   2)  ---------------------------------------


     EDDAV:  cpu time   14.7262: real time   14.7627
       DOS:  cpu time    0.0091: real time    0.0091
    --------------------------------------------
      LOOP:  cpu time   14.7354: real time   14.7718

 eigenvalue-minimisations  :    96
 total energy-change (2. order) :-0.1091609E+03  (-0.1091609E+03)
 number of electron      18.0000000 magnetization 
 augmentation part       18.0000000 magnetization 

 Free energy of the ion-electron system (eV)
  ---------------------------------------------------
  alpha Z        PSCENC =         0.02234163
  Ewald energy   TEWEN  =       576.89805319
  -Hartree energ DENC   =     -1388.84760130
  -exchange      EXHF   =         0.00000000
  -V(xc)+E(xc)   XCENC  =        71.85423456
  PAW double counting   =       802.92211551     -812.08006040
  entropy T*S    EENTRO =        -0.00000000
  eigenvalues    EBANDS =      -305.83594228
  atomic energy  EATOM  =      1036.88928565
  Solvation  Ediel_sol  =         0.00000000
  ---------------------------------------------------
  free energy    TOTEN  =       -18.17757344 eV

  energy without entropy =      -18.17757344  energy(sigma->0) =      -18.17757344


--------------------------------------------------------------------------------------------------------




--------------------------------------- Iteration      1(   3)  ---------------------------------------


     EDDAV:  cpu time   18.3143: real time   18.3639
       DOS:  cpu time    0.0136: real time    0.0136
    --------------------------------------------
      LOOP:  cpu time   18.3279: real time   18.3775

 eigenvalue-minimisations  :   128
 total energy-change (2. order) :-0.1282480E+02  (-0.1282480E+02)
 number of electron      18.0000000 magnetization 
 augmentation part       18.0000000 magnetization 

 Free energy of the ion-electron system (eV)
  ---------------------------------------------------
  alpha Z        PSCENC =         0.02234163
  Ewald energy   TEWEN  =       576.89805319
  -Hartree energ DENC   =     -1388.84760130
  -exchange      EXHF   =         0.00000000
  -V(xc)+E(xc)   XCENC  =        71.85423456
  PAW double counting   =       802.92211551     -812.08006040
  entropy T*S    EENTRO =        -0.00000000
  eigenvalues    EBANDS =      -318.66073763
  atomic energy  EATOM  =      1036.88928565
  Solvation  Ediel_sol  =         0.00000000
  ---------------------------------------------------
  free energy    TOTEN  =       -31.00236879 eV

  energy without entropy =      -31.00236879  energy(sigma->0) =      -31.00236879


--------------------------------------------------------------------------------------------------------




--------------------------------------- Iteration      1(   4)  ---------------------------------------


     EDDAV:  cpu time   11.1509: real time   11.1714
       DOS:  cpu time    0.0073: real time    0.0073
    --------------------------------------------
      LOOP:  cpu time   11.1582: real time   11.1787

 eigenvalue-minimisations  :    64
 total energy-change (2. order) :-0.4379417E-01  (-0.4379419E-01)
 number of electron      18.0000000 magnetization 
 augmentation part       18.0000000 magnetization 

 Free energy of the ion-electron system (eV)
  ---------------------------------------------------
  alpha Z        PSCENC =         0.02234163
  Ewald energy   TEWEN  =       576.89805319
  -Hartree energ DENC   =     -1388.84760130
  -exchange      EXHF   =         0.00000000
  -V(xc)+E(xc)   XCENC  =        71.85423456
  PAW double counting   =       802.92211551     -812.08006040
  entropy T*S    EENTRO =        -0.00000000
  eigenvalues    EBANDS =      -318.70453180
  atomic energy  EATOM  =      1036.88928565
  Solvation  Ediel_sol  =         0.00000000
  ---------------------------------------------------
  free energy    TOTEN  =       -31.04616296 eV

  energy without entropy =      -31.04616296  energy(sigma->0) =      -31.04616296


--------------------------------------------------------------------------------------------------------




--------------------------------------- Iteration      1(   5)  ---------------------------------------


     EDDAV:  cpu time   11.1268: real time   11.1557
       DOS:  cpu time    0.0129: real time    0.0129
    CHARGE:  cpu time    5.2607: real time    5.2697
    MIXING:  cpu time    0.2389: real time    0.2393
    --------------------------------------------
      LOOP:  cpu time   16.6394: real time   16.6777

 eigenvalue-minimisations  :    64
 total energy-change (2. order) :-0.2118223E-03  (-0.2118379E-03)
 number of electron      18.0000000 magnetization 
 augmentation part        3.0893050 magnetization 

 Broyden mixing:
  rms(total) = 0.42547E+01    rms(broyden)= 0.42547E+01
  rms(prec ) = 0.42616E+01
  weight for this iteration     100.00

 Free energy of the ion-electron system (eV)
  ---------------------------------------------------
  alpha Z        PSCENC =         0.02234163
  Ewald energy   TEWEN  =       576.89805319
  -Hartree energ DENC   =     -1388.84760130
  -exchange      EXHF   =         0.00000000
  -V(xc)+E(xc)   XCENC  =        71.85423456
  PAW double counting   =       802.92211551     -812.08006040
  entropy T*S    EENTRO =        -0.00000000
  eigenvalues    EBANDS =      -318.70474362
  atomic energy  EATOM  =      1036.88928565
  Solvation  Ediel_sol  =         0.00000000
  ---------------------------------------------------
  free energy    TOTEN  =       -31.04637478 eV

  energy without entropy =      -31.04637478  energy(sigma->0) =      -31.04637478


--------------------------------------------------------------------------------------------------------




--------------------------------------- Iteration      1(   6)  ---------------------------------------


    POTLOK:  cpu time   12.8250: real time   12.8462
    SETDIJ:  cpu time    0.0401: real time    0.0401
     EDDAV:  cpu time   14.7603: real time   14.7990
       DOS:  cpu time    0.0120: real time    0.0120
    CHARGE:  cpu time    5.1544: real time    5.1614
    MIXING:  cpu time    0.2429: real time    0.2458
    --------------------------------------------
      LOOP:  cpu time   33.0346: real time   33.1045

 eigenvalue-minimisations  :    96
 total energy-change (2. order) : 0.2616194E+01  (-0.1494745E+01)
 number of electron      18.0000000 magnetization 
 augmentation part        2.6853948 magnetization 

 Broyden mixing:
  rms(total) = 0.40626E+01    rms(broyden)= 0.40626E+01
  rms(prec ) = 0.40634E+01
  weight for this iteration     100.00

 eigenvalues of (default mixing * dielectric matrix)
  average eigenvalue GAMMA=   0.6951
  0.6951

 Free energy of the ion-electron system (eV)
  ---------------------------------------------------
  alpha Z        PSCENC =         0.02234163
  Ewald energy   TEWEN  =       576.89805319
  -Hartree energ DENC   =     -1426.71854706
  -exchange      EXHF   =         0.00000000
  -V(xc)+E(xc)   XCENC  =        73.97721395
  PAW double counting   =      1481.01998071    -1491.92988562
  entropy T*S    EENTRO =        -0.00000000
  eigenvalues    EBANDS =      -278.58862302
  atomic energy  EATOM  =      1036.88928565
  Solvation  Ediel_sol  =         0.00000000
  ---------------------------------------------------
  free energy    TOTEN  =       -28.43018058 eV

  energy without entropy =      -28.43018058  energy(sigma->0) =      -28.43018058


--------------------------------------------------------------------------------------------------------




--------------------------------------- Iteration      1(   7)  ---------------------------------------


    POTLOK:  cpu time   12.8621: real time   12.8828
    SETDIJ:  cpu time    0.0401: real time    0.0401
     EDDAV:  cpu time   11.1479: real time   11.1686
       DOS:  cpu time    0.0156: real time    0.0156
    CHARGE:  cpu time    5.0878: real time    5.0951
    MIXING:  cpu time    0.2626: real time    0.2639
    --------------------------------------------
      LOOP:  cpu time   29.4161: real time   29.4660

 eigenvalue-minimisations  :    64
 total energy-change (2. order) : 0.2045710E+00  (-0.5298926E-01)
 number of electron      18.0000000 magnetization 
 augmentation part        2.7088088 magnetization 

 Broyden mixing:
  rms(total) = 0.27937E+01    rms(broyden)= 0.27937E+01
  rms(prec ) = 0.27943E+01
  weight for this iteration     100.00

 eigenvalues of (default mixing * dielectric matrix)
  average eigenvalue GAMMA=   1.6408
  0.9475  2.3342

 Free energy of the ion-electron system (eV)
  ---------------------------------------------------
  alpha Z        PSCENC =         0.02234163
  Ewald energy   TEWEN  =       576.89805319
  -Hartree energ DENC   =     -1429.92184478
  -exchange      EXHF   =         0.00000000
  -V(xc)+E(xc)   XCENC  =        74.16053728
  PAW double counting   =      1994.48644853    -2005.22569248
  entropy T*S    EENTRO =        -0.00000000
  eigenvalues    EBANDS =      -275.53473864
  atomic energy  EATOM  =      1036.88928565
  Solvation  Ediel_sol  =         0.00000000
  ---------------------------------------------------
  free energy    TOTEN  =       -28.22560962 eV

  energy without entropy =      -28.22560962  energy(sigma->0) =      -28.22560962


--------------------------------------------------------------------------------------------------------




--------------------------------------- Iteration      1(   8)  ---------------------------------------


    POTLOK:  cpu time   12.8134: real time   12.8428
    SETDIJ:  cpu time    0.0401: real time    0.0401
     EDDAV:  cpu time   18.3728: real time   18.4131
       DOS:  cpu time    0.0159: real time    0.0159
    CHARGE:  cpu time    5.1696: real time    5.1763
    MIXING:  cpu time    0.2619: real time    0.2623
    --------------------------------------------
      LOOP:  cpu time   36.6736: real time   36.7505

 eigenvalue-minimisations  :   128
 total energy-change (2. order) : 0.1641561E+00  (-0.4705237E-01)
 number of electron      18.0000000 magnetization 
 augmentation part        2.6639610 magnetization 

 Broyden mixing:
  rms(total) = 0.43664E+00    rms(broyden)= 0.43664E+00
  rms(prec ) = 0.43760E+00
  weight for this iteration     100.00

 eigenvalues of (default mixing * dielectric matrix)
  average eigenvalue GAMMA=   1.3582
  2.5480  0.8962  0.6305

 Free energy of the ion-electron system (eV)
  ---------------------------------------------------
  alpha Z        PSCENC =         0.02234163
  Ewald energy   TEWEN  =       576.89805319
  -Hartree energ DENC   =     -1443.19642851
  -exchange      EXHF   =         0.00000000
  -V(xc)+E(xc)   XCENC  =        74.89553150
  PAW double counting   =      3587.72891357    -3598.45696343
  entropy T*S    EENTRO =        -0.00000000
  eigenvalues    EBANDS =      -262.84218713
  atomic energy  EATOM  =      1036.88928565
  Solvation  Ediel_sol  =         0.00000000
  ---------------------------------------------------
  free energy    TOTEN  =       -28.06145353 eV

  energy without entropy =      -28.06145353  energy(sigma->0) =      -28.06145353


--------------------------------------------------------------------------------------------------------




--------------------------------------- Iteration      1(   9)  ---------------------------------------


    POTLOK:  cpu time   12.8714: real time   12.8923
    SETDIJ:  cpu time    0.0400: real time    0.0401
     EDDAV:  cpu time   14.7458: real time   14.7805
       DOS:  cpu time    0.0097: real time    0.0097
    CHARGE:  cpu time    5.1227: real time    5.1297
    MIXING:  cpu time    0.2451: real time    0.2483
    --------------------------------------------
      LOOP:  cpu time   33.0348: real time   33.1006

 eigenvalue-minimisations  :    96
 total energy-change (2. order) : 0.2298273E-01  (-0.1414969E-01)
 number of electron      18.0000000 magnetization 
 augmentation part        2.6842605 magnetization 

 Broyden mixing:
  rms(total) = 0.17655E+00    rms(broyden)= 0.17655E+00
  rms(prec ) = 0.17700E+00
  weight for this iteration     100.00

 eigenvalues of (default mixing * dielectric matrix)
  average eigenvalue GAMMA=   1.4772
  2.5134  0.7178  1.5624  1.1152

 Free energy of the ion-electron system (eV)
  ---------------------------------------------------
  alpha Z        PSCENC =         0.02234163
  Ewald energy   TEWEN  =       576.89805319
  -Hartree energ DENC   =     -1443.01800897
  -exchange      EXHF   =         0.00000000
  -V(xc)+E(xc)   XCENC  =        74.87128028
  PAW double counting   =      3744.47972337    -3755.08996726
  entropy T*S    EENTRO =        -0.00000000
  eigenvalues    EBANDS =      -263.09117868
  atomic energy  EATOM  =      1036.88928565
  Solvation  Ediel_sol  =         0.00000000
  ---------------------------------------------------
  free energy    TOTEN  =       -28.03847080 eV

  energy without entropy =      -28.03847080  energy(sigma->0) =      -28.03847080


--------------------------------------------------------------------------------------------------------




--------------------------------------- Iteration      1(  10)  ---------------------------------------


    POTLOK:  cpu time   12.8492: real time   12.8702
    SETDIJ:  cpu time    0.0402: real time    0.0402
     EDDAV:  cpu time   11.1788: real time   11.2080
       DOS:  cpu time    0.0021: real time    0.0021
    CHARGE:  cpu time    5.2325: real time    5.2391
    MIXING:  cpu time    0.2682: real time    0.2686
    --------------------------------------------
      LOOP:  cpu time   29.5709: real time   29.6283

 eigenvalue-minimisations  :    64
 total energy-change (2. order) :-0.3123022E-02  (-0.8469826E-03)
 number of electron      18.0000000 magnetization 
 augmentation part        2.6887972 magnetization 

 Broyden mixing:
  rms(total) = 0.50331E-01    rms(broyden)= 0.50331E-01
  rms(prec ) = 0.51001E-01
  weight for this iteration     100.00

 eigenvalues of (default mixing * dielectric matrix)
  average eigenvalue GAMMA=   1.4725
  2.3623  2.0770  1.2397  0.9624  0.7210

 Free energy of the ion-electron system (eV)
  ---------------------------------------------------
  alpha Z        PSCENC =         0.02234163
  Ewald energy   TEWEN  =       576.89805319
  -Hartree energ DENC   =     -1443.27459490
  -exchange      EXHF   =         0.00000000
  -V(xc)+E(xc)   XCENC  =        74.83177461
  PAW double counting   =      3724.03299917    -3734.57529407
  entropy T*S    EENTRO =        -0.00000000
  eigenvalues    EBANDS =      -262.86615909
  atomic energy  EATOM  =      1036.88928565
  Solvation  Ediel_sol  =         0.00000000
  ---------------------------------------------------
  free energy    TOTEN  =       -28.04159382 eV

  energy without entropy =      -28.04159382  energy(sigma->0) =      -28.04159382


--------------------------------------------------------------------------------------------------------




--------------------------------------- Iteration      1(  11)  ---------------------------------------


    POTLOK:  cpu time   12.8769: real time   12.8983
    SETDIJ:  cpu time    0.0400: real time    0.0401
     EDDAV:  cpu time   14.7721: real time   14.8067
       DOS:  cpu time    0.0120: real time    0.0120
    CHARGE:  cpu time    5.1429: real time    5.1496
    MIXING:  cpu time    0.2883: real time    0.2888
    --------------------------------------------
      LOOP:  cpu time   33.1322: real time   33.1954

 eigenvalue-minimisations  :    96
 total energy-change (2. order) :-0.3308448E-02  (-0.8765075E-04)
 number of electron      18.0000000 magnetization 
 augmentation part        2.6883915 magnetization 

 Broyden mixing:
  rms(total) = 0.14271E-01    rms(broyden)= 0.14271E-01
  rms(prec ) = 0.15614E-01
  weight for this iteration     100.00

 eigenvalues of (default mixing * dielectric matrix)
  average eigenvalue GAMMA=   1.5776
  2.5930  2.0688  2.0688  1.0066  1.0066  0.7220

 Free energy of the ion-electron system (eV)
  ---------------------------------------------------
  alpha Z        PSCENC =         0.02234163
  Ewald energy   TEWEN  =       576.89805319
  -Hartree energ DENC   =     -1443.81281093
  -exchange      EXHF   =         0.00000000
  -V(xc)+E(xc)   XCENC  =        74.83154181
  PAW double counting   =      3711.50870926    -3722.03567809
  entropy T*S    EENTRO =        -0.00000000
  eigenvalues    EBANDS =      -262.34634478
  atomic energy  EATOM  =      1036.88928565
  Solvation  Ediel_sol  =         0.00000000
  ---------------------------------------------------
  free energy    TOTEN  =       -28.04490227 eV

  energy without entropy =      -28.04490227  energy(sigma->0) =      -28.04490227


--------------------------------------------------------------------------------------------------------




--------------------------------------- Iteration      1(  12)  ---------------------------------------


    POTLOK:  cpu time   12.8278: real time   12.8496
    SETDIJ:  cpu time    0.0401: real time    0.0402
     EDDAV:  cpu time   11.1660: real time   11.1882
       DOS:  cpu time    0.0070: real time    0.0070
    CHARGE:  cpu time    5.1482: real time    5.1611
    MIXING:  cpu time    0.2860: real time    0.2864
    --------------------------------------------
      LOOP:  cpu time   29.4751: real time   29.5325

 eigenvalue-minimisations  :    64
 total energy-change (2. order) :-0.4003249E-02  (-0.8174912E-04)
 number of electron      18.0000000 magnetization 
 augmentation part        2.6880757 magnetization 

 Broyden mixing:
  rms(total) = 0.84335E-02    rms(broyden)= 0.84335E-02
  rms(prec ) = 0.94952E-02
  weight for this iteration     100.00

 eigenvalues of (default mixing * dielectric matrix)
  average eigenvalue GAMMA=   1.6914
  3.1859  2.5783  1.9835  0.7214  1.3983  0.9096  1.0627

 Free energy of the ion-electron system (eV)
  ---------------------------------------------------
  alpha Z        PSCENC =         0.02234163
  Ewald energy   TEWEN  =       576.89805319
  -Hartree energ DENC   =     -1444.60301209
  -exchange      EXHF   =         0.00000000
  -V(xc)+E(xc)   XCENC  =        74.84247196
  PAW double counting   =      3713.13119537    -3723.64864094
  entropy T*S    EENTRO =        -0.00000000
  eigenvalues    EBANDS =      -261.58060028
  atomic energy  EATOM  =      1036.88928565
  Solvation  Ediel_sol  =         0.00000000
  ---------------------------------------------------
  free energy    TOTEN  =       -28.04890552 eV

  energy without entropy =      -28.04890552  energy(sigma->0) =      -28.04890552


--------------------------------------------------------------------------------------------------------




--------------------------------------- Iteration      1(  13)  ---------------------------------------


    POTLOK:  cpu time   12.9113: real time   12.9329
    SETDIJ:  cpu time    0.0404: real time    0.0404
     EDDAV:  cpu time   14.7316: real time   14.7635
       DOS:  cpu time    0.0130: real time    0.0130
    CHARGE:  cpu time    5.0986: real time    5.1055
    MIXING:  cpu time    0.2955: real time    0.2960
    --------------------------------------------
      LOOP:  cpu time   33.0903: real time   33.1513

 eigenvalue-minimisations  :    96
 total energy-change (2. order) :-0.3791669E-02  (-0.6985402E-04)
 number of electron      18.0000000 magnetization 
 augmentation part        2.6872726 magnetization 

 Broyden mixing:
  rms(total) = 0.50111E-02    rms(broyden)= 0.50111E-02
  rms(prec ) = 0.57416E-02
  weight for this iteration     100.00

 eigenvalues of (default mixing * dielectric matrix)
  average eigenvalue GAMMA=   1.7651
  3.9523  2.4403  2.1921  1.8204  0.7211  1.0356  1.0356  0.9233

 Free energy of the ion-electron system (eV)
  ---------------------------------------------------
  alpha Z        PSCENC =         0.02234163
  Ewald energy   TEWEN  =       576.89805319
  -Hartree energ DENC   =     -1445.24575503
  -exchange      EXHF   =         0.00000000
  -V(xc)+E(xc)   XCENC  =        74.84846877
  PAW double counting   =      3707.71147129    -3718.22596103
  entropy T*S    EENTRO =        -0.00000000
  eigenvalues    EBANDS =      -260.95060166
  atomic energy  EATOM  =      1036.88928565
  Solvation  Ediel_sol  =         0.00000000
  ---------------------------------------------------
  free energy    TOTEN  =       -28.05269718 eV

  energy without entropy =      -28.05269718  energy(sigma->0) =      -28.05269718


--------------------------------------------------------------------------------------------------------




--------------------------------------- Iteration      1(  14)  ---------------------------------------


    POTLOK:  cpu time   12.8346: real time   12.8558
    SETDIJ:  cpu time    0.0415: real time    0.0415
     EDDAV:  cpu time   11.1326: real time   11.1536
       DOS:  cpu time    0.0210: real time    0.0211
    CHARGE:  cpu time    5.1910: real time    5.1988
    MIXING:  cpu time    0.3059: real time    0.3064
    --------------------------------------------
      LOOP:  cpu time   29.5266: real time   29.5772

 eigenvalue-minimisations  :    64
 total energy-change (2. order) :-0.3078337E-02  (-0.3441728E-04)
 number of electron      18.0000000 magnetization 
 augmentation part        2.6874966 magnetization 

 Broyden mixing:
  rms(total) = 0.33201E-02    rms(broyden)= 0.33201E-02
  rms(prec ) = 0.37406E-02
  weight for this iteration     100.00

 eigenvalues of (default mixing * dielectric matrix)
  average eigenvalue GAMMA=   1.8632
  4.9206  2.5881  2.5881  1.7384  1.3710  0.7223  1.0001  1.0001  0.8401

 Free energy of the ion-electron system (eV)
  ---------------------------------------------------
  alpha Z        PSCENC =         0.02234163
  Ewald energy   TEWEN  =       576.89805319
  -Hartree energ DENC   =     -1445.64791890
  -exchange      EXHF   =         0.00000000
  -V(xc)+E(xc)   XCENC  =        74.84856845
  PAW double counting   =      3708.42140129    -3718.93164792
  entropy T*S    EENTRO =        -0.00000000
  eigenvalues    EBANDS =      -260.55585890
  atomic energy  EATOM  =      1036.88928565
  Solvation  Ediel_sol  =         0.00000000
  ---------------------------------------------------
  free energy    TOTEN  =       -28.05577552 eV

  energy without entropy =      -28.05577552  energy(sigma->0) =      -28.05577552


--------------------------------------------------------------------------------------------------------




--------------------------------------- Iteration      1(  15)  ---------------------------------------


    POTLOK:  cpu time   12.8909: real time   12.9155
    SETDIJ:  cpu time    0.0400: real time    0.0401
     EDDAV:  cpu time   18.2990: real time   18.3497
       DOS:  cpu time    0.0170: real time    0.0170
    CHARGE:  cpu time    5.1358: real time    5.1447
    MIXING:  cpu time    0.3130: real time    0.3136
    --------------------------------------------
      LOOP:  cpu time   36.6957: real time   36.7804

 eigenvalue-minimisations  :   128
 total energy-change (2. order) :-0.2373922E-02  (-0.2773233E-04)
 number of electron      18.0000000 magnetization 
 augmentation part        2.6870668 magnetization 

 Broyden mixing:
  rms(total) = 0.18271E-02    rms(broyden)= 0.18271E-02
  rms(prec ) = 0.20527E-02
  weight for this iteration     100.00

 eigenvalues of (default mixing * dielectric matrix)
  average eigenvalue GAMMA=   1.8845
  5.6281  2.7477  2.3949  1.7782  1.7782  1.0227  1.0227  0.9586  0.7214  0.7929

 Free energy of the ion-electron system (eV)
  ---------------------------------------------------
  alpha Z        PSCENC =         0.02234163
  Ewald energy   TEWEN  =       576.89805319
  -Hartree energ DENC   =     -1445.97800253
  -exchange      EXHF   =         0.00000000
  -V(xc)+E(xc)   XCENC  =        74.85020608
  PAW double counting   =      3707.35706912    -3717.86744107
  entropy T*S    EENTRO =        -0.00000000
  eigenvalues    EBANDS =      -260.22966151
  atomic energy  EATOM  =      1036.88928565
  Solvation  Ediel_sol  =         0.00000000
  ---------------------------------------------------
  free energy    TOTEN  =       -28.05814944 eV

  energy without entropy =      -28.05814944  energy(sigma->0) =      -28.05814944


--------------------------------------------------------------------------------------------------------




--------------------------------------- Iteration      1(  16)  ---------------------------------------


    POTLOK:  cpu time   12.8403: real time   12.8615
    SETDIJ:  cpu time    0.0401: real time    0.0401
     EDDAV:  cpu time   11.2085: real time   11.2299
       DOS:  cpu time    0.0164: real time    0.0164
    CHARGE:  cpu time    5.1741: real time    5.1806
    MIXING:  cpu time    0.3556: real time    0.3562
    --------------------------------------------
      LOOP:  cpu time   29.6349: real time   29.6846

 eigenvalue-minimisations  :    64
 total energy-change (2. order) :-0.9046214E-03  (-0.3664479E-05)
 number of electron      18.0000000 magnetization 
 augmentation part        2.6869758 magnetization 

 Broyden mixing:
  rms(total) = 0.95726E-03    rms(broyden)= 0.95726E-03
  rms(prec ) = 0.11629E-02
  weight for this iteration     100.00

 eigenvalues of (default mixing * dielectric matrix)
  average eigenvalue GAMMA=   2.0379
  5.9874  3.7132  2.5478  2.5478  1.6936  1.4584  0.7214  1.0126  1.0126  0.9022
  0.8194

 Free energy of the ion-electron system (eV)
  ---------------------------------------------------
  alpha Z        PSCENC =         0.02234163
  Ewald energy   TEWEN  =       576.89805319
  -Hartree energ DENC   =     -1446.07401590
  -exchange      EXHF   =         0.00000000
  -V(xc)+E(xc)   XCENC  =        74.84983207
  PAW double counting   =      3706.33924873    -3716.84924946
  entropy T*S    EENTRO =        -0.00000000
  eigenvalues    EBANDS =      -260.13454997
  atomic energy  EATOM  =      1036.88928565
  Solvation  Ediel_sol  =         0.00000000
  ---------------------------------------------------
  free energy    TOTEN  =       -28.05905407 eV

  energy without entropy =      -28.05905407  energy(sigma->0) =      -28.05905407


--------------------------------------------------------------------------------------------------------




--------------------------------------- Iteration      1(  17)  ---------------------------------------


    POTLOK:  cpu time   12.9124: real time   12.9337
    SETDIJ:  cpu time    0.0403: real time    0.0403
     EDDAV:  cpu time   14.7497: real time   14.7844
       DOS:  cpu time    0.0057: real time    0.0057
    CHARGE:  cpu time    5.1217: real time    5.1284
    MIXING:  cpu time    0.3193: real time    0.3198
    --------------------------------------------
      LOOP:  cpu time   33.1490: real time   33.2122

 eigenvalue-minimisations  :    96
 total energy-change (2. order) :-0.1423105E-02  (-0.1259062E-04)
 number of electron      18.0000000 magnetization 
 augmentation part        2.6869145 magnetization 

 Broyden mixing:
  rms(total) = 0.86623E-03    rms(broyden)= 0.86623E-03
  rms(prec ) = 0.90494E-03
  weight for this iteration     100.00

 eigenvalues of (default mixing * dielectric matrix)
  average eigenvalue GAMMA=   2.0997
  7.6964  3.8422  2.4913  2.4913  1.7160  1.7160  1.0203  1.0203  0.7222  0.8796
  0.8158  0.7852

 Free energy of the ion-electron system (eV)
  ---------------------------------------------------
  alpha Z        PSCENC =         0.02234163
  Ewald energy   TEWEN  =       576.89805319
  -Hartree energ DENC   =     -1446.14686002
  -exchange      EXHF   =         0.00000000
  -V(xc)+E(xc)   XCENC  =        74.84787063
  PAW double counting   =      3706.34343145    -3716.85284548
  entropy T*S    EENTRO =        -0.00000000
  eigenvalues    EBANDS =      -260.06175422
  atomic energy  EATOM  =      1036.88928565
  Solvation  Ediel_sol  =         0.00000000
  ---------------------------------------------------
  free energy    TOTEN  =       -28.06047717 eV

  energy without entropy =      -28.06047717  energy(sigma->0) =      -28.06047717


--------------------------------------------------------------------------------------------------------




--------------------------------------- Iteration      1(  18)  ---------------------------------------


    POTLOK:  cpu time   12.8372: real time   12.8587
    SETDIJ:  cpu time    0.0401: real time    0.0401
     EDDAV:  cpu time   18.3828: real time   18.4269
       DOS:  cpu time    0.0105: real time    0.0105
    CHARGE:  cpu time    5.2064: real time    5.2140
    MIXING:  cpu time    0.3451: real time    0.3457
    --------------------------------------------
      LOOP:  cpu time   36.8220: real time   36.8959

 eigenvalue-minimisations  :   128
 total energy-change (2. order) :-0.1661671E-03  (-0.4235883E-06)
 number of electron      18.0000000 magnetization 
 augmentation part        2.6869467 magnetization 

 Broyden mixing:
  rms(total) = 0.48629E-03    rms(broyden)= 0.48629E-03
  rms(prec ) = 0.52209E-03
  weight for this iteration     100.00

 eigenvalues of (default mixing * dielectric matrix)
  average eigenvalue GAMMA=   2.1363
  8.0565  3.9430  2.7517  2.3838  1.9383  1.9383  1.1230  1.1230  1.0904  0.7215
  0.9439  0.9439  0.8142

 Free energy of the ion-electron system (eV)
  ---------------------------------------------------
  alpha Z        PSCENC =         0.02234163
  Ewald energy   TEWEN  =       576.89805319
  -Hartree energ DENC   =     -1446.17739249
  -exchange      EXHF   =         0.00000000
  -V(xc)+E(xc)   XCENC  =        74.84773830
  PAW double counting   =      3706.24770361    -3716.75685324
  entropy T*S    EENTRO =        -0.00000000
  eigenvalues    EBANDS =      -260.03151998
  atomic energy  EATOM  =      1036.88928565
  Solvation  Ediel_sol  =         0.00000000
  ---------------------------------------------------
  free energy    TOTEN  =       -28.06064334 eV

  energy without entropy =      -28.06064334  energy(sigma->0) =      -28.06064334


--------------------------------------------------------------------------------------------------------




--------------------------------------- Iteration      1(  19)  ---------------------------------------


    POTLOK:  cpu time   12.9053: real time   12.9260
    SETDIJ:  cpu time    0.0401: real time    0.0401
     EDDAV:  cpu time   18.3890: real time   18.4235
       DOS:  cpu time    0.0076: real time    0.0076
    CHARGE:  cpu time    5.0898: real time    5.0970
    MIXING:  cpu time    0.3509: real time    0.3516
    --------------------------------------------
      LOOP:  cpu time   36.7828: real time   36.8459

 eigenvalue-minimisations  :   128
 total energy-change (2. order) :-0.2875169E-03  (-0.7564887E-06)
 number of electron      18.0000000 magnetization 
 augmentation part        2.6869427 magnetization 

 Broyden mixing:
  rms(total) = 0.29971E-03    rms(broyden)= 0.29971E-03
  rms(prec ) = 0.31529E-03
  weight for this iteration     100.00

 eigenvalues of (default mixing * dielectric matrix)
  average eigenvalue GAMMA=   2.2370
  8.4824  5.1711  3.0798  2.4382  2.4382  1.7151  1.7151  1.0221  1.0221  0.9748
  0.7216  0.8649  0.8649  0.8077

 Free energy of the ion-electron system (eV)
  ---------------------------------------------------
  alpha Z        PSCENC =         0.02234163
  Ewald energy   TEWEN  =       576.89805319
  -Hartree energ DENC   =     -1446.18281480
  -exchange      EXHF   =         0.00000000
  -V(xc)+E(xc)   XCENC  =        74.84727771
  PAW double counting   =      3706.25473502    -3716.76399305
  entropy T*S    EENTRO =        -0.00000000
  eigenvalues    EBANDS =      -260.02581620
  atomic energy  EATOM  =      1036.88928565
  Solvation  Ediel_sol  =         0.00000000
  ---------------------------------------------------
  free energy    TOTEN  =       -28.06093085 eV

  energy without entropy =      -28.06093085  energy(sigma->0) =      -28.06093085


--------------------------------------------------------------------------------------------------------




--------------------------------------- Iteration      1(  20)  ---------------------------------------


    POTLOK:  cpu time   12.8446: real time   12.8657
    SETDIJ:  cpu time    0.0400: real time    0.0401
     EDDAV:  cpu time   18.3841: real time   18.4323
       DOS:  cpu time    0.0149: real time    0.0149
    CHARGE:  cpu time    5.1805: real time    5.1959
    MIXING:  cpu time    0.3571: real time    0.3579
    --------------------------------------------
      LOOP:  cpu time   36.8213: real time   36.9067

 eigenvalue-minimisations  :   128
 total energy-change (2. order) :-0.1176387E-03  (-0.4115272E-06)
 number of electron      18.0000000 magnetization 
 augmentation part        2.6869570 magnetization 

 Broyden mixing:
  rms(total) = 0.17135E-03    rms(broyden)= 0.17135E-03
  rms(prec ) = 0.17894E-03
  weight for this iteration     100.00

 eigenvalues of (default mixing * dielectric matrix)
  average eigenvalue GAMMA=   2.2981
  8.9683  5.5298  3.6295  2.3786  2.3786  2.1098  1.7035  1.1833  1.1833  0.7216
  1.0313  1.0313  0.9094  0.9094  0.8033

 Free energy of the ion-electron system (eV)
  ---------------------------------------------------
  alpha Z        PSCENC =         0.02234163
  Ewald energy   TEWEN  =       576.89805319
  -Hartree energ DENC   =     -1446.17856332
  -exchange      EXHF   =         0.00000000
  -V(xc)+E(xc)   XCENC  =        74.84690221
  PAW double counting   =      3706.14911443    -3716.65845873
  entropy T*S    EENTRO =        -0.00000000
  eigenvalues    EBANDS =      -260.02972355
  atomic energy  EATOM  =      1036.88928565
  Solvation  Ediel_sol  =         0.00000000
  ---------------------------------------------------
  free energy    TOTEN  =       -28.06104849 eV

  energy without entropy =      -28.06104849  energy(sigma->0) =      -28.06104849


--------------------------------------------------------------------------------------------------------




--------------------------------------- Iteration      1(  21)  ---------------------------------------


    POTLOK:  cpu time   12.8856: real time   12.9066
    SETDIJ:  cpu time    0.0400: real time    0.0400
     EDDAV:  cpu time   18.4029: real time   18.4445
       DOS:  cpu time    0.0151: real time    0.0151
    CHARGE:  cpu time    5.1270: real time    5.1335
    MIXING:  cpu time    0.3934: real time    0.3941
    --------------------------------------------
      LOOP:  cpu time   36.8640: real time   36.9338

 eigenvalue-minimisations  :   128
 total energy-change (2. order) :-0.5466097E-04  (-0.6209983E-07)
 number of electron      18.0000000 magnetization 
 augmentation part        2.6869789 magnetization 

 Broyden mixing:
  rms(total) = 0.81388E-04    rms(broyden)= 0.81388E-04
  rms(prec ) = 0.86319E-04
  weight for this iteration     100.00

 eigenvalues of (default mixing * dielectric matrix)
  average eigenvalue GAMMA=   2.2950
  9.2473  5.6386  3.9163  2.6252  2.4767  2.2612  1.6705  1.6705  0.7216  1.0030
  1.0030  1.0351  0.8825  0.8825  0.8434  0.8434

 Free energy of the ion-electron system (eV)
  ---------------------------------------------------
  alpha Z        PSCENC =         0.02234163
  Ewald energy   TEWEN  =       576.89805319
  -Hartree energ DENC   =     -1446.17897312
  -exchange      EXHF   =         0.00000000
  -V(xc)+E(xc)   XCENC  =        74.84673749
  PAW double counting   =      3706.11719684    -3716.62644492
  entropy T*S    EENTRO =        -0.00000000
  eigenvalues    EBANDS =      -260.02929991
  atomic energy  EATOM  =      1036.88928565
  Solvation  Ediel_sol  =         0.00000000
  ---------------------------------------------------
  free energy    TOTEN  =       -28.06110315 eV

  energy without entropy =      -28.06110315  energy(sigma->0) =      -28.06110315


--------------------------------------------------------------------------------------------------------




--------------------------------------- Iteration      1(  22)  ---------------------------------------


    POTLOK:  cpu time   12.8305: real time   12.8576
    SETDIJ:  cpu time    0.0400: real time    0.0401
     EDDAV:  cpu time   18.3918: real time   18.4348
       DOS:  cpu time    0.0062: real time    0.0062
    CHARGE:  cpu time    5.1818: real time    5.1974
    MIXING:  cpu time    0.4082: real time    0.4090
    --------------------------------------------
      LOOP:  cpu time   36.8586: real time   36.9450

 eigenvalue-minimisations  :   128
 total energy-change (2. order) :-0.2201161E-04  (-0.1454382E-07)
 number of electron      18.0000000 magnetization 
 augmentation part        2.6869650 magnetization 

 Broyden mixing:
  rms(total) = 0.52630E-04    rms(broyden)= 0.52630E-04
  rms(prec ) = 0.54900E-04
  weight for this iteration     100.00

 eigenvalues of (default mixing * dielectric matrix)
  average eigenvalue GAMMA=   2.3217
  9.2826  6.1107  4.2078  3.0280  2.3435  2.3435  1.8506  1.8506  1.0646  1.0646
  1.0455  1.0455  0.7216  0.9325  0.9325  0.8220  0.8220

 Free energy of the ion-electron system (eV)
  ---------------------------------------------------
  alpha Z        PSCENC =         0.02234163
  Ewald energy   TEWEN  =       576.89805319
  -Hartree energ DENC   =     -1446.18186669
  -exchange      EXHF   =         0.00000000
  -V(xc)+E(xc)   XCENC  =        74.84681248
  PAW double counting   =      3706.13329831    -3716.64261643
  entropy T*S    EENTRO =        -0.00000000
  eigenvalues    EBANDS =      -260.02643331
  atomic energy  EATOM  =      1036.88928565
  Solvation  Ediel_sol  =         0.00000000
  ---------------------------------------------------
  free energy    TOTEN  =       -28.06112517 eV

  energy without entropy =      -28.06112517  energy(sigma->0) =      -28.06112517


--------------------------------------------------------------------------------------------------------




--------------------------------------- Iteration      1(  23)  ---------------------------------------


    POTLOK:  cpu time   12.8768: real time   12.9038
    SETDIJ:  cpu time    0.0402: real time    0.0402
     EDDAV:  cpu time   18.3345: real time   18.3694
       DOS:  cpu time    0.0136: real time    0.0136
    CHARGE:  cpu time    5.1364: real time    5.1453
    MIXING:  cpu time    0.4261: real time    0.4269
    --------------------------------------------
      LOOP:  cpu time   36.8275: real time   36.8992

 eigenvalue-minimisations  :   128
 total energy-change (2. order) :-0.1096569E-04  (-0.5432014E-08)
 number of electron      18.0000000 magnetization 
 augmentation part        2.6869582 magnetization 

 Broyden mixing:
  rms(total) = 0.37151E-04    rms(broyden)= 0.37151E-04
  rms(prec ) = 0.38229E-04
  weight for this iteration     100.00

 eigenvalues of (default mixing * dielectric matrix)
  average eigenvalue GAMMA=   2.3752
  9.4265  6.5830  4.5607  3.2708  2.5243  2.5243  2.1663  1.6709  1.6709  0.7216
  0.9853  0.9853  1.0379  1.0149  1.0149  0.8157  0.8903  0.8903

 Free energy of the ion-electron system (eV)
  ---------------------------------------------------
  alpha Z        PSCENC =         0.02234163
  Ewald energy   TEWEN  =       576.89805319
  -Hartree energ DENC   =     -1446.18257786
  -exchange      EXHF   =         0.00000000
  -V(xc)+E(xc)   XCENC  =        74.84684200
  PAW double counting   =      3706.15463499    -3716.66396691
  entropy T*S    EENTRO =        -0.00000000
  eigenvalues    EBANDS =      -260.02574882
  atomic energy  EATOM  =      1036.88928565
  Solvation  Ediel_sol  =         0.00000000
  ---------------------------------------------------
  free energy    TOTEN  =       -28.06113613 eV

  energy without entropy =      -28.06113613  energy(sigma->0) =      -28.06113613


--------------------------------------------------------------------------------------------------------




--------------------------------------- Iteration      1(  24)  ---------------------------------------


    POTLOK:  cpu time   12.8862: real time   12.9118
    SETDIJ:  cpu time    0.0401: real time    0.0401
     EDDAV:  cpu time   18.3445: real time   18.3787
       DOS:  cpu time    0.0123: real time    0.0123
    CHARGE:  cpu time    5.1915: real time    5.1981
    MIXING:  cpu time    0.4258: real time    0.4267
    --------------------------------------------
      LOOP:  cpu time   36.9003: real time   36.9677

 eigenvalue-minimisations  :   128
 total energy-change (2. order) :-0.6247329E-05  (-0.3126608E-08)
 number of electron      18.0000000 magnetization 
 augmentation part        2.6869594 magnetization 

 Broyden mixing:
  rms(total) = 0.10928E-04    rms(broyden)= 0.10928E-04
  rms(prec ) = 0.11892E-04
  weight for this iteration     100.00

 eigenvalues of (default mixing * dielectric matrix)
  average eigenvalue GAMMA=   2.3835
  9.4230  6.9465  4.8124  3.4522  2.5946  2.5946  1.9934  1.9934  1.9066  0.7216
  1.0644  1.0644  1.1126  1.1126  0.8212  0.9541  0.9541  0.8819  0.8819

 Free energy of the ion-electron system (eV)
  ---------------------------------------------------
  alpha Z        PSCENC =         0.02234163
  Ewald energy   TEWEN  =       576.89805319
  -Hartree energ DENC   =     -1446.18275481
  -exchange      EXHF   =         0.00000000
  -V(xc)+E(xc)   XCENC  =        74.84683601
  PAW double counting   =      3706.15936495    -3716.66867528
  entropy T*S    EENTRO =        -0.00000000
  eigenvalues    EBANDS =      -260.02559371
  atomic energy  EATOM  =      1036.88928565
  Solvation  Ediel_sol  =         0.00000000
  ---------------------------------------------------
  free energy    TOTEN  =       -28.06114238 eV

  energy without entropy =      -28.06114238  energy(sigma->0) =      -28.06114238


--------------------------------------------------------------------------------------------------------




--------------------------------------- Iteration      1(  25)  ---------------------------------------


    POTLOK:  cpu time   12.8542: real time   12.8819
    SETDIJ:  cpu time    0.0417: real time    0.0417
     EDDAV:  cpu time   18.3803: real time   18.4188
       DOS:  cpu time    0.0044: real time    0.0044
    CHARGE:  cpu time    5.1862: real time    5.1928
    MIXING:  cpu time    0.4415: real time    0.4423
    --------------------------------------------
      LOOP:  cpu time   36.9082: real time   36.9818

 eigenvalue-minimisations  :   128
 total energy-change (2. order) :-0.2284327E-05  (-0.2021952E-08)
 number of electron      18.0000000 magnetization 
 augmentation part        2.6869609 magnetization 

 Broyden mixing:
  rms(total) = 0.67566E-05    rms(broyden)= 0.67566E-05
  rms(prec ) = 0.72702E-05
  weight for this iteration     100.00

 eigenvalues of (default mixing * dielectric matrix)
  average eigenvalue GAMMA=   2.4395
  9.6532  7.0805  5.2663  3.7025  2.9967  2.5103  2.5103  2.2960  1.7005  1.7005
  0.7216  1.0300  1.0300  1.0322  1.0322  0.9869  0.9138  0.9138  0.8266  0.8855

 Free energy of the ion-electron system (eV)
  ---------------------------------------------------
  alpha Z        PSCENC =         0.02234163
  Ewald energy   TEWEN  =       576.89805319
  -Hartree energ DENC   =     -1446.18254534
  -exchange      EXHF   =         0.00000000
  -V(xc)+E(xc)   XCENC  =        74.84682202
  PAW double counting   =      3706.15863633    -3716.66794135
  entropy T*S    EENTRO =        -0.00000000
  eigenvalues    EBANDS =      -260.02579680
  atomic energy  EATOM  =      1036.88928565
  Solvation  Ediel_sol  =         0.00000000
  ---------------------------------------------------
  free energy    TOTEN  =       -28.06114466 eV

  energy without entropy =      -28.06114466  energy(sigma->0) =      -28.06114466


--------------------------------------------------------------------------------------------------------




--------------------------------------- Iteration      1(  26)  ---------------------------------------


    POTLOK:  cpu time   12.8541: real time   12.8767
    SETDIJ:  cpu time    0.0401: real time    0.0401
     EDDAV:  cpu time   18.4082: real time   18.4460
       DOS:  cpu time    0.0066: real time    0.0066
    CHARGE:  cpu time    5.1138: real time    5.1202
    MIXING:  cpu time    0.4730: real time    0.4739
    --------------------------------------------
      LOOP:  cpu time   36.8958: real time   36.9635

 eigenvalue-minimisations  :   128
 total energy-change (2. order) :-0.1300642E-05  (-0.1798780E-08)
 number of electron      18.0000000 magnetization 
 augmentation part        2.6869622 magnetization 

 Broyden mixing:
  rms(total) = 0.47070E-05    rms(broyden)= 0.47070E-05
  rms(prec ) = 0.49178E-05
  weight for this iteration     100.00

 eigenvalues of (default mixing * dielectric matrix)
  average eigenvalue GAMMA=   2.4746
  9.6491  7.3801  5.5121  4.0997  3.0744  2.4362  2.4362  2.3991  2.3991  1.7369
  1.4689  0.7216  1.0252  1.0252  0.8218  1.0207  1.0207  0.9745  0.9745  0.8958
  0.8958

 Free energy of the ion-electron system (eV)
  ---------------------------------------------------
  alpha Z        PSCENC =         0.02234163
  Ewald energy   TEWEN  =       576.89805319
  -Hartree energ DENC   =     -1446.18243121
  -exchange      EXHF   =         0.00000000
  -V(xc)+E(xc)   XCENC  =        74.84681181
  PAW double counting   =      3706.15262693    -3716.66193240
  entropy T*S    EENTRO =        -0.00000000
  eigenvalues    EBANDS =      -260.02590155
  atomic energy  EATOM  =      1036.88928565
  Solvation  Ediel_sol  =         0.00000000
  ---------------------------------------------------
  free energy    TOTEN  =       -28.06114596 eV

  energy without entropy =      -28.06114596  energy(sigma->0) =      -28.06114596


--------------------------------------------------------------------------------------------------------




--------------------------------------- Iteration      1(  27)  ---------------------------------------


    POTLOK:  cpu time   12.7850: real time   12.8066
    SETDIJ:  cpu time    0.0401: real time    0.0401
     EDDAV:  cpu time   18.3372: real time   18.3873
       DOS:  cpu time    0.0150: real time    0.0150
    CHARGE:  cpu time    5.2005: real time    5.2072
    MIXING:  cpu time    0.4779: real time    0.4789
    --------------------------------------------
      LOOP:  cpu time   36.8557: real time   36.9351

 eigenvalue-minimisations  :   128
 total energy-change (2. order) :-0.4761143E-06  (-0.1383194E-08)
 number of electron      18.0000000 magnetization 
 augmentation part        2.6869614 magnetization 

 Broyden mixing:
  rms(total) = 0.32474E-05    rms(broyden)= 0.32474E-05
  rms(prec ) = 0.33312E-05
  weight for this iteration     100.00

 eigenvalues of (default mixing * dielectric matrix)
  average eigenvalue GAMMA=   2.4821
  9.6788  7.5438  5.7892  4.2909  3.1945  2.5493  2.5493  2.4725  2.4725  1.7657
  1.7657  0.7216  1.1248  1.1248  1.0165  1.0165  0.8205  0.9829  0.9829  0.9756
  0.8836  0.8836

 Free energy of the ion-electron system (eV)
  ---------------------------------------------------
  alpha Z        PSCENC =         0.02234163
  Ewald energy   TEWEN  =       576.89805319
  -Hartree energ DENC   =     -1446.18252806
  -exchange      EXHF   =         0.00000000
  -V(xc)+E(xc)   XCENC  =        74.84681785
  PAW double counting   =      3706.15376784    -3716.66307771
  entropy T*S    EENTRO =        -0.00000000
  eigenvalues    EBANDS =      -260.02580682
  atomic energy  EATOM  =      1036.88928565
  Solvation  Ediel_sol  =         0.00000000
  ---------------------------------------------------
  free energy    TOTEN  =       -28.06114644 eV

  energy without entropy =      -28.06114644  energy(sigma->0) =      -28.06114644


--------------------------------------------------------------------------------------------------------




--------------------------------------- Iteration      1(  28)  ---------------------------------------


    POTLOK:  cpu time   12.8434: real time   12.8646
    SETDIJ:  cpu time    0.0401: real time    0.0401
     EDDAV:  cpu time   18.3841: real time   18.4222
       DOS:  cpu time    0.0143: real time    0.0143
    CHARGE:  cpu time    5.0864: real time    5.0929
    MIXING:  cpu time    0.5056: real time    0.5066
    --------------------------------------------
      LOOP:  cpu time   36.8739: real time   36.9406

 eigenvalue-minimisations  :   128
 total energy-change (2. order) :-0.2007914E-06  (-0.1076119E-08)
 number of electron      18.0000000 magnetization 
 augmentation part        2.6869614 magnetization 

 Broyden mixing:
  rms(total) = 0.18470E-05    rms(broyden)= 0.18470E-05
  rms(prec ) = 0.18958E-05
  weight for this iteration     100.00

 eigenvalues of (default mixing * dielectric matrix)
  average eigenvalue GAMMA=   2.4703
  9.6658  7.8534  5.9025  4.7006  3.4405  2.7841  2.3780  2.3780  2.0836  2.0836
  1.7942  1.3820  0.7216  1.0296  1.0296  0.8211  1.0275  1.0275  1.0294  0.8896
  0.8896  0.9523  0.9523

 Free energy of the ion-electron system (eV)
  ---------------------------------------------------
  alpha Z        PSCENC =         0.02234163
  Ewald energy   TEWEN  =       576.89805319
  -Hartree energ DENC   =     -1446.18249641
  -exchange      EXHF   =         0.00000000
  -V(xc)+E(xc)   XCENC  =        74.84681619
  PAW double counting   =      3706.15442548    -3716.66373499
  entropy T*S    EENTRO =        -0.00000000
  eigenvalues    EBANDS =      -260.02583737
  atomic energy  EATOM  =      1036.88928565
  Solvation  Ediel_sol  =         0.00000000
  ---------------------------------------------------
  free energy    TOTEN  =       -28.06114664 eV

  energy without entropy =      -28.06114664  energy(sigma->0) =      -28.06114664


--------------------------------------------------------------------------------------------------------




--------------------------------------- Iteration      1(  29)  ---------------------------------------


    POTLOK:  cpu time   12.7429: real time   12.7637
    SETDIJ:  cpu time    0.0400: real time    0.0401
     EDDAV:  cpu time   18.3155: real time   18.3573
       DOS:  cpu time    0.0233: real time    0.0233
    --------------------------------------------
      LOOP:  cpu time   31.1217: real time   31.1844

 eigenvalue-minimisations  :   128
 total energy-change (2. order) :-0.9463974E-07  (-0.8780301E-09)
 number of electron      18.0000000 magnetization 
 augmentation part        2.6869614 magnetization 

 Free energy of the ion-electron system (eV)
  ---------------------------------------------------
  alpha Z        PSCENC =         0.02234163
  Ewald energy   TEWEN  =       576.89805319
  -Hartree energ DENC   =     -1446.18245864
  -exchange      EXHF   =         0.00000000
  -V(xc)+E(xc)   XCENC  =        74.84681469
  PAW double counting   =      3706.15407863    -3716.66338789
  entropy T*S    EENTRO =        -0.00000000
  eigenvalues    EBANDS =      -260.02587399
  atomic energy  EATOM  =      1036.88928565
  Solvation  Ediel_sol  =         0.00000000
  ---------------------------------------------------
  free energy    TOTEN  =       -28.06114674 eV

  energy without entropy =      -28.06114674  energy(sigma->0) =      -28.06114674


--------------------------------------------------------------------------------------------------------




 average (electrostatic) potential at core
  the test charge radii are     0.6256  0.8471  0.8742
  (the norm of the test charge is              1.0000)
       1 -41.4150       2 -41.4150       3 -86.4036       4 -93.5385       5 -90.7015
 
 
 
 E-fermi :  -7.1733     XC(G=0):  -0.0353     alpha+bet : -0.0076


 k-point     1 :       0.0000    0.0000    0.0000
  band No.  band energies     occupation 
      1     -29.3583      2.00000
      2     -25.4814      2.00000
      3     -13.6788      2.00000
      4     -13.1380      2.00000
      5     -11.5951      2.00000
      6     -11.5930      2.00000
      7      -9.1973      2.00000
      8      -8.7510      2.00000
      9      -7.2200      2.00000
     10      -2.0113      0.00000
     11      -2.0092      0.00000
     12      -0.9900      0.00000
     13      -0.0031      0.00000
     14       0.0806      0.00000
     15       0.0999      0.00000
     16       0.1122      0.00000
     17       0.1163      0.00000
     18       0.1185      0.00000
     19       0.1293      0.00000
     20       0.1798      0.00000
     21       0.1901      0.00000
     22       0.2212      0.00000
     23       0.2376      0.00000
     24       0.2378      0.00000
     25       0.2387      0.00000
     26       0.2402      0.00000
     27       0.2415      0.00000
     28       0.2422      0.00000
     29       0.2431      0.00000
     30       0.2435      0.00000
     31       0.2703      0.00000
     32       0.3206      0.00000


--------------------------------------------------------------------------------------------------------


 soft charge-density along one line, spin component            1
         0         1         2         3         4         5         6         7         8         9
 total charge-density along one line
 
 pseudopotential strength for first ion, spin component:            1
 -2.341  -3.717   0.013  -0.020   0.001
 -3.717  -5.733   0.026  -0.041   0.001
  0.013   0.026  -0.117  -0.014   0.001
 -0.020  -0.041  -0.014  -0.105  -0.001
  0.001   0.001   0.001  -0.001  -0.129
 total augmentation occupancy for first ion, spin component:            1
  2.827  -0.512  -0.600   0.858  -0.032
 -0.512   0.212   0.081  -0.093   0.004
 -0.600   0.081   0.182  -0.168   0.005
  0.858  -0.093  -0.168   0.310  -0.009
 -0.032   0.004   0.005  -0.009   0.103


------------------------ aborting loop because EDIFF is reached ----------------------------------------



 DIPCOR: dipole corrections for dipol
 direction  1 min pos   354, direction  2 min pos   411, direction  3 min pos   384,
 dipolmoment          -0.014196     -0.433555      0.017907 electrons x Angstroem
 Tr[quadrupol]         6.313352

 energy correction for charged system         0.000000 eV
 dipol+quadrupol energy correction            0.000133 eV
 added-field ion interaction          0.000000 eV  (added to PSCEN)

 
  *************** adding dipol energy to TOTEN NOW **************** 
    CHARGE:  cpu time    5.2025: real time    5.2095
    FORLOC:  cpu time    0.5008: real time    0.5015
    FORNL :  cpu time    0.4259: real time    0.4266
    STRESS:  cpu time   11.4550: real time   11.4769
    FORHAR:  cpu time    3.2845: real time    3.2901
    MIXING:  cpu time    0.5408: real time    0.5418
    OFIELD:  cpu time    0.0000: real time    0.0000

  Hirshfeld charges:
            ion         q(e)     
   ------------------------------
      1     H           0.149
      2     H           0.149
      3     C           0.066
      4     O          -0.068
      5     O          -0.295

  Hirshfeld-I charges:
            ion         q(e)        dq(e)    
   ------------------------------------------
      1     H           0.459      0.211E-04
      2     H           0.459      0.211E-04
      3     C           0.127     -0.431E-06
      4     O          -0.124      0.775E-06
      5     O          -0.920     -0.426E-04

   Hirshfeld-I converged in  18 cycles. Convergence criterion |dq|< 0.500E-04 e

  Atomic reference data used in the T-S method for vdW correction:
            C6at              R0at           ALPHAat      REFSTATE
            (au)              (au)            (au)                
   ---------------------------------------------------------------
   H           6.500          3.099          4.500         0
   C          46.600          3.590         12.000         0
   O          15.600          3.194          5.400         0

  Tkatchenko/Scheffler method for vdW energy calculation
  ---------------------------------------------------------------------------------------------

  Parameters of vdW forcefield:
            C6ts              R0ts           ALPHAts        RELVOL
            (au)              (au)            (au)                
   ---------------------------------------------------------------
   H           0.592          2.079          1.359          0.30191404
   H           0.591          2.078          1.357          0.30157630
   C          29.288          3.323          9.513          0.79277980
   O          13.685          3.125          5.058          0.93660025
   O          26.908          3.497          7.092          1.31333542

  vdW correction parametrized for the method pbe       

  IVDW =  21
  VDW_RADIUS =    50.000 A
  VDW_IDAMPF =  0
  VDW_S6 =     1.000
  VDW_SR =     0.950
  VDW_D =    20.000
  LVDW_ONECELL = F F F
  LVDW_SAMETYPE T T T
  LVDW_EWALD = F

  Number of pair interactions contributing to vdW energy:     234
  Edisp (eV):   -0.00611
    FORVDW:  cpu time   90.5893: real time   90.6491

  FORCE on cell =-STRESS in cart. coord.  units (eV):
  Direction    XX          YY          ZZ          XY          YZ          ZX
  --------------------------------------------------------------------------------------
  Alpha Z     0.02234     0.02234     0.02234
  Ewald     -63.46644   581.16071    59.20324     2.70021     2.08742    -1.41857
  Hartree   349.61332   725.85610   370.71305     0.61728     0.14126    -0.24514
  E(xc)     -79.79867   -78.32523   -79.31847     0.01051     0.00894    -0.00559
  Local    -642.18088 -1613.58931  -746.50249    -2.49632    -1.43803     1.20620
  n-local    60.11624    46.39925    55.27058    -0.13550    -0.05317     0.05781
  augment    91.16723    86.46648    83.66695    -0.15951    -0.14644     0.08714
  Kinetic   284.52664   258.77618   259.29701    -0.49447    -0.54322     0.29119
  Fock        0.00000     0.00000     0.00000     0.00000     0.00000     0.00000
  vdW        -0.00000    -0.02694     0.00090    -0.00002     0.00010    -0.00001
  -------------------------------------------------------------------------------------
  Total      -0.00022     6.73958     2.35310     0.04218     0.05686    -0.02698
  in kB      -0.00001     0.25185     0.08793     0.00158     0.00212    -0.00101
  external pressure =        0.11 kB  Pullay stress =        0.00 kB


 VOLUME and BASIS-vectors are now :
 -----------------------------------------------------------------------------
  energy-cutoff  :     1000.00
  volume of cell :    42875.00
      direct lattice vectors                 reciprocal lattice vectors
    35.000000000  0.000000000  0.000000000     0.028571429  0.000000000  0.000000000
     0.000000000 35.000000000  0.000000000     0.000000000  0.028571429  0.000000000
     0.000000000  0.000000000 35.000000000     0.000000000  0.000000000  0.028571429

  length of vectors
    35.000000000 35.000000000 35.000000000     0.028571429  0.028571429  0.028571429


 FORCES acting on ions
    electron-ion (+dipol)            ewald-force                    non-local-force                 convergence-correction
 -----------------------------------------------------------------------------------------------
   -.271E+01 -.548E+02 0.756E+02   0.300E+01 0.600E+02 -.837E+02   -.234E+00 -.425E+01 0.651E+01   0.680E-07 0.100E-05 -.999E-06
   -.116E+01 -.615E+02 -.706E+02   0.128E+01 0.674E+02 0.782E+02   -.100E+00 -.485E+01 -.608E+01   0.492E-07 0.109E-05 0.880E-06
   0.155E-01 0.248E+03 -.297E-01   -.150E-01 -.285E+03 0.283E-01   -.562E-03 0.321E+02 0.202E-02   0.168E-06 0.102E-06 0.278E-07
   0.415E-01 -.141E+03 -.749E-01   -.453E-01 0.220E+03 0.909E-01   0.400E-02 -.735E+02 -.171E-01   0.226E-06 0.585E-05 -.319E-07
   0.171E+01 -.582E+01 -.219E+01   -.422E+01 -.625E+02 0.540E+01   0.243E+01 0.663E+02 -.312E+01   0.325E-06 0.526E-05 -.289E-06
 -----------------------------------------------------------------------------------------------
   -.210E+01 -.159E+02 0.270E+01   0.000E+00 0.568E-13 -.444E-14   0.210E+01 0.159E+02 -.270E+01   0.837E-06 0.133E-04 -.413E-06
 
 
 POSITION                                       TOTAL-FORCE (eV/Angst)
 -----------------------------------------------------------------------------------
      0.02970      5.48138     34.21499         0.053209      0.925834     -1.600697
      0.01365      5.55327      0.72944         0.020277      1.074342      1.506258
      0.00000      0.08826      0.00000        -0.000120     -4.877740      0.000633
      0.00000      1.22721      0.00000         0.000160      4.877588     -0.001040
      0.00000      4.92721      0.00000        -0.073526     -2.000025      0.094846
 -----------------------------------------------------------------------------------
    total drift:                               -0.000002      0.000346     -0.000012


--------------------------------------------------------------------------------------------------------



  FREE ENERGIE OF THE ION-ELECTRON SYSTEM (eV)
  ---------------------------------------------------
  free  energy   TOTEN  =       -28.06712411 eV

  energy  without entropy=      -28.06712411  energy(sigma->0) =      -28.06712411
 


--------------------------------------------------------------------------------------------------------


    POTLOK:  cpu time   14.0155: real time   14.0394


--------------------------------------------------------------------------------------------------------


 writing wavefunctions
     LOOP+:  cpu time 1338.2696: real time 1340.3663
    4ORBIT:  cpu time    0.0000: real time    0.0000

 total amount of memory used by VASP MPI-rank0  4191804. kBytes
=======================================================================

   base      :      30000. kBytes
   nonl-proj :     418671. kBytes
   fftplans  :     676185. kBytes
   grid      :    3042313. kBytes
   one-center:          7. kBytes
   wavefun   :      24628. kBytes
 
  
  
 General timing and accounting informations for this job:
 ========================================================
  
                  Total CPU time used (sec):     2492.240
                            User time (sec):     2334.995
                          System time (sec):      157.246
                         Elapsed time (sec):     2499.920
  
                   Maximum memory used (kb):     5571920.
                   Average memory used (kb):           0.
  
                          Minor page faults:     76552461
                          Major page faults:          841
                 Voluntary context switches:        31109
