
     Program PWSCF v.7.2 starts on 12Oct2023 at 15: 8:53 

     This program is part of the open-source Quantum ESPRESSO suite
     for quantum simulation of materials; please cite
         "P. Giannozzi et al., J. Phys.:Condens. Matter 21 395502 (2009);
         "P. Giannozzi et al., J. Phys.:Condens. Matter 29 465901 (2017);
         "P. Giannozzi et al., J. Chem. Phys. 152 154105 (2020);
          URL http://www.quantum-espresso.org", 
     in publications or presentations arising from this work. More details at
     http://www.quantum-espresso.org/quote

     Parallel version (MPI), running on    32 processors

     MPI processes distributed on     1 nodes
     249033 MiB available memory on the printing compute node when the environment starts

     Reading input from CH4_H2O_O_H_contact_18_precision_monomer_2.in
Warning: card &CELL ignored
Warning: card / ignored

     Current dimensions of program PWSCF are:
     Max number of different atomic species (ntypx) = 10
     Max number of k-points (npk) =  40000
     Max angular momentum in pseudopotentials (lmaxx) =  4
     file H.pbe-kjpaw_psl.1.0.0.UPF: wavefunction(s)  1S renormalized
     file O.pbe-n-kjpaw_psl.1.0.0.UPF: wavefunction(s)  2S 2P renormalized

     IMPORTANT: XC functional enforced from input :
     Exchange-correlation= PBE
                           (   1   4   3   4   0   0   0)
     Any further DFT definition will be discarded
     Please, verify this is what you really want


     gamma-point specific algorithms are used

     R & G space division:  proc/nbgrp/npool/nimage =      32
     Subspace diagonalization in iterative solution of the eigenvalue problem:
     a serial algorithm will be used


     Parallelization info
     --------------------
     sticks:   dense  smooth     PW     G-vecs:    dense   smooth      PW
     Min        6395    6395   1598              2177048  2177048  272114
     Max        6398    6398   1600              2177062  2177062  272124
     Sum      204693  204693  51189             69665707 69665707 8707803

     Using Slab Decomposition



     bravais-lattice index     =            0
     lattice parameter (alat)  =      66.1404  a.u.
     unit-cell volume          =  289334.8415 (a.u.)^3
     number of atoms/cell      =            3
     number of atomic types    =            2
     number of electrons       =         8.00
     number of Kohn-Sham states=            4
     kinetic-energy cutoff     =     147.0000  Ry
     charge density cutoff     =     588.0000  Ry
     scf convergence threshold =      1.0E-08
     mixing beta               =       0.7000
     number of iterations used =            8  plain     mixing
     Exchange-correlation= PBE
                           (   1   4   3   4   0   0   0)

     celldm(1)=  66.140414  celldm(2)=   0.000000  celldm(3)=   0.000000
     celldm(4)=   0.000000  celldm(5)=   0.000000  celldm(6)=   0.000000

     crystal axes: (cart. coord. in units of alat)
               a(1) = (   1.000000   0.000000   0.000000 )  
               a(2) = (   0.000000   1.000000   0.000000 )  
               a(3) = (   0.000000   0.000000   1.000000 )  

     reciprocal axes: (cart. coord. in units 2 pi/alat)
               b(1) = (  1.000000  0.000000  0.000000 )  
               b(2) = (  0.000000  1.000000  0.000000 )  
               b(3) = (  0.000000  0.000000  1.000000 )  


     PseudoPot. # 1 for H  read from file:
     /home/users/klimj2am/src/pslibrary.1.0.0/pbe/PSEUDOPOTENTIALS/H.pbe-kjpaw_psl.1.0.0.UPF
     MD5 check sum: 220281c0717fd894cece6904c624ceaa
     Pseudo is Projector augmented-wave, Zval =  1.0
     Generated using 'atomic' code by A. Dal Corso  v.7.2
     Shape of augmentation charge: PSQ
     Using radial grid of  929 points,  2 beta functions with: 
                l(1) =   0
                l(2) =   0
     Q(r) pseudized with 0 coefficients 


     PseudoPot. # 2 for O  read from file:
     /home/users/klimj2am/src/pslibrary.1.0.0/pbe/PSEUDOPOTENTIALS/O.pbe-n-kjpaw_psl.1.0.0.UPF
     MD5 check sum: 48e285564fec6dca10ec424bc53b541b
     Pseudo is Projector augmented-wave + core cor, Zval =  6.0
     Generated using 'atomic' code by A. Dal Corso  v.7.2
     Shape of augmentation charge: PSQ
     Using radial grid of 1095 points,  4 beta functions with: 
                l(1) =   0
                l(2) =   0
                l(3) =   1
                l(4) =   1
     Q(r) pseudized with 0 coefficients 


     atomic species   valence    mass     pseudopotential
        H              1.00     1.00800     H ( 1.00)
        O              6.00    15.99900     O ( 1.00)

     No symmetry found



   Cartesian axes

     site n.     atom                  positions (alat units)
         1           H   tau(   1) = (  -0.0111456   0.0674778  -0.0193047  )
         2           H   tau(   2) = (   0.0114500   0.0691171   0.0176206  )
         3           O   tau(   3) = (   0.0000000   0.0514286   0.0000000  )

     number of k points=     1
                       cart. coord. in units 2pi/alat
        k(    1) = (   0.0000000   0.0000000   0.0000000), wk =   2.0000000

     Dense  grid: 34832854 G-vectors     FFT dimensions: ( 512, 512, 512)

     Estimated max dynamical RAM per process >       1.52 GB

     Estimated total dynamical RAM >      48.61 GB

     Initial potential from superposition of free atoms

     starting charge       8.0000, renormalised to       8.0000

     negative rho (up, down):  6.422E-04 0.000E+00
     Starting wfcs are    6 randomized atomic wfcs
     Checking if some PAW data can be deallocated... 

     total cpu time spent up to now is       39.1 secs

     Self-consistent Calculation

     iteration #  1     ecut=   147.00 Ry     beta= 0.70
     Davidson diagonalization with overlap
     ethr =  1.00E-02,  avg # of iterations =  3.0

     negative rho (up, down):  8.529E-04 0.000E+00

     total cpu time spent up to now is       47.9 secs

     total energy              =     -43.78025437 Ry
     estimated scf accuracy    <       0.49677231 Ry

     iteration #  2     ecut=   147.00 Ry     beta= 0.70
     Davidson diagonalization with overlap
     ethr =  6.21E-03,  avg # of iterations =  5.0

     negative rho (up, down):  9.080E-04 0.000E+00

     total cpu time spent up to now is       57.3 secs

     total energy              =     -43.97444111 Ry
     estimated scf accuracy    <       0.17295614 Ry

     iteration #  3     ecut=   147.00 Ry     beta= 0.70
     Davidson diagonalization with overlap
     ethr =  2.16E-03,  avg # of iterations =  3.0

     negative rho (up, down):  1.104E-03 0.000E+00

     total cpu time spent up to now is       65.9 secs

     total energy              =     -43.99875586 Ry
     estimated scf accuracy    <       0.03550156 Ry

     iteration #  4     ecut=   147.00 Ry     beta= 0.70
     Davidson diagonalization with overlap
     ethr =  4.44E-04,  avg # of iterations =  5.0

     negative rho (up, down):  1.209E-03 0.000E+00

     total cpu time spent up to now is       75.1 secs

     total energy              =     -44.03533915 Ry
     estimated scf accuracy    <       0.00592919 Ry

     iteration #  5     ecut=   147.00 Ry     beta= 0.70
     Davidson diagonalization with overlap
     ethr =  7.41E-05,  avg # of iterations =  5.0

     negative rho (up, down):  1.214E-03 0.000E+00

     total cpu time spent up to now is       84.4 secs

     total energy              =     -44.03866077 Ry
     estimated scf accuracy    <       0.00220977 Ry

     iteration #  6     ecut=   147.00 Ry     beta= 0.70
     Davidson diagonalization with overlap
     ethr =  2.76E-05,  avg # of iterations =  3.0

     negative rho (up, down):  1.260E-03 0.000E+00

     total cpu time spent up to now is       93.2 secs

     total energy              =     -44.03922030 Ry
     estimated scf accuracy    <       0.00023114 Ry

     iteration #  7     ecut=   147.00 Ry     beta= 0.70
     Davidson diagonalization with overlap
     ethr =  2.89E-06,  avg # of iterations =  7.0

     negative rho (up, down):  1.254E-03 0.000E+00

     total cpu time spent up to now is      103.5 secs

     total energy              =     -44.03933778 Ry
     estimated scf accuracy    <       0.00128710 Ry

     iteration #  8     ecut=   147.00 Ry     beta= 0.70
     Davidson diagonalization with overlap
     ethr =  2.89E-06,  avg # of iterations =  4.0

     negative rho (up, down):  1.265E-03 0.000E+00

     total cpu time spent up to now is      112.6 secs

     total energy              =     -44.03919614 Ry
     estimated scf accuracy    <       0.00039251 Ry

     iteration #  9     ecut=   147.00 Ry     beta= 0.70
     Davidson diagonalization with overlap
     ethr =  2.89E-06,  avg # of iterations =  6.0

     negative rho (up, down):  1.263E-03 0.000E+00

     total cpu time spent up to now is      122.8 secs

     total energy              =     -44.03943908 Ry
     estimated scf accuracy    <       0.00012313 Ry

     iteration # 10     ecut=   147.00 Ry     beta= 0.70
     Davidson diagonalization with overlap
     ethr =  1.54E-06,  avg # of iterations =  2.0

     negative rho (up, down):  1.258E-03 0.000E+00

     total cpu time spent up to now is      131.2 secs

     total energy              =     -44.03940160 Ry
     estimated scf accuracy    <       0.00008411 Ry

     iteration # 11     ecut=   147.00 Ry     beta= 0.70
     Davidson diagonalization with overlap
     ethr =  1.05E-06,  avg # of iterations =  2.0

     negative rho (up, down):  1.259E-03 0.000E+00

     total cpu time spent up to now is      139.6 secs

     total energy              =     -44.03940432 Ry
     estimated scf accuracy    <       0.00001407 Ry

     iteration # 12     ecut=   147.00 Ry     beta= 0.70
     Davidson diagonalization with overlap
     ethr =  1.76E-07,  avg # of iterations =  6.0

     negative rho (up, down):  1.259E-03 0.000E+00

     total cpu time spent up to now is      149.8 secs

     total energy              =     -44.03942544 Ry
     estimated scf accuracy    <       0.00002196 Ry

     iteration # 13     ecut=   147.00 Ry     beta= 0.70
     Davidson diagonalization with overlap
     ethr =  1.76E-07,  avg # of iterations =  2.0

     negative rho (up, down):  1.259E-03 0.000E+00

     total cpu time spent up to now is      158.1 secs

     total energy              =     -44.03942558 Ry
     estimated scf accuracy    <       0.00000386 Ry

     iteration # 14     ecut=   147.00 Ry     beta= 0.70
     Davidson diagonalization with overlap
     ethr =  4.82E-08,  avg # of iterations =  5.0

     negative rho (up, down):  1.259E-03 0.000E+00

     total cpu time spent up to now is      167.6 secs

     total energy              =     -44.03942989 Ry
     estimated scf accuracy    <       0.00000117 Ry

     iteration # 15     ecut=   147.00 Ry     beta= 0.70
     Davidson diagonalization with overlap
     ethr =  1.47E-08,  avg # of iterations =  3.0

     negative rho (up, down):  1.259E-03 0.000E+00

     total cpu time spent up to now is      176.6 secs

     total energy              =     -44.03942976 Ry
     estimated scf accuracy    <       0.00000099 Ry

     iteration # 16     ecut=   147.00 Ry     beta= 0.70
     Davidson diagonalization with overlap
     ethr =  1.24E-08,  avg # of iterations =  2.0

     negative rho (up, down):  1.259E-03 0.000E+00

     total cpu time spent up to now is      185.0 secs

     total energy              =     -44.03942996 Ry
     estimated scf accuracy    <       0.00000011 Ry

     iteration # 17     ecut=   147.00 Ry     beta= 0.70
     Davidson diagonalization with overlap
     ethr =  1.31E-09,  avg # of iterations =  6.0

     negative rho (up, down):  1.259E-03 0.000E+00

     total cpu time spent up to now is      194.9 secs

     total energy              =     -44.03943006 Ry
     estimated scf accuracy    <       0.00000003 Ry

     iteration # 18     ecut=   147.00 Ry     beta= 0.70
     Davidson diagonalization with overlap
     ethr =  4.31E-10,  avg # of iterations =  2.0

     negative rho (up, down):  1.259E-03 0.000E+00

     total cpu time spent up to now is      203.3 secs

     total energy              =     -44.03943009 Ry
     estimated scf accuracy    <       0.00000002 Ry

     iteration # 19     ecut=   147.00 Ry     beta= 0.70
     Davidson diagonalization with overlap
     ethr =  2.09E-10,  avg # of iterations = 10.0

     negative rho (up, down):  1.259E-03 0.000E+00

     total cpu time spent up to now is      215.8 secs

     total energy              =     -44.03943010 Ry
     estimated scf accuracy    <       0.00000041 Ry

     iteration # 20     ecut=   147.00 Ry     beta= 0.70
     Davidson diagonalization with overlap
     ethr =  2.09E-10,  avg # of iterations =  4.0

     negative rho (up, down):  1.259E-03 0.000E+00

     total cpu time spent up to now is      225.0 secs

     total energy              =     -44.03943002 Ry
     estimated scf accuracy    <       0.00000025 Ry

     iteration # 21     ecut=   147.00 Ry     beta= 0.70
     Davidson diagonalization with overlap
     ethr =  2.09E-10,  avg # of iterations =  7.0

     negative rho (up, down):  1.259E-03 0.000E+00

     total cpu time spent up to now is      234.9 secs

     End of self-consistent calculation

          k = 0.0000 0.0000 0.0000 (****** PWs)   bands (ev):

   -25.4010 -13.1537  -9.3253  -7.2443

     highest occupied level (ev):    -7.2443

!    total energy              =     -44.03943006 Ry
     total all-electron energy =      -152.886312 Ry
     estimated scf accuracy    <          9.8E-09 Ry

     The total energy is the sum of the following terms:
     one-electron contribution =     -76.77729700 Ry
     hartree contribution      =      40.03118108 Ry
     xc contribution           =      -8.87061022 Ry
     ewald contribution        =      11.16380277 Ry
     one-center paw contrib.   =      -9.58650668 Ry

     charge density inside the Wigner-Seitz cell:    8.00000000

     reference position (x0):         0.00251706    3.68043608   -0.01392363 bohr

     Dipole moments (with respect to x0):
     Elect   0.0065   0.7131  -0.0356 au (Ha),   0.0164   1.8124  -0.0904 Debye
     Ionic   0.0000   0.0000   0.0000 au (Ha),   0.0000   0.0000   0.0000 Debye
     Total   0.0065   0.7131  -0.0356 au (Ha),   0.0164   1.8124  -0.0904 Debye

     Electrons quadrupole moment        -20.06650522 a.u. (Ha)
          Ions quadrupole moment          5.97697319 a.u. (Ha)
         Total quadrupole moment        -14.08953202 a.u. (Ha)

     *********    MAKOV-PAYNE CORRECTION    *********

     Makov-Payne correction with Madelung constant =   2.8373

     Makov-Payne correction     0.00000000 Ry =  0.000 eV (1st order, 1/a0)
                                0.00000738 Ry =  0.000 eV (2nd order, 1/a0^3)
                                0.00000738 Ry =  0.000 eV (total)

!    Total+Makov-Payne energy  =     -44.03942268 Ry
     Corrected vacuum level    =       0.00277574 eV

     convergence has been achieved in  21 iterations

     Writing all to output data dir ./pwscf.save/

     init_run     :     36.46s CPU     38.67s WALL (       1 calls)
     electrons    :    171.20s CPU    198.75s WALL (       1 calls)

     Called by init_run:
     wfcinit      :      0.85s CPU      0.98s WALL (       1 calls)
     potinit      :      3.84s CPU      4.62s WALL (       1 calls)
     hinit0       :      5.53s CPU      5.90s WALL (       1 calls)

     Called by electrons:
     c_bands      :     50.91s CPU     53.66s WALL (      21 calls)
     sum_band     :     39.27s CPU     46.28s WALL (      21 calls)
     v_of_rho     :     46.25s CPU     56.43s WALL (      22 calls)
     newd         :     18.01s CPU     24.34s WALL (      22 calls)
     PAW_pot      :      0.26s CPU      0.26s WALL (      22 calls)
     mix_rho      :     16.21s CPU     17.23s WALL (      21 calls)

     Called by c_bands:
     init_us_2    :      0.85s CPU      0.86s WALL (      43 calls)
     init_us_2:cp :      0.85s CPU      0.86s WALL (      43 calls)
     regterg      :     49.99s CPU     52.72s WALL (      21 calls)

     Called by *egterg:
     rdiaghg      :      0.01s CPU      0.02s WALL (     113 calls)
     h_psi        :     44.56s CPU     47.35s WALL (     114 calls)
     s_psi        :      0.77s CPU      0.78s WALL (     114 calls)
     g_psi        :      0.17s CPU      0.17s WALL (      92 calls)

     Called by h_psi:
     h_psi:calbec :      1.18s CPU      1.21s WALL (     114 calls)
     vloc_psi     :     42.30s CPU     45.06s WALL (     114 calls)
     add_vuspsi   :      0.76s CPU      0.76s WALL (     114 calls)

     General routines
     calbec       :      1.34s CPU      1.37s WALL (     135 calls)
     fft          :     38.33s CPU     46.10s WALL (     198 calls)
     ffts         :      3.66s CPU      4.34s WALL (      21 calls)
     fftw         :     37.57s CPU     40.48s WALL (     412 calls)

     Parallel routines

     PWSCF        :   3m29.54s CPU   4m 1.44s WALL


   This run was terminated on:  15:12:54  12Oct2023            

=------------------------------------------------------------------------------=
   JOB DONE.
=------------------------------------------------------------------------------=
