
     Program PWSCF v.7.2 starts on 12Oct2023 at 15:11:41 

     This program is part of the open-source Quantum ESPRESSO suite
     for quantum simulation of materials; please cite
         "P. Giannozzi et al., J. Phys.:Condens. Matter 21 395502 (2009);
         "P. Giannozzi et al., J. Phys.:Condens. Matter 29 465901 (2017);
         "P. Giannozzi et al., J. Chem. Phys. 152 154105 (2020);
          URL http://www.quantum-espresso.org", 
     in publications or presentations arising from this work. More details at
     http://www.quantum-espresso.org/quote

     Parallel version (MPI), running on    32 processors

     MPI processes distributed on     1 nodes
     504417 MiB available memory on the printing compute node when the environment starts

     Reading input from CH4_H2O_O_H_contact_31_precision_monomer_2.in
Warning: card &CELL ignored
Warning: card / ignored

     Current dimensions of program PWSCF are:
     Max number of different atomic species (ntypx) = 10
     Max number of k-points (npk) =  40000
     Max angular momentum in pseudopotentials (lmaxx) =  4
     file H.pbe-kjpaw_psl.1.0.0.UPF: wavefunction(s)  1S renormalized
     file O.pbe-n-kjpaw_psl.1.0.0.UPF: wavefunction(s)  2S 2P renormalized

     IMPORTANT: XC functional enforced from input :
     Exchange-correlation= PBE
                           (   1   4   3   4   0   0   0)
     Any further DFT definition will be discarded
     Please, verify this is what you really want


     gamma-point specific algorithms are used

     R & G space division:  proc/nbgrp/npool/nimage =      32
     Subspace diagonalization in iterative solution of the eigenvalue problem:
     a serial algorithm will be used


     Parallelization info
     --------------------
     sticks:   dense  smooth     PW     G-vecs:    dense   smooth      PW
     Min        6395    6395   1598              2177048  2177048  272114
     Max        6398    6398   1600              2177062  2177062  272124
     Sum      204693  204693  51189             69665707 69665707 8707803

     Using Slab Decomposition



     bravais-lattice index     =            0
     lattice parameter (alat)  =      66.1404  a.u.
     unit-cell volume          =  289334.8415 (a.u.)^3
     number of atoms/cell      =            3
     number of atomic types    =            2
     number of electrons       =         8.00
     number of Kohn-Sham states=            4
     kinetic-energy cutoff     =     147.0000  Ry
     charge density cutoff     =     588.0000  Ry
     scf convergence threshold =      1.0E-08
     mixing beta               =       0.7000
     number of iterations used =            8  plain     mixing
     Exchange-correlation= PBE
                           (   1   4   3   4   0   0   0)

     celldm(1)=  66.140414  celldm(2)=   0.000000  celldm(3)=   0.000000
     celldm(4)=   0.000000  celldm(5)=   0.000000  celldm(6)=   0.000000

     crystal axes: (cart. coord. in units of alat)
               a(1) = (   1.000000   0.000000   0.000000 )  
               a(2) = (   0.000000   1.000000   0.000000 )  
               a(3) = (   0.000000   0.000000   1.000000 )  

     reciprocal axes: (cart. coord. in units 2 pi/alat)
               b(1) = (  1.000000  0.000000  0.000000 )  
               b(2) = (  0.000000  1.000000  0.000000 )  
               b(3) = (  0.000000  0.000000  1.000000 )  


     PseudoPot. # 1 for H  read from file:
     /home/users/klimj2am/src/pslibrary.1.0.0/pbe/PSEUDOPOTENTIALS/H.pbe-kjpaw_psl.1.0.0.UPF
     MD5 check sum: 220281c0717fd894cece6904c624ceaa
     Pseudo is Projector augmented-wave, Zval =  1.0
     Generated using 'atomic' code by A. Dal Corso  v.7.2
     Shape of augmentation charge: PSQ
     Using radial grid of  929 points,  2 beta functions with: 
                l(1) =   0
                l(2) =   0
     Q(r) pseudized with 0 coefficients 


     PseudoPot. # 2 for O  read from file:
     /home/users/klimj2am/src/pslibrary.1.0.0/pbe/PSEUDOPOTENTIALS/O.pbe-n-kjpaw_psl.1.0.0.UPF
     MD5 check sum: 48e285564fec6dca10ec424bc53b541b
     Pseudo is Projector augmented-wave + core cor, Zval =  6.0
     Generated using 'atomic' code by A. Dal Corso  v.7.2
     Shape of augmentation charge: PSQ
     Using radial grid of 1095 points,  4 beta functions with: 
                l(1) =   0
                l(2) =   0
                l(3) =   1
                l(4) =   1
     Q(r) pseudized with 0 coefficients 


     atomic species   valence    mass     pseudopotential
        H              1.00     1.00800     H ( 1.00)
        O              6.00    15.99900     O ( 1.00)

     No symmetry found



   Cartesian axes

     site n.     atom                  positions (alat units)
         1           H   tau(   1) = (  -0.0111456   0.1046207  -0.0193047  )
         2           H   tau(   2) = (   0.0114500   0.1062600   0.0176206  )
         3           O   tau(   3) = (   0.0000000   0.0885714   0.0000000  )

     number of k points=     1
                       cart. coord. in units 2pi/alat
        k(    1) = (   0.0000000   0.0000000   0.0000000), wk =   2.0000000

     Dense  grid: 34832854 G-vectors     FFT dimensions: ( 512, 512, 512)

     Estimated max dynamical RAM per process >       1.52 GB

     Estimated total dynamical RAM >      48.61 GB

     Initial potential from superposition of free atoms

     starting charge       8.0000, renormalised to       8.0000

     negative rho (up, down):  6.422E-04 0.000E+00
     Starting wfcs are    6 randomized atomic wfcs
     Checking if some PAW data can be deallocated... 

     total cpu time spent up to now is       36.0 secs

     Self-consistent Calculation

     iteration #  1     ecut=   147.00 Ry     beta= 0.70
     Davidson diagonalization with overlap
     ethr =  1.00E-02,  avg # of iterations =  3.0

     negative rho (up, down):  8.529E-04 0.000E+00

     total cpu time spent up to now is       44.4 secs

     total energy              =     -43.78025438 Ry
     estimated scf accuracy    <       0.49677229 Ry

     iteration #  2     ecut=   147.00 Ry     beta= 0.70
     Davidson diagonalization with overlap
     ethr =  6.21E-03,  avg # of iterations =  5.0

     negative rho (up, down):  9.079E-04 0.000E+00

     total cpu time spent up to now is       53.3 secs

     total energy              =     -43.97444109 Ry
     estimated scf accuracy    <       0.17295615 Ry

     iteration #  3     ecut=   147.00 Ry     beta= 0.70
     Davidson diagonalization with overlap
     ethr =  2.16E-03,  avg # of iterations =  3.0

     negative rho (up, down):  1.104E-03 0.000E+00

     total cpu time spent up to now is       61.4 secs

     total energy              =     -43.99875587 Ry
     estimated scf accuracy    <       0.03550156 Ry

     iteration #  4     ecut=   147.00 Ry     beta= 0.70
     Davidson diagonalization with overlap
     ethr =  4.44E-04,  avg # of iterations =  5.0

     negative rho (up, down):  1.209E-03 0.000E+00

     total cpu time spent up to now is       70.1 secs

     total energy              =     -44.03533915 Ry
     estimated scf accuracy    <       0.00592918 Ry

     iteration #  5     ecut=   147.00 Ry     beta= 0.70
     Davidson diagonalization with overlap
     ethr =  7.41E-05,  avg # of iterations =  5.0

     negative rho (up, down):  1.214E-03 0.000E+00

     total cpu time spent up to now is       78.9 secs

     total energy              =     -44.03866078 Ry
     estimated scf accuracy    <       0.00220974 Ry

     iteration #  6     ecut=   147.00 Ry     beta= 0.70
     Davidson diagonalization with overlap
     ethr =  2.76E-05,  avg # of iterations =  3.0

     negative rho (up, down):  1.260E-03 0.000E+00

     total cpu time spent up to now is       87.2 secs

     total energy              =     -44.03922029 Ry
     estimated scf accuracy    <       0.00023113 Ry

     iteration #  7     ecut=   147.00 Ry     beta= 0.70
     Davidson diagonalization with overlap
     ethr =  2.89E-06,  avg # of iterations =  7.0

     negative rho (up, down):  1.254E-03 0.000E+00

     total cpu time spent up to now is       97.0 secs

     total energy              =     -44.03933779 Ry
     estimated scf accuracy    <       0.00128711 Ry

     iteration #  8     ecut=   147.00 Ry     beta= 0.70
     Davidson diagonalization with overlap
     ethr =  2.89E-06,  avg # of iterations =  4.0

     negative rho (up, down):  1.265E-03 0.000E+00

     total cpu time spent up to now is      105.7 secs

     total energy              =     -44.03919422 Ry
     estimated scf accuracy    <       0.00039431 Ry

     iteration #  9     ecut=   147.00 Ry     beta= 0.70
     Davidson diagonalization with overlap
     ethr =  2.89E-06,  avg # of iterations =  6.0

     negative rho (up, down):  1.263E-03 0.000E+00

     total cpu time spent up to now is      115.4 secs

     total energy              =     -44.03943912 Ry
     estimated scf accuracy    <       0.00012709 Ry

     iteration # 10     ecut=   147.00 Ry     beta= 0.70
     Davidson diagonalization with overlap
     ethr =  1.59E-06,  avg # of iterations =  2.0

     negative rho (up, down):  1.258E-03 0.000E+00

     total cpu time spent up to now is      123.3 secs

     total energy              =     -44.03940025 Ry
     estimated scf accuracy    <       0.00008654 Ry

     iteration # 11     ecut=   147.00 Ry     beta= 0.70
     Davidson diagonalization with overlap
     ethr =  1.08E-06,  avg # of iterations =  2.0

     negative rho (up, down):  1.259E-03 0.000E+00

     total cpu time spent up to now is      131.1 secs

     total energy              =     -44.03940336 Ry
     estimated scf accuracy    <       0.00001403 Ry

     iteration # 12     ecut=   147.00 Ry     beta= 0.70
     Davidson diagonalization with overlap
     ethr =  1.75E-07,  avg # of iterations =  6.0

     negative rho (up, down):  1.259E-03 0.000E+00

     total cpu time spent up to now is      140.8 secs

     total energy              =     -44.03942501 Ry
     estimated scf accuracy    <       0.00002408 Ry

     iteration # 13     ecut=   147.00 Ry     beta= 0.70
     Davidson diagonalization with overlap
     ethr =  1.75E-07,  avg # of iterations =  2.0

     negative rho (up, down):  1.259E-03 0.000E+00

     total cpu time spent up to now is      148.7 secs

     total energy              =     -44.03942523 Ry
     estimated scf accuracy    <       0.00000426 Ry

     iteration # 14     ecut=   147.00 Ry     beta= 0.70
     Davidson diagonalization with overlap
     ethr =  5.33E-08,  avg # of iterations =  5.0

     negative rho (up, down):  1.259E-03 0.000E+00

     total cpu time spent up to now is      157.7 secs

     total energy              =     -44.03942969 Ry
     estimated scf accuracy    <       0.00000120 Ry

     iteration # 15     ecut=   147.00 Ry     beta= 0.70
     Davidson diagonalization with overlap
     ethr =  1.50E-08,  avg # of iterations =  5.0

     negative rho (up, down):  1.259E-03 0.000E+00

     total cpu time spent up to now is      166.4 secs

     total energy              =     -44.03942977 Ry
     estimated scf accuracy    <       0.00000089 Ry

     iteration # 16     ecut=   147.00 Ry     beta= 0.70
     Davidson diagonalization with overlap
     ethr =  1.11E-08,  avg # of iterations =  4.0

     negative rho (up, down):  1.259E-03 0.000E+00

     total cpu time spent up to now is      174.8 secs

     total energy              =     -44.03942998 Ry
     estimated scf accuracy    <       0.00000008 Ry

     iteration # 17     ecut=   147.00 Ry     beta= 0.70
     Davidson diagonalization with overlap
     ethr =  9.87E-10,  avg # of iterations =  4.0

     negative rho (up, down):  1.259E-03 0.000E+00

     total cpu time spent up to now is      183.3 secs

     total energy              =     -44.03943010 Ry
     estimated scf accuracy    <       0.00000004 Ry

     iteration # 18     ecut=   147.00 Ry     beta= 0.70
     Davidson diagonalization with overlap
     ethr =  4.98E-10,  avg # of iterations =  6.0

     negative rho (up, down):  1.259E-03 0.000E+00

     total cpu time spent up to now is      193.1 secs

     total energy              =     -44.03943016 Ry
     estimated scf accuracy    <       0.00000026 Ry

     iteration # 19     ecut=   147.00 Ry     beta= 0.70
     Davidson diagonalization with overlap
     ethr =  4.98E-10,  avg # of iterations =  2.0

     negative rho (up, down):  1.259E-03 0.000E+00

     total cpu time spent up to now is      201.0 secs

     total energy              =     -44.03943010 Ry
     estimated scf accuracy    <       0.00000032 Ry

     iteration # 20     ecut=   147.00 Ry     beta= 0.70
     Davidson diagonalization with overlap
     ethr =  4.98E-10,  avg # of iterations =  1.0

     negative rho (up, down):  1.259E-03 0.000E+00

     total cpu time spent up to now is      208.7 secs

     total energy              =     -44.03943003 Ry
     estimated scf accuracy    <       0.00000021 Ry

     iteration # 21     ecut=   147.00 Ry     beta= 0.70
     Davidson diagonalization with overlap
     ethr =  4.98E-10,  avg # of iterations =  4.0

     negative rho (up, down):  1.259E-03 0.000E+00

     total cpu time spent up to now is      217.4 secs

     total energy              =     -44.03943004 Ry
     estimated scf accuracy    <       0.00000005 Ry

     iteration # 22     ecut=   147.00 Ry     beta= 0.70
     Davidson diagonalization with overlap
     ethr =  4.98E-10,  avg # of iterations =  4.0

     negative rho (up, down):  1.259E-03 0.000E+00

     total cpu time spent up to now is      225.0 secs

     End of self-consistent calculation

          k = 0.0000 0.0000 0.0000 (****** PWs)   bands (ev):

   -25.4012 -13.1539  -9.3256  -7.2445

     highest occupied level (ev):    -7.2445

!    total energy              =     -44.03943005 Ry
     total all-electron energy =      -152.886312 Ry
     estimated scf accuracy    <          4.6E-09 Ry

     The total energy is the sum of the following terms:
     one-electron contribution =     -76.77738015 Ry
     hartree contribution      =      40.03129093 Ry
     xc contribution           =      -8.87063497 Ry
     ewald contribution        =      11.16380228 Ry
     one-center paw contrib.   =      -9.58650814 Ry

     charge density inside the Wigner-Seitz cell:    8.00000000

     reference position (x0):         0.00251706    6.13708007   -0.01392363 bohr

     Dipole moments (with respect to x0):
     Elect   0.0065   0.7130  -0.0356 au (Ha),   0.0164   1.8123  -0.0904 Debye
     Ionic   0.0000  -0.0000   0.0000 au (Ha),   0.0000  -0.0000   0.0000 Debye
     Total   0.0065   0.7130  -0.0356 au (Ha),   0.0164   1.8123  -0.0904 Debye

     Electrons quadrupole moment        -20.06644934 a.u. (Ha)
          Ions quadrupole moment          5.97697357 a.u. (Ha)
         Total quadrupole moment        -14.08947577 a.u. (Ha)

     *********    MAKOV-PAYNE CORRECTION    *********

     Makov-Payne correction with Madelung constant =   2.8373

     Makov-Payne correction     0.00000000 Ry =  0.000 eV (1st order, 1/a0)
                                0.00000738 Ry =  0.000 eV (2nd order, 1/a0^3)
                                0.00000738 Ry =  0.000 eV (total)

!    Total+Makov-Payne energy  =     -44.03942267 Ry
     Corrected vacuum level    =       0.00277573 eV

     convergence has been achieved in  22 iterations

     Writing all to output data dir ./pwscf.save/

     init_run     :     33.24s CPU     35.60s WALL (       1 calls)
     electrons    :    164.07s CPU    191.67s WALL (       1 calls)

     Called by init_run:
     wfcinit      :      0.82s CPU      0.96s WALL (       1 calls)
     potinit      :      3.50s CPU      4.42s WALL (       1 calls)
     hinit0       :      4.45s CPU      4.76s WALL (       1 calls)

     Called by electrons:
     c_bands      :     45.34s CPU     48.01s WALL (      22 calls)
     sum_band     :     38.76s CPU     45.75s WALL (      22 calls)
     v_of_rho     :     44.88s CPU     55.41s WALL (      23 calls)
     newd         :     17.97s CPU     24.35s WALL (      23 calls)
     PAW_pot      :      0.26s CPU      0.27s WALL (      23 calls)
     mix_rho      :     16.40s CPU     17.25s WALL (      22 calls)

     Called by c_bands:
     init_us_2    :      0.85s CPU      0.88s WALL (      45 calls)
     init_us_2:cp :      0.85s CPU      0.88s WALL (      45 calls)
     regterg      :     44.41s CPU     47.05s WALL (      22 calls)

     Called by *egterg:
     rdiaghg      :      0.01s CPU      0.02s WALL (     110 calls)
     h_psi        :     39.58s CPU     42.25s WALL (     111 calls)
     s_psi        :      0.69s CPU      0.70s WALL (     111 calls)
     g_psi        :      0.15s CPU      0.15s WALL (      88 calls)

     Called by h_psi:
     h_psi:calbec :      0.92s CPU      0.95s WALL (     111 calls)
     vloc_psi     :     37.71s CPU     40.34s WALL (     111 calls)
     add_vuspsi   :      0.68s CPU      0.69s WALL (     111 calls)

     General routines
     calbec       :      1.08s CPU      1.12s WALL (     133 calls)
     fft          :     36.99s CPU     44.69s WALL (     207 calls)
     ffts         :      3.66s CPU      4.22s WALL (      22 calls)
     fftw         :     33.95s CPU     36.76s WALL (     396 calls)

     Parallel routines

     PWSCF        :   3m19.20s CPU   3m51.13s WALL


   This run was terminated on:  15:15:32  12Oct2023            

=------------------------------------------------------------------------------=
   JOB DONE.
=------------------------------------------------------------------------------=
