
 Primary working directories    : /scratch/sirous/43189/molpro.ra1O0gdFIe
 Secondary working directories  : /scratch/sirous/43189/molpro.ra1O0gdFIe
 Wavefunction directory         : /scratch/sirous/43189/
 Main file repository           : /scratch/sirous/43189/molpro.ra1O0gdFIe/

 id        : karlovklimes

 Nodes                      nprocs
 nc-09.cc.karlov.mff.cuni.cz    4

 Using customized tuning parameters: mindgm=1; mindgv=20; mindgc=4; mindgr=1; noblas=0; minvec=7
 default implementation of scratch files=sf  


 Variables initialized (934), CPU time= 0.01 sec
 ***,CH3C6H4CN+CF3CN+BF3
 memory,500,m
 gdirect
 gthresh,energy=1.d-8,twoint=1.d-15,oneint=1.d-15,zero=1.d-15,orbital=1.d-8,grid=1.d-8
 symmetry,nosym
 geomtyp=xyz
                                                                                 ! Geometry
 geometry={
 O1        -0.525329794    -0.050971084     -0.314516861
 H1        -0.942006633    0.747901631     0.011252816
 H2        0.403696525    0.059785981     -0.073568368
 O2        5.099647810617386    0.024718290629172187     0.2834308691242579
 H3        5.467630634617385    -0.5473591123708278     0.960959196124258
 C1        5.564652881617386    -0.4469116253708278     -0.9787282408757422
 H4        5.133835786617386    0.20418206562917218     -1.7318422728757419
 H5        6.6506165686173855    -0.3961187643708278     -1.053040168875742
 H6        5.236310263617385    -1.4667811223708278     -1.1778088748757423
 }
 
 
 
 basis=avtz
 
 
 
                                                                                 ! Dimer Calculation
 {rhf,accu=1.d-8;orbital,2101.2}
 eab_HF=energy
 
 
                                                                                 !monomer A
 dummy,4,5,6,7,8,9;                                                              ! NOW MONOMER B IS DUMMY
 {rhf,accu=1.d-8;orbital,2201.2}
 ea_HF=energy
                                                                                 !monomer B
 dummy,1,2,3;                                                                    !NOW MONOMER A IS DUMMY
 {rhf,accu=1.d-8;orbital,2301.2}
 eb_HF=energy
 
 E_AB_int=eab_HF-ea_HF-eb_HF
 
 
 text,results in hartree
 show,E_AB_int
 
 Commands  initialized (763), CPU time= 0.02 sec, 617 directives.
 Default parameters read. Elapsed time= 0.22 sec

 Checking input...
 Passed
1


                                         ***  PROGRAM SYSTEM MOLPRO  ***
                                       Copyright, TTI GmbH Stuttgart, 2015
                                    Version 2019.2 linked Jun  8 2019 11:26:33


 **********************************************************************************************************************************
 LABEL *   CH3C6H4CN+CF3CN+BF3                                                           
  64 bit mpp version                                                                     DATE: 06-Oct-19          TIME: 18:38:39  
 **********************************************************************************************************************************

 SHA1:             8135a10abc80eafa5b3ae28ffc55be4890dc4c84
 **********************************************************************************************************************************

 THRESHOLDS:

 ZERO    =  1.00D-15  ONEINT  =  1.00D-15  TWOINT  =  1.00D-15  PREFAC  =  1.00D-14  XXXXXX  =  1.00D-09  EORDER  =  1.00D-04
 ENERGY  =  1.00D-08  ETEST   =  0.00D+00  EDENS   =  0.00D+00  THRDEDEF=  1.00D-06  GRADIENT=  1.00D-02  STEP    =  1.00D-03
 ORBITAL =  1.00D-08  CIVEC   =  1.00D-05  COEFF   =  1.00D-04  PRINTCI =  5.00D-02  PUNCHCI =  9.90D+01  OPTGRAD =  3.00D-04
 OPTENERG=  1.00D-06  OPTSTEP =  3.00D-04  THRGRAD =  1.00D-10  COMPRESS=  1.00D-11  VARMIN  =  1.00D-07  VARMAX  =  1.00D-03
 THRDOUB =  0.00D+00  THRDIV  =  1.00D-05  THRRED  =  1.00D-07  THRPSP  =  1.00D+00  THRDC   =  1.00D-10  THRCS   =  1.00D-10
 THRNRM  =  1.00D-08  THREQ   =  0.00D+00  THRDE   =  1.00D+00  THRREF  =  1.00D-05  SPARFAC =  1.00D+00  THRDLP  =  1.00D-07
 THRDIA  =  1.00D-10  THRDLS  =  1.00D-07  THRGPS  =  0.00D+00  THRKEX  =  0.00D+00  THRDIS  =  2.00D-01  THRVAR  =  1.00D-10
 THRLOC  =  1.00D-06  THRGAP  =  1.00D-06  THRLOCT = -1.00D+00  THRGAPT = -1.00D+00  THRORB  =  1.00D-06  THRMLTP =  0.00D+00
 THRCPQCI=  1.00D-10  KEXTA   =  0.00D+00  THRCOARS=  0.00D+00  SYMTOL  =  1.00D-06  GRADTOL =  1.00D-06  THROVL  =  1.00D-08
 THRORTH =  1.00D-08  GRID    =  1.00D-08  GRIDMAX =  1.00D-03  DTMAX   =  0.00D+00  THROCCDE=  1.00D-01  THROCCDE=  1.00D-01
 THRPRINT=  2.50D-01


 Variable memory set to  500000000 words,  buffer space 

 SETTING GEOMTYP        =    XYZ
 ZSYMEL=NOSYM

 SETTING BASIS          =    AVTZ


 Recomputing integrals since basis changed


 Using spherical harmonics

 Library entry O      S aug-cc-pVTZ          selected for orbital group  1
 Library entry O      P aug-cc-pVTZ          selected for orbital group  1
 Library entry O      D aug-cc-pVTZ          selected for orbital group  1
 Library entry O      F aug-cc-pVTZ          selected for orbital group  1
 Library entry H      S aug-cc-pVTZ          selected for orbital group  2
 Library entry H      P aug-cc-pVTZ          selected for orbital group  2
 Library entry H      D aug-cc-pVTZ          selected for orbital group  2
 Library entry C      S aug-cc-pVTZ          selected for orbital group  5
 Library entry C      P aug-cc-pVTZ          selected for orbital group  5
 Library entry C      D aug-cc-pVTZ          selected for orbital group  5
 Library entry C      F aug-cc-pVTZ          selected for orbital group  5


 PROGRAM * SEWARD (Integral evaluation for generally contracted gaussian basis sets)     Author: Roland Lindh, 1990

 Geometry written to block  1 of record 700


 Point group  C1  



 ATOMIC COORDINATES

 NR  ATOM    CHARGE       X              Y              Z

   1  O1      8.00   -0.992729436   -0.096321389   -0.594350729
   2  H1      1.00   -1.780134544    1.413329251    0.021264740
   3  H2      1.00    0.762875870    0.112979130   -0.139024067
   4  O2      8.00    9.636937694    0.046710800    0.535606718
   5  H3      1.00   10.332324450   -1.034358814    1.815949698
   6  C1      6.00   10.515669925   -0.844540574   -1.849528326
   7  H4      1.00    9.701543605    0.385848184   -3.272707587
   8  H5      1.00   12.567843874   -0.748555977   -1.989957517
   9  H6      1.00    9.895192301   -2.771814606   -2.225736201

 Bond lengths in Bohr (Angstrom)

 1-2  1.810534248  1-3  1.825726996  4-5  1.814263596  4-6  2.693579128  6-7  2.049901795
     ( 0.958093464)     ( 0.966133120)     ( 0.960066950)     ( 1.425380690)     ( 1.084761314)

 6-8  2.059211335  6-9  2.059346994
     ( 1.089687711)     ( 1.089759498)

 Bond angles

  2-1-3  103.75741034   4-6-7  106.65459099   4-6-8  111.72059382   4-6-9  111.90879545

  5-4-6  107.61952492   7-6-8  108.69153234   7-6-9  108.37480423   8-6-9  109.35579191

 NUCLEAR CHARGE:                   28
 NUMBER OF PRIMITIVE AOS:         363
 NUMBER OF SYMMETRY AOS:          324
 NUMBER OF CONTRACTIONS:          276   (  276A   )
 NUMBER OF CORE ORBITALS:           3   (    3A   )
 NUMBER OF VALENCE ORBITALS:       18   (   18A   )


 NUCLEAR REPULSION ENERGY   65.65029890


 Eigenvalues of metric

         1 0.576E-04 0.717E-04 0.850E-04 0.186E-03 0.341E-03 0.381E-03 0.408E-03 0.480E-03


 OPERATOR DM      FOR CENTER  0  COORDINATES:    0.000000    0.000000    0.000000


 **********************************************************************************************************************************
 DATASETS  * FILE   NREC   LENGTH (MB)   RECORD NAMES
              1      18       32.92       500      610      700      900      950      970     1000      129      960     1100   
                                          VAR    BASINP    GEOM    SYMINP    ZMAT    AOBASIS   BASIS     P2S    ABASIS      S 
                                         1400     1410     1200     1210     1080     1600     1650     1700   
                                           T        V       H0       H01     AOSYM     SMH    MOLCAS    OPER   

 PROGRAMS   *        TOTAL       INT
 CPU TIMES  *         0.56      0.37
 REAL TIME  *         2.28 SEC
 DISK USED  *        33.40 MB (local),      133.59 MB (total)
 GA USED    *         0.00 MB       (max)       0.00 MB       (current)
 **********************************************************************************************************************************


 PROGRAM * RHF-SCF (CLOSED SHELL)       Authors: W. Meyer, H.-J. Werner


 NUMBER OF ELECTRONS:      14+   14-    SPACE SYMMETRY=1    SPIN SYMMETRY: Singlet 
 CONVERGENCE THRESHOLDS:    1.00E-04 (Density)    1.00E-09 (Energy)
 INTEGRAL THRESHOLDS:       1.00E-11 (Initial)    1.00E-11 (Final)
 MAX. NUMBER OF ITERATIONS:       60
 INTERPOLATION TYPE:            DIIS
 INTERPOLATION STEPS:              2 (START)      1 (STEP)
 LEVEL SHIFTS:                  0.00 (CLOSED)  0.00 (OPEN) 



 Orbital guess generated from atomic densities. Full valence occupancy:   21

 Molecular orbital dump at record        2101.2

 Initial occupancy:  14

 Direct Fock-matrix evaluation.        Authors: Roland Lindh & Martin Schuetz (1993/96)

 Integral Threshold:                  0.1D-10
 Threshold for writing integrals:     0.1D-06
 Prescreening on density matrix:        ON 
 Calculation will be performed fully direct        

 ITERATION   DDIFF            GRAD            ENERGY        2-EL.EN.            DIPOLE MOMENTS         DIIS   CPU(IT)  CPU(TOT)
    1      0.000D+00      0.000D+00      -191.07977213    274.266802    1.11404    0.05853    0.47649    0      8.3     10.9     start
    2      0.000D+00      0.476D-02      -191.13427102    268.209238    0.66832    0.04940    0.23776    1      7.1     18.1     diag
    3      0.515D-02      0.282D-02      -191.15230231    270.992198    0.79323    0.04285    0.25445    2      6.5     24.6     diag
    4      0.173D-02      0.385D-03      -191.15299941    270.736839    0.78996    0.03851    0.25138    3      6.4     31.0     diag
    5      0.336D-03      0.894D-04      -191.15305232    270.763266    0.78948    0.03750    0.24389    4      6.3     37.2     diag
    6      0.854D-04      0.195D-04      -191.15305493    270.758854    0.78950    0.03797    0.24363    5      6.0     43.3     diag
    7      0.224D-04      0.889D-05      -191.15305522    270.759225    0.78964    0.03747    0.24309    6      5.6     48.9     diag
    8      0.686D-05      0.194D-05      -191.15305525    270.759306    0.78959    0.03753    0.24293    7      5.5     54.4     diag
    9      0.274D-05      0.427D-06      -191.15305525    270.759303    0.78958    0.03751    0.24292    0      5.1     59.5     orth

 Final occupancy:  14

 !RHF STATE  1.1 Energy              -191.153055253030
 Nuclear energy                        65.65029890
 One-electron energy                 -392.18300540
 Two-electron energy                  135.37965125
 Virial quotient                       -1.00150871
 !RHF STATE  1.1 Dipole moment          0.78958255     0.03751075     0.24292080
 Dipole moment /Debye                   2.00678721     0.09533658     0.61740265

 Orbital energies:

         1.1          2.1          3.1          4.1          5.1          6.1          7.1          8.1          9.1         10.1
    -20.563442   -20.563096   -11.273619    -1.360231    -1.346771    -0.929965    -0.708819    -0.693986    -0.624391    -0.595868

        11.1         12.1         13.1         14.1         15.1         16.1
     -0.580810    -0.509078    -0.505403    -0.456372     0.025740     0.035624


 HOMO     14.1    -0.456372 =     -12.4185eV
 LUMO     15.1     0.025740 =       0.7004eV
 LUMO-HOMO         0.482112 =      13.1189eV


 **********************************************************************************************************************************
 DATASETS  * FILE   NREC   LENGTH (MB)   RECORD NAMES
              1      18       32.92       500      610      700      900      950      970     1000      129      960     1100   
                                          VAR    BASINP    GEOM    SYMINP    ZMAT    AOBASIS   BASIS     P2S    ABASIS      S 
                                         1400     1410     1200     1210     1080     1600     1650     1700   
                                           T        V       H0       H01     AOSYM     SMH    MOLCAS    OPER   

              2       4        4.45       700     1000      520     2101   
                                         GEOM     BASIS   MCVARS     RHF  

 PROGRAMS   *        TOTAL   RHF-SCF       INT
 CPU TIMES  *        60.09     59.53      0.37
 REAL TIME  *        63.35 SEC
 DISK USED  *        42.34 MB (local),      169.37 MB (total)
 SF USED    *         0.92 MB
 GA USED    *         0.00 MB       (max)       0.00 MB       (current)
 **********************************************************************************************************************************
 SETTING EAB_HF         =      -191.15305525  AU                              

 Dummy atoms: O2  H3  C1  H4  H5  H6


 Recomputing one-electron integrals since nuclear charges changed


 PROGRAM * SEWARD (Integral evaluation for generally contracted gaussian basis sets)     Author: Roland Lindh, 1990

 Geometry written to block  1 of record 700


 Point group  C1  



 ATOMIC COORDINATES

 NR  ATOM    CHARGE       X              Y              Z

   1  O1      8.00   -0.992729436   -0.096321389   -0.594350729
   2  H1      1.00   -1.780134544    1.413329251    0.021264740
   3  H2      1.00    0.762875870    0.112979130   -0.139024067
   4  O2      0.00    9.636937694    0.046710800    0.535606718
   5  H3      0.00   10.332324450   -1.034358814    1.815949698
   6  C1      0.00   10.515669925   -0.844540574   -1.849528326
   7  H4      0.00    9.701543605    0.385848184   -3.272707587
   8  H5      0.00   12.567843874   -0.748555977   -1.989957517
   9  H6      0.00    9.895192301   -2.771814606   -2.225736201

 Bond lengths in Bohr (Angstrom)

 1-2  1.810534248  1-3  1.825726996  4-5  1.814263596  4-6  2.693579128  6-7  2.049901795
     ( 0.958093464)     ( 0.966133120)     ( 0.960066950)     ( 1.425380690)     ( 1.084761314)

 6-8  2.059211335  6-9  2.059346994
     ( 1.089687711)     ( 1.089759498)

 Bond angles

  2-1-3  103.75741034   4-6-7  106.65459099   4-6-8  111.72059382   4-6-9  111.90879545

  5-4-6  107.61952492   7-6-8  108.69153234   7-6-9  108.37480423   8-6-9  109.35579191

 NUCLEAR CHARGE:                   10
 NUMBER OF PRIMITIVE AOS:         363
 NUMBER OF SYMMETRY AOS:          324
 NUMBER OF CONTRACTIONS:          276   (  276A   )
 NUMBER OF CORE ORBITALS:           1   (    1A   )
 NUMBER OF VALENCE ORBITALS:        6   (    6A   )

 MOLECULE CHANGED: INITIALIZING OCCUPATION AND DUMP RECORDS


 NUCLEAR REPULSION ENERGY    9.14996834


 Eigenvalues of metric

         1 0.576E-04 0.717E-04 0.850E-04 0.186E-03 0.341E-03 0.381E-03 0.408E-03 0.480E-03


 OPERATOR DM      FOR CENTER  0  COORDINATES:    0.000000    0.000000    0.000000


 **********************************************************************************************************************************
 DATASETS  * FILE   NREC   LENGTH (MB)   RECORD NAMES
              1      18       32.92       500      610      700      900      950      970     1000      129      960     1100   
                                          VAR    BASINP    GEOM    SYMINP    ZMAT    AOBASIS   BASIS     P2S    ABASIS      S 
                                         1400     1410     1200     1210     1080     1600     1650     1700   
                                           T        V       H0       H01     AOSYM     SMH    MOLCAS    OPER   

              2       4        4.45       700     1000      520     2101   
                                         GEOM     BASIS   MCVARS     RHF  

 PROGRAMS   *        TOTAL       INT   RHF-SCF       INT
 CPU TIMES  *        60.18      0.08     59.53      0.37
 REAL TIME  *        63.56 SEC
 DISK USED  *        42.34 MB (local),      169.37 MB (total)
 SF USED    *         0.92 MB
 GA USED    *         0.00 MB       (max)       0.00 MB       (current)
 **********************************************************************************************************************************


 PROGRAM * RHF-SCF (CLOSED SHELL)       Authors: W. Meyer, H.-J. Werner


 NUMBER OF ELECTRONS:       5+    5-    SPACE SYMMETRY=1    SPIN SYMMETRY: Singlet 
 CONVERGENCE THRESHOLDS:    1.00E-04 (Density)    1.00E-09 (Energy)
 INTEGRAL THRESHOLDS:       1.00E-11 (Initial)    1.00E-11 (Final)
 MAX. NUMBER OF ITERATIONS:       60
 INTERPOLATION TYPE:            DIIS
 INTERPOLATION STEPS:              2 (START)      1 (STEP)
 LEVEL SHIFTS:                  0.00 (CLOSED)  0.00 (OPEN) 



 Orbital guess generated from atomic densities. Full valence occupancy:    7

 Molecular orbital dump at record        2201.2

 Initial occupancy:   5

 Direct Fock-matrix evaluation.        Authors: Roland Lindh & Martin Schuetz (1993/96)

 Integral Threshold:                  0.1D-10
 Threshold for writing integrals:     0.1D-06
 Prescreening on density matrix:        ON 
 Calculation will be performed fully direct        

 ITERATION   DDIFF            GRAD            ENERGY        2-EL.EN.            DIPOLE MOMENTS         DIIS   CPU(IT)  CPU(TOT)
    1      0.000D+00      0.000D+00       -76.02216984     77.581399    0.49672    0.87673    0.54680    0      7.8     10.7     start
    2      0.000D+00      0.584D-02       -76.04899500     74.006360    0.29015    0.51721    0.32201    1      6.4     17.1     diag
    3      0.372D-02      0.366D-02       -76.05996288     75.578209    0.34094    0.60667    0.37783    2      6.2     23.2     diag
    4      0.132D-02      0.340D-03       -76.06014582     75.489308    0.33893    0.60408    0.37611    3      5.8     29.0     diag
    5      0.169D-03      0.921D-04       -76.06016403     75.503137    0.33820    0.60317    0.37549    4      5.7     34.7     diag
    6      0.512D-04      0.174D-04       -76.06016508     75.502385    0.33807    0.60306    0.37541    5      5.3     40.0     diag
    7      0.123D-04      0.336D-05       -76.06016512     75.502501    0.33802    0.60300    0.37537    6      4.9     44.9     diag
    8      0.325D-05      0.629D-06       -76.06016513     75.502439    0.33801    0.60298    0.37536    0      3.8     48.7     orth

 Final occupancy:   5

 !RHF STATE  1.1 Energy               -76.060165125429
 Nuclear energy                         9.14996834
 One-electron energy                 -122.96135282
 Two-electron energy                   37.75121936
 Virial quotient                       -1.00157148
 !RHF STATE  1.1 Dipole moment          0.33800564     0.60298236     0.37535996
 Dipole moment /Debye                   0.85906838     1.53252790     0.95400736

 Orbital energies:

         1.1          2.1          3.1          4.1          5.1          6.1          7.1
    -20.568396    -1.351658    -0.713725    -0.585492    -0.510186     0.018288     0.033021


 HOMO      5.1    -0.510186 =     -13.8829eV
 LUMO      6.1     0.018288 =       0.4976eV
 LUMO-HOMO         0.528474 =      14.3805eV


 **********************************************************************************************************************************
 DATASETS  * FILE   NREC   LENGTH (MB)   RECORD NAMES
              1      18       32.92       500      610      700      900      950      970     1000      129      960     1100   
                                          VAR    BASINP    GEOM    SYMINP    ZMAT    AOBASIS   BASIS     P2S    ABASIS      S 
                                         1400     1410     1200     1210     1080     1600     1650     1700   
                                           T        V       H0       H01     AOSYM     SMH    MOLCAS    OPER   

              2       5       10.01       700     1000      520     2101     2201   
                                         GEOM     BASIS   MCVARS     RHF      RHF  

 PROGRAMS   *        TOTAL   RHF-SCF       INT   RHF-SCF       INT
 CPU TIMES  *       108.96     48.77      0.08     59.53      0.37
 REAL TIME  *       112.55 SEC
 DISK USED  *        47.59 MB (local),      190.36 MB (total)
 SF USED    *         0.92 MB
 GA USED    *         0.00 MB       (max)       0.00 MB       (current)
 **********************************************************************************************************************************
 SETTING EA_HF          =       -76.06016513  AU                              

 Dummy atoms: O1  H1  H2


 Recomputing one-electron integrals since nuclear charges changed


 PROGRAM * SEWARD (Integral evaluation for generally contracted gaussian basis sets)     Author: Roland Lindh, 1990

 Geometry written to block  1 of record 700


 Point group  C1  



 ATOMIC COORDINATES

 NR  ATOM    CHARGE       X              Y              Z

   1  O1      0.00   -0.992729436   -0.096321389   -0.594350729
   2  H1      0.00   -1.780134544    1.413329251    0.021264740
   3  H2      0.00    0.762875870    0.112979130   -0.139024067
   4  O2      8.00    9.636937694    0.046710800    0.535606718
   5  H3      1.00   10.332324450   -1.034358814    1.815949698
   6  C1      6.00   10.515669925   -0.844540574   -1.849528326
   7  H4      1.00    9.701543605    0.385848184   -3.272707587
   8  H5      1.00   12.567843874   -0.748555977   -1.989957517
   9  H6      1.00    9.895192301   -2.771814606   -2.225736201

 Bond lengths in Bohr (Angstrom)

 1-2  1.810534248  1-3  1.825726996  4-5  1.814263596  4-6  2.693579128  6-7  2.049901795
     ( 0.958093464)     ( 0.966133120)     ( 0.960066950)     ( 1.425380690)     ( 1.084761314)

 6-8  2.059211335  6-9  2.059346994
     ( 1.089687711)     ( 1.089759498)

 Bond angles

  2-1-3  103.75741034   4-6-7  106.65459099   4-6-8  111.72059382   4-6-9  111.90879545

  5-4-6  107.61952492   7-6-8  108.69153234   7-6-9  108.37480423   8-6-9  109.35579191

 NUCLEAR CHARGE:                   18
 NUMBER OF PRIMITIVE AOS:         363
 NUMBER OF SYMMETRY AOS:          324
 NUMBER OF CONTRACTIONS:          276   (  276A   )
 NUMBER OF CORE ORBITALS:           2   (    2A   )
 NUMBER OF VALENCE ORBITALS:       12   (   12A   )

 MOLECULE CHANGED: INITIALIZING OCCUPATION AND DUMP RECORDS


 NUCLEAR REPULSION ENERGY   40.29463209


 Eigenvalues of metric

         1 0.576E-04 0.717E-04 0.850E-04 0.186E-03 0.341E-03 0.381E-03 0.408E-03 0.480E-03


 OPERATOR DM      FOR CENTER  0  COORDINATES:    0.000000    0.000000    0.000000


 **********************************************************************************************************************************
 DATASETS  * FILE   NREC   LENGTH (MB)   RECORD NAMES
              1      18       32.92       500      610      700      900      950      970     1000      129      960     1100   
                                          VAR    BASINP    GEOM    SYMINP    ZMAT    AOBASIS   BASIS     P2S    ABASIS      S 
                                         1400     1410     1200     1210     1080     1600     1650     1700   
                                           T        V       H0       H01     AOSYM     SMH    MOLCAS    OPER   

              2       5       10.01       700     1000      520     2101     2201   
                                         GEOM     BASIS   MCVARS     RHF      RHF  

 PROGRAMS   *        TOTAL       INT   RHF-SCF       INT   RHF-SCF       INT
 CPU TIMES  *       109.07      0.11     48.77      0.08     59.53      0.37
 REAL TIME  *       112.76 SEC
 DISK USED  *        47.59 MB (local),      190.36 MB (total)
 SF USED    *         0.92 MB
 GA USED    *         0.00 MB       (max)       0.00 MB       (current)
 **********************************************************************************************************************************


 PROGRAM * RHF-SCF (CLOSED SHELL)       Authors: W. Meyer, H.-J. Werner


 NUMBER OF ELECTRONS:       9+    9-    SPACE SYMMETRY=1    SPIN SYMMETRY: Singlet 
 CONVERGENCE THRESHOLDS:    1.00E-04 (Density)    1.00E-09 (Energy)
 INTEGRAL THRESHOLDS:       1.00E-11 (Initial)    1.00E-11 (Final)
 MAX. NUMBER OF ITERATIONS:       60
 INTERPOLATION TYPE:            DIIS
 INTERPOLATION STEPS:              2 (START)      1 (STEP)
 LEVEL SHIFTS:                  0.00 (CLOSED)  0.00 (OPEN) 



 Orbital guess generated from atomic densities. Full valence occupancy:   14

 Molecular orbital dump at record        2301.2

 Initial occupancy:   9

 Direct Fock-matrix evaluation.        Authors: Roland Lindh & Martin Schuetz (1993/96)

 Integral Threshold:                  0.1D-10
 Threshold for writing integrals:     0.1D-06
 Prescreening on density matrix:        ON 
 Calculation will be performed fully direct        

 ITERATION   DDIFF            GRAD            ENERGY        2-EL.EN.            DIPOLE MOMENTS         DIIS   CPU(IT)  CPU(TOT)
    1      0.000D+00      0.000D+00      -115.05605362    164.332082    0.61726   -0.81820   -0.07031    0      8.0     11.0     start
    2      0.000D+00      0.395D-02      -115.08411669    161.803335    0.35130   -0.46098   -0.07845    1      6.5     17.4     diag
    3      0.357D-02      0.218D-02      -115.09146523    163.040798    0.43375   -0.56609   -0.12195    2      6.2     23.7     diag
    4      0.112D-02      0.427D-03      -115.09199373    162.867427    0.43016   -0.56146   -0.12017    3      6.1     29.8     diag
    5      0.298D-03      0.842D-04      -115.09202636    162.878578    0.42954   -0.55989   -0.12634    4      5.9     35.7     diag
    6      0.666D-04      0.158D-04      -115.09202786    162.876487    0.42993   -0.56032   -0.12702    5      5.7     41.4     diag
    7      0.174D-04      0.329D-05      -115.09202793    162.876160    0.42992   -0.56027   -0.12735    6      5.3     46.8     diag
    8      0.388D-05      0.851D-06      -115.09202793    162.876461    0.42993   -0.56028   -0.12736    0      5.0     51.7     orth

 Final occupancy:   9

 !RHF STATE  1.1 Energy              -115.092027932612
 Nuclear energy                        40.29463209
 One-electron energy                 -236.82489047
 Two-electron energy                   81.43823045
 Virial quotient                       -1.00145720
 !RHF STATE  1.1 Dipole moment          0.42992698    -0.56027565    -0.12736243
 Dipole moment /Debye                   1.09269382    -1.42398539    -0.32370180

 Orbital energies:

         1.1          2.1          3.1          4.1          5.1          6.1          7.1          8.1          9.1         10.1
    -20.559044   -11.270638    -1.356215    -0.926774    -0.690231    -0.621052    -0.592197    -0.505435    -0.452629     0.026585

        11.1
      0.035170


 HOMO      9.1    -0.452629 =     -12.3167eV
 LUMO     10.1     0.026585 =       0.7234eV
 LUMO-HOMO         0.479214 =      13.0401eV


 **********************************************************************************************************************************
 DATASETS  * FILE   NREC   LENGTH (MB)   RECORD NAMES
              1      18       32.92       500      610      700      900      950      970     1000      129      960     1100   
                                          VAR    BASINP    GEOM    SYMINP    ZMAT    AOBASIS   BASIS     P2S    ABASIS      S 
                                         1400     1410     1200     1210     1080     1600     1650     1700   
                                           T        V       H0       H01     AOSYM     SMH    MOLCAS    OPER   

              2       6       15.56       700     1000      520     2101     2201     2301   
                                         GEOM     BASIS   MCVARS     RHF      RHF      RHF  

 PROGRAMS   *        TOTAL   RHF-SCF       INT   RHF-SCF       INT   RHF-SCF       INT
 CPU TIMES  *       160.86     51.79      0.11     48.77      0.08     59.53      0.37
 REAL TIME  *       164.76 SEC
 DISK USED  *        53.14 MB (local),      212.58 MB (total)
 SF USED    *         0.92 MB
 GA USED    *         0.00 MB       (max)       0.00 MB       (current)
 **********************************************************************************************************************************
 SETTING EB_HF          =      -115.09202793  AU                              
 SETTING E_AB_INT       =        -0.00086219  AU                              

 *** results in hartree
 E_AB_INT         =        -0.00086219 AU
 Molecular orbitals read from record     2301.2  Type=RHF/CANONICAL (state 1.1)
 Occupation numbers read from record     2301.2  Type=RHF/RHF (state 1.1)
 Orbital energies read from record       2301.2  Type=RHF/CANONICAL (state 1.1)
 Redundancy group numbers read from rec  2301.2  Type=RHF/RHF (state 1.1)

 RHF/aug-cc-pVTZ energy=   -115.092027932612

         RHF-SCF         RHF-SCF         RHF-SCF
   -115.09202793    -76.06016513   -191.15305525
 **********************************************************************************************************************************
 Molpro calculation terminated
