
     Program PWSCF v.7.2 starts on  9Oct2023 at  9:56:39 

     This program is part of the open-source Quantum ESPRESSO suite
     for quantum simulation of materials; please cite
         "P. Giannozzi et al., J. Phys.:Condens. Matter 21 395502 (2009);
         "P. Giannozzi et al., J. Phys.:Condens. Matter 29 465901 (2017);
         "P. Giannozzi et al., J. Chem. Phys. 152 154105 (2020);
          URL http://www.quantum-espresso.org", 
     in publications or presentations arising from this work. More details at
     http://www.quantum-espresso.org/quote

     Parallel version (MPI), running on    32 processors

     MPI processes distributed on     1 nodes
     502807 MiB available memory on the printing compute node when the environment starts

     Reading input from CH4_H2O_O_H_contact_17_precision_dimer.in
Warning: card &CELL ignored
Warning: card / ignored

     Current dimensions of program PWSCF are:
     Max number of different atomic species (ntypx) = 10
     Max number of k-points (npk) =  40000
     Max angular momentum in pseudopotentials (lmaxx) =  4
     file H.pbe-kjpaw_psl.1.0.0.UPF: wavefunction(s)  1S renormalized
     file C.pbe-n-kjpaw_psl.1.0.0.UPF: wavefunction(s)  2S 2P renormalized
     file O.pbe-n-kjpaw_psl.1.0.0.UPF: wavefunction(s)  2S 2P renormalized

     IMPORTANT: XC functional enforced from input :
     Exchange-correlation= PBE
                           (   1   4   3   4   0   0   0)
     Any further DFT definition will be discarded
     Please, verify this is what you really want


     gamma-point specific algorithms are used

     R & G space division:  proc/nbgrp/npool/nimage =      32
     Subspace diagonalization in iterative solution of the eigenvalue problem:
     a serial algorithm will be used


     Parallelization info
     --------------------
     sticks:   dense  smooth     PW     G-vecs:    dense   smooth      PW
     Min        6395    6395   1598              2177048  2177048  272114
     Max        6398    6398   1600              2177062  2177062  272124
     Sum      204693  204693  51189             69665707 69665707 8707803

     Using Slab Decomposition



     bravais-lattice index     =            0
     lattice parameter (alat)  =      66.1404  a.u.
     unit-cell volume          =  289334.8415 (a.u.)^3
     number of atoms/cell      =            8
     number of atomic types    =            3
     number of electrons       =        16.00
     number of Kohn-Sham states=            8
     kinetic-energy cutoff     =     147.0000  Ry
     charge density cutoff     =     588.0000  Ry
     scf convergence threshold =      1.0E-07
     mixing beta               =       0.7000
     number of iterations used =            8  plain     mixing
     Exchange-correlation= PBE
                           (   1   4   3   4   0   0   0)

     celldm(1)=  66.140414  celldm(2)=   0.000000  celldm(3)=   0.000000
     celldm(4)=   0.000000  celldm(5)=   0.000000  celldm(6)=   0.000000

     crystal axes: (cart. coord. in units of alat)
               a(1) = (   1.000000   0.000000   0.000000 )  
               a(2) = (   0.000000   1.000000   0.000000 )  
               a(3) = (   0.000000   0.000000   1.000000 )  

     reciprocal axes: (cart. coord. in units 2 pi/alat)
               b(1) = (  1.000000  0.000000  0.000000 )  
               b(2) = (  0.000000  1.000000  0.000000 )  
               b(3) = (  0.000000  0.000000  1.000000 )  


     PseudoPot. # 1 for H  read from file:
     /home/users/klimj2am/src/pslibrary.1.0.0/pbe/PSEUDOPOTENTIALS/H.pbe-kjpaw_psl.1.0.0.UPF
     MD5 check sum: 220281c0717fd894cece6904c624ceaa
     Pseudo is Projector augmented-wave, Zval =  1.0
     Generated using 'atomic' code by A. Dal Corso  v.7.2
     Shape of augmentation charge: PSQ
     Using radial grid of  929 points,  2 beta functions with: 
                l(1) =   0
                l(2) =   0
     Q(r) pseudized with 0 coefficients 


     PseudoPot. # 2 for C  read from file:
     /home/users/klimj2am/src/pslibrary.1.0.0/pbe/PSEUDOPOTENTIALS/C.pbe-n-kjpaw_psl.1.0.0.UPF
     MD5 check sum: 9d4797b4e2669f30c50dcc814f8da1dd
     Pseudo is Projector augmented-wave + core cor, Zval =  4.0
     Generated using 'atomic' code by A. Dal Corso  v.7.2
     Shape of augmentation charge: PSQ
     Using radial grid of 1073 points,  4 beta functions with: 
                l(1) =   0
                l(2) =   0
                l(3) =   1
                l(4) =   1
     Q(r) pseudized with 0 coefficients 


     PseudoPot. # 3 for O  read from file:
     /home/users/klimj2am/src/pslibrary.1.0.0/pbe/PSEUDOPOTENTIALS/O.pbe-n-kjpaw_psl.1.0.0.UPF
     MD5 check sum: 48e285564fec6dca10ec424bc53b541b
     Pseudo is Projector augmented-wave + core cor, Zval =  6.0
     Generated using 'atomic' code by A. Dal Corso  v.7.2
     Shape of augmentation charge: PSQ
     Using radial grid of 1095 points,  4 beta functions with: 
                l(1) =   0
                l(2) =   0
                l(3) =   1
                l(4) =   1
     Q(r) pseudized with 0 coefficients 


     atomic species   valence    mass     pseudopotential
        H              1.00     1.00800     H ( 1.00)
        C              4.00    12.01100     C ( 1.00)
        O              6.00    15.99900     O ( 1.00)

     No symmetry found



   Cartesian axes

     site n.     atom                  positions (alat units)
         1           H   tau(   1) = (  -0.0254719  -0.0415954   0.0147062  )
         2           H   tau(   2) = (   0.0254719  -0.0415954   0.0147062  )
         3           H   tau(   3) = (   0.0000000   0.0000000   0.0000000  )
         4           H   tau(   4) = (   0.0000000  -0.0415954  -0.0294124  )
         5           H   tau(   5) = (  -0.0111456   0.0646207  -0.0193047  )
         6           H   tau(   6) = (   0.0114500   0.0662600   0.0176206  )
         7           C   tau(   7) = (   0.0000000  -0.0311966   0.0000000  )
         8           O   tau(   8) = (   0.0000000   0.0485714   0.0000000  )

     number of k points=     1
                       cart. coord. in units 2pi/alat
        k(    1) = (   0.0000000   0.0000000   0.0000000), wk =   2.0000000

     Dense  grid: 34832854 G-vectors     FFT dimensions: ( 512, 512, 512)

     Estimated max dynamical RAM per process >       1.66 GB

     Estimated total dynamical RAM >      53.04 GB

     Initial potential from superposition of free atoms

     starting charge      15.9999, renormalised to      16.0000

     negative rho (up, down):  6.508E-04 0.000E+00
     Starting wfcs are   14 randomized atomic wfcs
     Checking if some PAW data can be deallocated... 

     total cpu time spent up to now is       33.7 secs

     Self-consistent Calculation

     iteration #  1     ecut=   147.00 Ry     beta= 0.70
     Davidson diagonalization with overlap
     ethr =  1.00E-02,  avg # of iterations =  3.0

     negative rho (up, down):  7.582E-04 0.000E+00

     total cpu time spent up to now is       46.8 secs

     total energy              =     -66.76324322 Ry
     estimated scf accuracy    <       1.16674016 Ry

     iteration #  2     ecut=   147.00 Ry     beta= 0.70
     Davidson diagonalization with overlap
     ethr =  7.29E-03,  avg # of iterations =  5.0

     negative rho (up, down):  8.739E-04 0.000E+00

     total cpu time spent up to now is       60.1 secs

     total energy              =     -67.13366250 Ry
     estimated scf accuracy    <       0.29926960 Ry

     iteration #  3     ecut=   147.00 Ry     beta= 0.70
     Davidson diagonalization with overlap
     ethr =  1.87E-03,  avg # of iterations =  4.0

     negative rho (up, down):  9.298E-04 0.000E+00

     total cpu time spent up to now is       73.1 secs

     total energy              =     -67.17567543 Ry
     estimated scf accuracy    <       0.08661665 Ry

     iteration #  4     ecut=   147.00 Ry     beta= 0.70
     Davidson diagonalization with overlap
     ethr =  5.41E-04,  avg # of iterations =  7.0

     negative rho (up, down):  1.139E-03 0.000E+00

     total cpu time spent up to now is       86.4 secs

     total energy              =     -67.21846737 Ry
     estimated scf accuracy    <       0.00863261 Ry

     iteration #  5     ecut=   147.00 Ry     beta= 0.70
     Davidson diagonalization with overlap
     ethr =  5.40E-05,  avg # of iterations =  4.0

     negative rho (up, down):  1.213E-03 0.000E+00

     total cpu time spent up to now is       99.3 secs

     total energy              =     -67.22163256 Ry
     estimated scf accuracy    <       0.00432462 Ry

     iteration #  6     ecut=   147.00 Ry     beta= 0.70
     Davidson diagonalization with overlap
     ethr =  2.70E-05,  avg # of iterations =  2.0

     negative rho (up, down):  1.227E-03 0.000E+00

     total cpu time spent up to now is      111.0 secs

     total energy              =     -67.22108835 Ry
     estimated scf accuracy    <       0.00151416 Ry

     iteration #  7     ecut=   147.00 Ry     beta= 0.70
     Davidson diagonalization with overlap
     ethr =  9.46E-06,  avg # of iterations =  5.0

     negative rho (up, down):  1.228E-03 0.000E+00

     total cpu time spent up to now is      125.2 secs

     total energy              =     -67.22206022 Ry
     estimated scf accuracy    <       0.00051544 Ry

     iteration #  8     ecut=   147.00 Ry     beta= 0.70
     Davidson diagonalization with overlap
     ethr =  3.22E-06,  avg # of iterations =  2.0

     negative rho (up, down):  1.230E-03 0.000E+00

     total cpu time spent up to now is      137.0 secs

     total energy              =     -67.22195025 Ry
     estimated scf accuracy    <       0.00062733 Ry

     iteration #  9     ecut=   147.00 Ry     beta= 0.70
     Davidson diagonalization with overlap
     ethr =  3.22E-06,  avg # of iterations =  1.0

     negative rho (up, down):  1.233E-03 0.000E+00

     total cpu time spent up to now is      148.6 secs

     total energy              =     -67.22178145 Ry
     estimated scf accuracy    <       0.00031196 Ry

     iteration # 10     ecut=   147.00 Ry     beta= 0.70
     Davidson diagonalization with overlap
     ethr =  1.95E-06,  avg # of iterations =  4.0

     negative rho (up, down):  1.236E-03 0.000E+00

     total cpu time spent up to now is      162.6 secs

     total energy              =     -67.22194511 Ry
     estimated scf accuracy    <       0.00010265 Ry

     iteration # 11     ecut=   147.00 Ry     beta= 0.70
     Davidson diagonalization with overlap
     ethr =  6.42E-07,  avg # of iterations =  1.0

     negative rho (up, down):  1.237E-03 0.000E+00

     total cpu time spent up to now is      174.2 secs

     total energy              =     -67.22191224 Ry
     estimated scf accuracy    <       0.00007666 Ry

     iteration # 12     ecut=   147.00 Ry     beta= 0.70
     Davidson diagonalization with overlap
     ethr =  4.79E-07,  avg # of iterations =  2.0

     negative rho (up, down):  1.237E-03 0.000E+00

     total cpu time spent up to now is      186.5 secs

     total energy              =     -67.22191507 Ry
     estimated scf accuracy    <       0.00001628 Ry

     iteration # 13     ecut=   147.00 Ry     beta= 0.70
     Davidson diagonalization with overlap
     ethr =  1.02E-07,  avg # of iterations =  5.0

     negative rho (up, down):  1.237E-03 0.000E+00

     total cpu time spent up to now is      200.4 secs

     total energy              =     -67.22192735 Ry
     estimated scf accuracy    <       0.00000272 Ry

     iteration # 14     ecut=   147.00 Ry     beta= 0.70
     Davidson diagonalization with overlap
     ethr =  1.70E-08,  avg # of iterations =  1.0

     negative rho (up, down):  1.237E-03 0.000E+00

     total cpu time spent up to now is      212.0 secs

     total energy              =     -67.22192668 Ry
     estimated scf accuracy    <       0.00000200 Ry

     iteration # 15     ecut=   147.00 Ry     beta= 0.70
     Davidson diagonalization with overlap
     ethr =  1.25E-08,  avg # of iterations =  2.0

     negative rho (up, down):  1.237E-03 0.000E+00

     total cpu time spent up to now is      223.9 secs

     total energy              =     -67.22192648 Ry
     estimated scf accuracy    <       0.00000058 Ry

     iteration # 16     ecut=   147.00 Ry     beta= 0.70
     Davidson diagonalization with overlap
     ethr =  3.64E-09,  avg # of iterations =  6.0

     negative rho (up, down):  1.237E-03 0.000E+00

     total cpu time spent up to now is      239.0 secs

     total energy              =     -67.22192701 Ry
     estimated scf accuracy    <       0.00000057 Ry

     iteration # 17     ecut=   147.00 Ry     beta= 0.70
     Davidson diagonalization with overlap
     ethr =  3.55E-09,  avg # of iterations =  1.0

     negative rho (up, down):  1.237E-03 0.000E+00

     total cpu time spent up to now is      250.7 secs

     total energy              =     -67.22192690 Ry
     estimated scf accuracy    <       0.00000051 Ry

     iteration # 18     ecut=   147.00 Ry     beta= 0.70
     Davidson diagonalization with overlap
     ethr =  3.16E-09,  avg # of iterations =  1.0

     negative rho (up, down):  1.237E-03 0.000E+00

     total cpu time spent up to now is      262.3 secs

     total energy              =     -67.22192679 Ry
     estimated scf accuracy    <       0.00000032 Ry

     iteration # 19     ecut=   147.00 Ry     beta= 0.70
     Davidson diagonalization with overlap
     ethr =  2.01E-09,  avg # of iterations =  2.0

     negative rho (up, down):  1.237E-03 0.000E+00

     total cpu time spent up to now is      273.3 secs

     End of self-consistent calculation

          k = 0.0000 0.0000 0.0000 (****** PWs)   bands (ev):

   -25.8406 -16.2537 -13.5498 -10.7363  -8.6968  -8.6946  -7.6735  -7.5338

     highest occupied level (ev):    -7.5338

!    total energy              =     -67.22192675 Ry
     total all-electron energy =      -233.832888 Ry
     estimated scf accuracy    <       0.00000008 Ry

     The total energy is the sum of the following terms:
     one-electron contribution =    -166.56373204 Ry
     hartree contribution      =      85.97984668 Ry
     xc contribution           =     -16.41602774 Ry
     ewald contribution        =      45.53071745 Ry
     one-center paw contrib.   =     -15.75273111 Ry

     charge density inside the Wigner-Seitz cell:   16.00000000

     reference position (x0):         0.00125853    0.71405502   -0.00696181 bohr

     Dipole moments (with respect to x0):
     Elect   0.0082   1.0420  -0.0325 au (Ha),   0.0207   2.6486  -0.0827 Debye
     Ionic  -0.0000   0.0000   0.0000 au (Ha),  -0.0000   0.0000   0.0000 Debye
     Total   0.0082   1.0420  -0.0325 au (Ha),   0.0207   2.6486  -0.0827 Debye

     Electrons quadrupole moment       -176.46304979 a.u. (Ha)
          Ions quadrupole moment        146.43145101 a.u. (Ha)
         Total quadrupole moment        -30.03159877 a.u. (Ha)

     *********    MAKOV-PAYNE CORRECTION    *********

     Makov-Payne correction with Madelung constant =   2.8373

     Makov-Payne correction     0.00000000 Ry =  0.000 eV (1st order, 1/a0)
                                0.00001574 Ry =  0.000 eV (2nd order, 1/a0^3)
                                0.00001574 Ry =  0.000 eV (total)

!    Total+Makov-Payne energy  =     -67.22191101 Ry
     Corrected vacuum level    =       0.00591554 eV

     convergence has been achieved in  19 iterations

     Writing all to output data dir ./pwscf.save/

     init_run     :     29.92s CPU     33.10s WALL (       1 calls)
     electrons    :    196.84s CPU    242.14s WALL (       1 calls)

     Called by init_run:
     wfcinit      :      1.68s CPU      2.05s WALL (       1 calls)
     potinit      :      3.84s CPU      4.94s WALL (       1 calls)
     hinit0       :      2.03s CPU      2.42s WALL (       1 calls)

     Called by electrons:
     c_bands      :     58.29s CPU     61.74s WALL (      19 calls)
     sum_band     :     58.85s CPU     74.13s WALL (      19 calls)
     v_of_rho     :     38.53s CPU     50.52s WALL (      20 calls)
     newd         :     26.44s CPU     40.72s WALL (      20 calls)
     PAW_pot      :      0.21s CPU      0.24s WALL (      20 calls)
     mix_rho      :     14.73s CPU     15.59s WALL (      19 calls)

     Called by c_bands:
     init_us_2    :      1.01s CPU      1.08s WALL (      39 calls)
     init_us_2:cp :      1.01s CPU      1.08s WALL (      39 calls)
     regterg      :     57.00s CPU     60.41s WALL (      19 calls)

     Called by *egterg:
     rdiaghg      :      0.01s CPU      0.02s WALL (      77 calls)
     h_psi        :     50.58s CPU     54.20s WALL (      78 calls)
     s_psi        :      1.36s CPU      1.37s WALL (      78 calls)
     g_psi        :      0.16s CPU      0.16s WALL (      58 calls)

     Called by h_psi:
     h_psi:calbec :      1.39s CPU      1.44s WALL (      78 calls)
     vloc_psi     :     47.47s CPU     51.01s WALL (      78 calls)
     add_vuspsi   :      1.34s CPU      1.36s WALL (      78 calls)

     General routines
     calbec       :      1.69s CPU      1.74s WALL (      97 calls)
     fft          :     31.59s CPU     38.99s WALL (     180 calls)
     ffts         :      2.98s CPU      3.44s WALL (      19 calls)
     fftw         :     42.51s CPU     46.47s WALL (     540 calls)

     Parallel routines

     PWSCF        :   3m48.60s CPU   4m39.35s WALL


   This run was terminated on:  10: 1:18   9Oct2023            

=------------------------------------------------------------------------------=
   JOB DONE.
=------------------------------------------------------------------------------=
