
     Program PWSCF v.7.2 starts on  9Oct2023 at  9:56:39 

     This program is part of the open-source Quantum ESPRESSO suite
     for quantum simulation of materials; please cite
         "P. Giannozzi et al., J. Phys.:Condens. Matter 21 395502 (2009);
         "P. Giannozzi et al., J. Phys.:Condens. Matter 29 465901 (2017);
         "P. Giannozzi et al., J. Chem. Phys. 152 154105 (2020);
          URL http://www.quantum-espresso.org", 
     in publications or presentations arising from this work. More details at
     http://www.quantum-espresso.org/quote

     Parallel version (MPI), running on    32 processors

     MPI processes distributed on     1 nodes
     490286 MiB available memory on the printing compute node when the environment starts

     Reading input from CH4_H2O_O_H_contact_18_precision_dimer.in
Warning: card &CELL ignored
Warning: card / ignored

     Current dimensions of program PWSCF are:
     Max number of different atomic species (ntypx) = 10
     Max number of k-points (npk) =  40000
     Max angular momentum in pseudopotentials (lmaxx) =  4
     file H.pbe-kjpaw_psl.1.0.0.UPF: wavefunction(s)  1S renormalized
     file C.pbe-n-kjpaw_psl.1.0.0.UPF: wavefunction(s)  2S 2P renormalized
     file O.pbe-n-kjpaw_psl.1.0.0.UPF: wavefunction(s)  2S 2P renormalized

     IMPORTANT: XC functional enforced from input :
     Exchange-correlation= PBE
                           (   1   4   3   4   0   0   0)
     Any further DFT definition will be discarded
     Please, verify this is what you really want


     gamma-point specific algorithms are used

     R & G space division:  proc/nbgrp/npool/nimage =      32
     Subspace diagonalization in iterative solution of the eigenvalue problem:
     a serial algorithm will be used


     Parallelization info
     --------------------
     sticks:   dense  smooth     PW     G-vecs:    dense   smooth      PW
     Min        6395    6395   1598              2177048  2177048  272114
     Max        6398    6398   1600              2177062  2177062  272124
     Sum      204693  204693  51189             69665707 69665707 8707803

     Using Slab Decomposition



     bravais-lattice index     =            0
     lattice parameter (alat)  =      66.1404  a.u.
     unit-cell volume          =  289334.8415 (a.u.)^3
     number of atoms/cell      =            8
     number of atomic types    =            3
     number of electrons       =        16.00
     number of Kohn-Sham states=            8
     kinetic-energy cutoff     =     147.0000  Ry
     charge density cutoff     =     588.0000  Ry
     scf convergence threshold =      1.0E-07
     mixing beta               =       0.7000
     number of iterations used =            8  plain     mixing
     Exchange-correlation= PBE
                           (   1   4   3   4   0   0   0)

     celldm(1)=  66.140414  celldm(2)=   0.000000  celldm(3)=   0.000000
     celldm(4)=   0.000000  celldm(5)=   0.000000  celldm(6)=   0.000000

     crystal axes: (cart. coord. in units of alat)
               a(1) = (   1.000000   0.000000   0.000000 )  
               a(2) = (   0.000000   1.000000   0.000000 )  
               a(3) = (   0.000000   0.000000   1.000000 )  

     reciprocal axes: (cart. coord. in units 2 pi/alat)
               b(1) = (  1.000000  0.000000  0.000000 )  
               b(2) = (  0.000000  1.000000  0.000000 )  
               b(3) = (  0.000000  0.000000  1.000000 )  


     PseudoPot. # 1 for H  read from file:
     /home/users/klimj2am/src/pslibrary.1.0.0/pbe/PSEUDOPOTENTIALS/H.pbe-kjpaw_psl.1.0.0.UPF
     MD5 check sum: 220281c0717fd894cece6904c624ceaa
     Pseudo is Projector augmented-wave, Zval =  1.0
     Generated using 'atomic' code by A. Dal Corso  v.7.2
     Shape of augmentation charge: PSQ
     Using radial grid of  929 points,  2 beta functions with: 
                l(1) =   0
                l(2) =   0
     Q(r) pseudized with 0 coefficients 


     PseudoPot. # 2 for C  read from file:
     /home/users/klimj2am/src/pslibrary.1.0.0/pbe/PSEUDOPOTENTIALS/C.pbe-n-kjpaw_psl.1.0.0.UPF
     MD5 check sum: 9d4797b4e2669f30c50dcc814f8da1dd
     Pseudo is Projector augmented-wave + core cor, Zval =  4.0
     Generated using 'atomic' code by A. Dal Corso  v.7.2
     Shape of augmentation charge: PSQ
     Using radial grid of 1073 points,  4 beta functions with: 
                l(1) =   0
                l(2) =   0
                l(3) =   1
                l(4) =   1
     Q(r) pseudized with 0 coefficients 


     PseudoPot. # 3 for O  read from file:
     /home/users/klimj2am/src/pslibrary.1.0.0/pbe/PSEUDOPOTENTIALS/O.pbe-n-kjpaw_psl.1.0.0.UPF
     MD5 check sum: 48e285564fec6dca10ec424bc53b541b
     Pseudo is Projector augmented-wave + core cor, Zval =  6.0
     Generated using 'atomic' code by A. Dal Corso  v.7.2
     Shape of augmentation charge: PSQ
     Using radial grid of 1095 points,  4 beta functions with: 
                l(1) =   0
                l(2) =   0
                l(3) =   1
                l(4) =   1
     Q(r) pseudized with 0 coefficients 


     atomic species   valence    mass     pseudopotential
        H              1.00     1.00800     H ( 1.00)
        C              4.00    12.01100     C ( 1.00)
        O              6.00    15.99900     O ( 1.00)

     No symmetry found



   Cartesian axes

     site n.     atom                  positions (alat units)
         1           H   tau(   1) = (  -0.0254719  -0.0415954   0.0147062  )
         2           H   tau(   2) = (   0.0254719  -0.0415954   0.0147062  )
         3           H   tau(   3) = (   0.0000000   0.0000000   0.0000000  )
         4           H   tau(   4) = (   0.0000000  -0.0415954  -0.0294124  )
         5           H   tau(   5) = (  -0.0111456   0.0674778  -0.0193047  )
         6           H   tau(   6) = (   0.0114500   0.0691171   0.0176206  )
         7           C   tau(   7) = (   0.0000000  -0.0311966   0.0000000  )
         8           O   tau(   8) = (   0.0000000   0.0514286   0.0000000  )

     number of k points=     1
                       cart. coord. in units 2pi/alat
        k(    1) = (   0.0000000   0.0000000   0.0000000), wk =   2.0000000

     Dense  grid: 34832854 G-vectors     FFT dimensions: ( 512, 512, 512)

     Estimated max dynamical RAM per process >       1.66 GB

     Estimated total dynamical RAM >      53.04 GB

     Initial potential from superposition of free atoms

     starting charge      15.9999, renormalised to      16.0000

     negative rho (up, down):  6.484E-04 0.000E+00
     Starting wfcs are   14 randomized atomic wfcs
     Checking if some PAW data can be deallocated... 

     total cpu time spent up to now is       33.8 secs

     Self-consistent Calculation

     iteration #  1     ecut=   147.00 Ry     beta= 0.70
     Davidson diagonalization with overlap
     ethr =  1.00E-02,  avg # of iterations =  3.0

     negative rho (up, down):  7.509E-04 0.000E+00

     total cpu time spent up to now is       46.8 secs

     total energy              =     -66.77271319 Ry
     estimated scf accuracy    <       1.16109843 Ry

     iteration #  2     ecut=   147.00 Ry     beta= 0.70
     Davidson diagonalization with overlap
     ethr =  7.26E-03,  avg # of iterations =  5.0

     negative rho (up, down):  8.643E-04 0.000E+00

     total cpu time spent up to now is       60.2 secs

     total energy              =     -67.13697498 Ry
     estimated scf accuracy    <       0.30971897 Ry

     iteration #  3     ecut=   147.00 Ry     beta= 0.70
     Davidson diagonalization with overlap
     ethr =  1.94E-03,  avg # of iterations =  4.0

     negative rho (up, down):  9.303E-04 0.000E+00

     total cpu time spent up to now is       73.2 secs

     total energy              =     -67.18490095 Ry
     estimated scf accuracy    <       0.07720441 Ry

     iteration #  4     ecut=   147.00 Ry     beta= 0.70
     Davidson diagonalization with overlap
     ethr =  4.83E-04,  avg # of iterations =  5.0

     negative rho (up, down):  1.143E-03 0.000E+00

     total cpu time spent up to now is       86.3 secs

     total energy              =     -67.22648547 Ry
     estimated scf accuracy    <       0.00771891 Ry

     iteration #  5     ecut=   147.00 Ry     beta= 0.70
     Davidson diagonalization with overlap
     ethr =  4.82E-05,  avg # of iterations =  6.0

     negative rho (up, down):  1.208E-03 0.000E+00

     total cpu time spent up to now is      100.5 secs

     total energy              =     -67.22921701 Ry
     estimated scf accuracy    <       0.00745120 Ry

     iteration #  6     ecut=   147.00 Ry     beta= 0.70
     Davidson diagonalization with overlap
     ethr =  4.66E-05,  avg # of iterations =  1.0

     negative rho (up, down):  1.230E-03 0.000E+00

     total cpu time spent up to now is      111.9 secs

     total energy              =     -67.22832249 Ry
     estimated scf accuracy    <       0.00218243 Ry

     iteration #  7     ecut=   147.00 Ry     beta= 0.70
     Davidson diagonalization with overlap
     ethr =  1.36E-05,  avg # of iterations =  5.0

     negative rho (up, down):  1.229E-03 0.000E+00

     total cpu time spent up to now is      126.1 secs

     total energy              =     -67.23041362 Ry
     estimated scf accuracy    <       0.00145144 Ry

     iteration #  8     ecut=   147.00 Ry     beta= 0.70
     Davidson diagonalization with overlap
     ethr =  9.07E-06,  avg # of iterations =  2.0

     negative rho (up, down):  1.233E-03 0.000E+00

     total cpu time spent up to now is      138.0 secs

     total energy              =     -67.23024945 Ry
     estimated scf accuracy    <       0.00153341 Ry

     iteration #  9     ecut=   147.00 Ry     beta= 0.70
     Davidson diagonalization with overlap
     ethr =  9.07E-06,  avg # of iterations =  1.0

     negative rho (up, down):  1.229E-03 0.000E+00

     total cpu time spent up to now is      149.6 secs

     total energy              =     -67.22967008 Ry
     estimated scf accuracy    <       0.00117156 Ry

     iteration # 10     ecut=   147.00 Ry     beta= 0.70
     Davidson diagonalization with overlap
     ethr =  7.32E-06,  avg # of iterations =  4.0

     negative rho (up, down):  1.229E-03 0.000E+00

     total cpu time spent up to now is      162.2 secs

     total energy              =     -67.22985585 Ry
     estimated scf accuracy    <       0.00005409 Ry

     iteration # 11     ecut=   147.00 Ry     beta= 0.70
     Davidson diagonalization with overlap
     ethr =  3.38E-07,  avg # of iterations =  7.0

     negative rho (up, down):  1.230E-03 0.000E+00

     total cpu time spent up to now is      177.8 secs

     total energy              =     -67.22997638 Ry
     estimated scf accuracy    <       0.00034071 Ry

     iteration # 12     ecut=   147.00 Ry     beta= 0.70
     Davidson diagonalization with overlap
     ethr =  3.38E-07,  avg # of iterations =  2.0

     negative rho (up, down):  1.231E-03 0.000E+00

     total cpu time spent up to now is      190.1 secs

     total energy              =     -67.22996381 Ry
     estimated scf accuracy    <       0.00017587 Ry

     iteration # 13     ecut=   147.00 Ry     beta= 0.70
     Davidson diagonalization with overlap
     ethr =  3.38E-07,  avg # of iterations =  4.0

     negative rho (up, down):  1.229E-03 0.000E+00

     total cpu time spent up to now is      202.9 secs

     total energy              =     -67.22999904 Ry
     estimated scf accuracy    <       0.00008676 Ry

     iteration # 14     ecut=   147.00 Ry     beta= 0.70
     Davidson diagonalization with overlap
     ethr =  3.38E-07,  avg # of iterations =  2.0

     negative rho (up, down):  1.229E-03 0.000E+00

     total cpu time spent up to now is      214.9 secs

     total energy              =     -67.23001227 Ry
     estimated scf accuracy    <       0.00012265 Ry

     iteration # 15     ecut=   147.00 Ry     beta= 0.70
     Davidson diagonalization with overlap
     ethr =  3.38E-07,  avg # of iterations =  2.0

     negative rho (up, down):  1.231E-03 0.000E+00

     total cpu time spent up to now is      226.9 secs

     total energy              =     -67.22998099 Ry
     estimated scf accuracy    <       0.00015270 Ry

     iteration # 16     ecut=   147.00 Ry     beta= 0.70
     Davidson diagonalization with overlap
     ethr =  3.38E-07,  avg # of iterations =  1.0

     negative rho (up, down):  1.233E-03 0.000E+00

     total cpu time spent up to now is      238.6 secs

     total energy              =     -67.22995980 Ry
     estimated scf accuracy    <       0.00008442 Ry

     iteration # 17     ecut=   147.00 Ry     beta= 0.70
     Davidson diagonalization with overlap
     ethr =  3.38E-07,  avg # of iterations =  4.0

     negative rho (up, down):  1.234E-03 0.000E+00

     total cpu time spent up to now is      251.7 secs

     total energy              =     -67.22997062 Ry
     estimated scf accuracy    <       0.00001748 Ry

     iteration # 18     ecut=   147.00 Ry     beta= 0.70
     Davidson diagonalization with overlap
     ethr =  1.09E-07,  avg # of iterations =  5.0

     negative rho (up, down):  1.236E-03 0.000E+00

     total cpu time spent up to now is      265.0 secs

     total energy              =     -67.22998190 Ry
     estimated scf accuracy    <       0.00000835 Ry

     iteration # 19     ecut=   147.00 Ry     beta= 0.70
     Davidson diagonalization with overlap
     ethr =  5.22E-08,  avg # of iterations =  6.0

     negative rho (up, down):  1.236E-03 0.000E+00

     total cpu time spent up to now is      280.0 secs

     total energy              =     -67.22999297 Ry
     estimated scf accuracy    <       0.00006549 Ry

     iteration # 20     ecut=   147.00 Ry     beta= 0.70
     Davidson diagonalization with overlap
     ethr =  5.22E-08,  avg # of iterations =  1.0

     negative rho (up, down):  1.235E-03 0.000E+00

     total cpu time spent up to now is      291.6 secs

     total energy              =     -67.22998122 Ry
     estimated scf accuracy    <       0.00006851 Ry

     iteration # 21     ecut=   147.00 Ry     beta= 0.70
     Davidson diagonalization with overlap
     ethr =  5.22E-08,  avg # of iterations =  2.0

     negative rho (up, down):  1.232E-03 0.000E+00

     total cpu time spent up to now is      303.7 secs

     total energy              =     -67.22995538 Ry
     estimated scf accuracy    <       0.00004856 Ry

     iteration # 22     ecut=   147.00 Ry     beta= 0.70
     Davidson diagonalization with overlap
     ethr =  5.22E-08,  avg # of iterations =  8.0

     negative rho (up, down):  1.233E-03 0.000E+00

     total cpu time spent up to now is      320.0 secs

     total energy              =     -67.22997184 Ry
     estimated scf accuracy    <       0.00000784 Ry

     iteration # 23     ecut=   147.00 Ry     beta= 0.70
     Davidson diagonalization with overlap
     ethr =  4.90E-08,  avg # of iterations =  2.0

     negative rho (up, down):  1.234E-03 0.000E+00

     total cpu time spent up to now is      332.0 secs

     total energy              =     -67.22997159 Ry
     estimated scf accuracy    <       0.00000173 Ry

     iteration # 24     ecut=   147.00 Ry     beta= 0.70
     Davidson diagonalization with overlap
     ethr =  1.08E-08,  avg # of iterations =  4.0

     negative rho (up, down):  1.234E-03 0.000E+00

     total cpu time spent up to now is      345.6 secs

     total energy              =     -67.22997342 Ry
     estimated scf accuracy    <       0.00000101 Ry

     iteration # 25     ecut=   147.00 Ry     beta= 0.70
     Davidson diagonalization with overlap
     ethr =  6.29E-09,  avg # of iterations =  1.0

     negative rho (up, down):  1.234E-03 0.000E+00

     total cpu time spent up to now is      357.3 secs

     total energy              =     -67.22997321 Ry
     estimated scf accuracy    <       0.00000074 Ry

     iteration # 26     ecut=   147.00 Ry     beta= 0.70
     Davidson diagonalization with overlap
     ethr =  4.63E-09,  avg # of iterations =  2.0

     negative rho (up, down):  1.234E-03 0.000E+00

     total cpu time spent up to now is      369.3 secs

     total energy              =     -67.22997326 Ry
     estimated scf accuracy    <       0.00000028 Ry

     iteration # 27     ecut=   147.00 Ry     beta= 0.70
     Davidson diagonalization with overlap
     ethr =  1.76E-09,  avg # of iterations =  1.0

     negative rho (up, down):  1.234E-03 0.000E+00

     total cpu time spent up to now is      380.9 secs

     total energy              =     -67.22997326 Ry
     estimated scf accuracy    <       0.00000029 Ry

     iteration # 28     ecut=   147.00 Ry     beta= 0.70
     Davidson diagonalization with overlap
     ethr =  1.76E-09,  avg # of iterations =  2.0

     negative rho (up, down):  1.234E-03 0.000E+00

     total cpu time spent up to now is      392.9 secs

     total energy              =     -67.22997323 Ry
     estimated scf accuracy    <       0.00000021 Ry

     iteration # 29     ecut=   147.00 Ry     beta= 0.70
     Davidson diagonalization with overlap
     ethr =  1.33E-09,  avg # of iterations =  2.0

     negative rho (up, down):  1.233E-03 0.000E+00

     total cpu time spent up to now is      403.9 secs

     End of self-consistent calculation

          k = 0.0000 0.0000 0.0000 (****** PWs)   bands (ev):

   -25.7562 -16.3113 -13.4777 -10.4864  -8.7614  -8.7561  -7.7957  -7.5860

     highest occupied level (ev):    -7.5860

!    total energy              =     -67.22997318 Ry
     total all-electron energy =      -233.840935 Ry
     estimated scf accuracy    <       0.00000009 Ry

     The total energy is the sum of the following terms:
     one-electron contribution =    -164.95443393 Ry
     hartree contribution      =      85.16742622 Ry
     xc contribution           =     -16.40333265 Ry
     ewald contribution        =      44.71253579 Ry
     one-center paw contrib.   =     -15.75216862 Ry

     charge density inside the Wigner-Seitz cell:   16.00000000

     reference position (x0):         0.00125853    0.80854133   -0.00696181 bohr

     Dipole moments (with respect to x0):
     Elect   0.0079   0.9971  -0.0328 au (Ha),   0.0200   2.5343  -0.0833 Debye
     Ionic  -0.0000   0.0000   0.0000 au (Ha),  -0.0000   0.0000   0.0000 Debye
     Total   0.0079   0.9971  -0.0328 au (Ha),   0.0200   2.5343  -0.0833 Debye

     Electrons quadrupole moment       -184.73933090 a.u. (Ha)
          Ions quadrupole moment        154.97195981 a.u. (Ha)
         Total quadrupole moment        -29.76737109 a.u. (Ha)

     *********    MAKOV-PAYNE CORRECTION    *********

     Makov-Payne correction with Madelung constant =   2.8373

     Makov-Payne correction     0.00000000 Ry =  0.000 eV (1st order, 1/a0)
                                0.00001441 Ry =  0.000 eV (2nd order, 1/a0^3)
                                0.00001441 Ry =  0.000 eV (total)

!    Total+Makov-Payne energy  =     -67.22995877 Ry
     Corrected vacuum level    =       0.00586426 eV

     convergence has been achieved in  29 iterations

     Writing all to output data dir ./pwscf.save/

     init_run     :     29.83s CPU     33.17s WALL (       1 calls)
     electrons    :    305.17s CPU    372.70s WALL (       1 calls)

     Called by init_run:
     wfcinit      :      1.74s CPU      2.04s WALL (       1 calls)
     potinit      :      3.79s CPU      5.00s WALL (       1 calls)
     hinit0       :      2.01s CPU      2.42s WALL (       1 calls)

     Called by electrons:
     c_bands      :     90.35s CPU     95.69s WALL (      29 calls)
     sum_band     :     91.45s CPU    113.69s WALL (      29 calls)
     v_of_rho     :     57.90s CPU     75.72s WALL (      30 calls)
     newd         :     39.71s CPU     61.24s WALL (      30 calls)
     PAW_pot      :      0.35s CPU      0.35s WALL (      30 calls)
     mix_rho      :     24.81s CPU     25.96s WALL (      29 calls)

     Called by c_bands:
     init_us_2    :      1.50s CPU      1.56s WALL (      59 calls)
     init_us_2:cp :      1.50s CPU      1.56s WALL (      59 calls)
     regterg      :     88.32s CPU     93.61s WALL (      29 calls)

     Called by *egterg:
     rdiaghg      :      0.02s CPU      0.03s WALL (     123 calls)
     h_psi        :     77.58s CPU     82.96s WALL (     124 calls)
     s_psi        :      2.03s CPU      2.05s WALL (     124 calls)
     g_psi        :      0.26s CPU      0.26s WALL (      94 calls)

     Called by h_psi:
     h_psi:calbec :      2.00s CPU      2.04s WALL (     124 calls)
     vloc_psi     :     73.01s CPU     78.32s WALL (     124 calls)
     add_vuspsi   :      2.00s CPU      2.02s WALL (     124 calls)

     General routines
     calbec       :      2.45s CPU      2.51s WALL (     153 calls)
     fft          :     49.84s CPU     60.81s WALL (     270 calls)
     ffts         :      4.56s CPU      5.24s WALL (      29 calls)
     fftw         :     65.53s CPU     71.55s WALL (     830 calls)

     Parallel routines

     PWSCF        :   5m36.89s CPU   6m49.96s WALL


   This run was terminated on:  10: 3:29   9Oct2023            

=------------------------------------------------------------------------------=
   JOB DONE.
=------------------------------------------------------------------------------=
