 vasp.6.1.2 22Jul20 (build Jan  6 2021 09:55:43) gamma-only                      
 executed on             LinuxPGI date 2023.10.20  04:32:46
 running on   32 total cores
 distrk:  each k-point on   32 cores,    1 groups
 distr:  one band on NCORE=   1 cores,   32 groups


--------------------------------------------------------------------------------------------------------


 INCAR:
 POTCAR:    PAW_PBE C_s 06Sep2000                 
 POTCAR:    PAW_PBE O_s 07Sep2000                 
 -----------------------------------------------------------------------------
|                                                                             |
|           W    W    AA    RRRRR   N    N  II  N    N   GGGG   !!!           |
|           W    W   A  A   R    R  NN   N  II  NN   N  G    G  !!!           |
|           W    W  A    A  R    R  N N  N  II  N N  N  G       !!!           |
|           W WW W  AAAAAA  RRRRR   N  N N  II  N  N N  G  GGG   !            |
|           WW  WW  A    A  R   R   N   NN  II  N   NN  G    G                |
|           W    W  A    A  R    R  N    N  II  N    N   GGGG   !!!           |
|                                                                             |
|     For optimal performance we recommend to set                             |
|       NCORE = 4 - approx SQRT(number of cores).                             |
|     NCORE specifies how many cores store one orbital (NPAR=cpu/NCORE).      |
|     This setting can greatly improve the performance of VASP for DFT.       |
|     The default, NCORE=1 might be grossly inefficient on modern             |
|     multi-core architectures or massively parallel machines. Do your        |
|     own testing!!!!                                                         |
|     Unfortunately you need to use the default for GW and RPA                |
|     calculations (for HF NCORE is supported but not extensively tested      |
|     yet).                                                                   |
|                                                                             |
 -----------------------------------------------------------------------------

 POTCAR:    PAW_PBE C_s 06Sep2000                 
   VRHFIN =C: s2p2                                                                                  
   LEXCH  = PE                                                                                      
   EATOM  =   147.1560 eV,   10.8157 Ry                                                             
                                                                                                    
   TITEL  = PAW_PBE C_s 06Sep2000                                                                   
   LULTRA =        F    use ultrasoft PP ?                                                          
   IUNSCR =        0    unscreen: 0-lin 1-nonlin 2-no                                               
   RPACOR =    0.000    partial core radius                                                         
   POMASS =   12.011; ZVAL   =    4.000    mass and valenz                                          
   RCORE  =    1.850    outmost cutoff radius                                                       
   RWIGS  =    1.890; RWIGS  =    1.000    wigner-seitz radius (au A)                               
   ENMAX  =  273.911; ENMIN  =  205.433 eV                                                          
   RCLOC  =    0.804    cutoff for local pot                                                        
   LCOR   =        T    correct aug charges                                                         
   LPAW   =        T    paw PP                                                                      
   EAUG   =  439.243                                                                                
   DEXC   =    0.000                                                                                
   RMAX   =    1.897    core radius for proj-oper                                                   
   RAUG   =    1.300    factor for augmentation sphere                                              
   RDEP   =    1.940    radius for radial grids                                                     
   RDEPT  =    1.573    core radius for aug-charge                                                  
                                                                                                    
   Atomic configuration                                                                             
    4 entries                                                                                       
     n  l   j            E        occ.                                                              
     1  0  0.50      -273.3789   2.0000                                                             
     2  0  0.50       -13.7508   2.0000                                                             
     2  1  0.50        -5.2854   2.0000                                                             
     3  2  1.50        -1.3606   0.0000                                                             
   Description                                                                                      
     l       E           TYP  RCUT    TYP  RCUT                                                     
     0    -13.7508457     23  1.500                                                                 
     0    -11.0934578     23  1.500                                                                 
     1     -5.2854381     23  1.850                                                                 
     1     -1.3099858     23  1.850                                                                 
  local pseudopotential read in
  atomic valenz-charges read in
  non local Contribution for L=            0  read in
    real space projection operators read in
  non local Contribution for L=            0  read in
    real space projection operators read in
  non local Contribution for L=            1  read in
    real space projection operators read in
  non local Contribution for L=            1  read in
    real space projection operators read in
    PAW grid and wavefunctions read in
 
   number of l-projection  operators is LMAX  =            4
   number of lm-projection operators is LMMAX =            8
 
 POTCAR:    PAW_PBE O_s 07Sep2000                 
   VRHFIN =O: s2p4                                                                                  
   LEXCH  = PE                                                                                      
   EATOM  =   432.3788 eV,   31.7789 Ry                                                             
                                                                                                    
   TITEL  = PAW_PBE O_s 07Sep2000                                                                   
   LULTRA =        F    use ultrasoft PP ?                                                          
   IUNSCR =        0    unscreen: 0-lin 1-nonlin 2-no                                               
   RPACOR =    0.000    partial core radius                                                         
   POMASS =   16.000; ZVAL   =    6.000    mass and valenz                                          
   RCORE  =    1.850    outmost cutoff radius                                                       
   RWIGS  =    1.700; RWIGS  =    0.900    wigner-seitz radius (au A)                               
   ENMAX  =  282.853; ENMIN  =  212.140 eV                                                          
   RCLOC  =    0.804    cutoff for local pot                                                        
   LCOR   =        T    correct aug charges                                                         
   LPAW   =        T    paw PP                                                                      
   EAUG   =  412.352                                                                                
   RMAX   =    1.897    core radius for proj-oper                                                   
   RAUG   =    1.300    factor for augmentation sphere                                              
   RDEP   =    1.878    radius for radial grids                                                     
   RDEPT  =    1.572    core radius for aug-charge                                                  
                                                                                                    
   Atomic configuration                                                                             
    4 entries                                                                                       
     n  l   j            E        occ.                                                              
     1  0  0.50      -514.6923   2.0000                                                             
     2  0  0.50       -23.9615   2.0000                                                             
     2  1  0.50        -9.0305   4.0000                                                             
     3  2  1.50        -1.3606   0.0000                                                             
   Description                                                                                      
     l       E           TYP  RCUT    TYP  RCUT                                                     
     0    -23.9615315     23  1.500                                                                 
     0    -25.3221141     23  1.500                                                                 
     1     -9.0304908     23  1.850                                                                 
     1     -7.3935399     23  1.850                                                                 
  local pseudopotential read in
  atomic valenz-charges read in
  non local Contribution for L=            0  read in
    real space projection operators read in
  non local Contribution for L=            0  read in
    real space projection operators read in
  non local Contribution for L=            1  read in
    real space projection operators read in
  non local Contribution for L=            1  read in
    real space projection operators read in
    PAW grid and wavefunctions read in
 
   number of l-projection  operators is LMAX  =            4
   number of lm-projection operators is LMMAX =            8
 
  PAW_PBE C_s 06Sep2000                 :
 energy of atom  1       EATOM= -147.1560
 kinetic energy error for atom=    0.0002 (will be added to EATOM!!)
  PAW_PBE O_s 07Sep2000                 :
 energy of atom  2       EATOM= -432.3788
 kinetic energy error for atom=    0.0004 (will be added to EATOM!!)
 
 
 POSCAR:  C  O
  positions in cartesian coordinates
  No initial velocities read in
 exchange correlation table for  LEXCH =        8
   RHO(1)=    0.500       N(1)  =     2000
   RHO(2)=  100.500       N(2)  =     4000
 


--------------------------------------------------------------------------------------------------------


 ion  position               nearest neighbor table
   1  0.000  0.002  0.000-   3 1.17   4 1.17
   2  1.000  0.161  0.000-   5 1.17   6 1.17
   3  0.000  0.035  0.000-   1 1.17
   4  0.000  0.968  0.000-   1 1.17
   5  1.000  0.161  0.034-   2 1.17
   6  0.000  0.161  0.967-   2 1.17
 
  LATTYP: Found a simple cubic cell.
 ALAT       =    35.0000000000
  
  Lattice vectors:
  
 A1 = (  35.0000000000,   0.0000000000,   0.0000000000)
 A2 = (   0.0000000000,  35.0000000000,   0.0000000000)
 A3 = (   0.0000000000,   0.0000000000,  35.0000000000)


Analysis of symmetry for initial positions (statically):
=====================================================================
 Subroutine PRICEL returns:
 Original cell was already a primitive cell.
 

 Routine SETGRP: Setting up the symmetry group for a 
 simple cubic supercell.


 Subroutine GETGRP returns: Found  1 space group operations
 (whereof  1 operations were pure point group operations)
 out of a pool of 48 trial point group operations.


The static configuration has the point symmetry C_1 .


Analysis of symmetry for dynamics (positions and initial velocities):
=====================================================================
 Subroutine PRICEL returns:
 Original cell was already a primitive cell.
 

 Routine SETGRP: Setting up the symmetry group for a 
 simple cubic supercell.


 Subroutine GETGRP returns: Found  1 space group operations
 (whereof  1 operations were pure point group operations)
 out of a pool of 48 trial point group operations.


The dynamic configuration has the point symmetry C_1 .


 Subroutine INISYM returns: Found  1 space group operations
 (whereof  1 operations are pure point group operations),
 and found     1 'primitive' translations


----------------------------------------------------------------------------------------

                                     Primitive cell                                     

  volume of cell :   42875.0000

  direct lattice vectors                    reciprocal lattice vectors
    35.000000000  0.000000000  0.000000000     0.028571429  0.000000000  0.000000000
     0.000000000 35.000000000  0.000000000     0.000000000  0.028571429  0.000000000
     0.000000000  0.000000000 35.000000000     0.000000000  0.000000000  0.028571429

  length of vectors
    35.000000000 35.000000000 35.000000000     0.028571429  0.028571429  0.028571429

  position of ions in fractional coordinates (direct lattice)
     0.000000000  0.001628171  0.000000000
     0.999957287  0.160776469  0.000215536
     0.000000000  0.035063029  0.000000000
     0.000000000  0.968193314  0.000000000
     0.999522117  0.160523615  0.033646605
     0.000392457  0.161029324  0.966784468

  ion indices of the primitive-cell ions
   primitive index   ion index
                 1           1
                 2           2
                 3           3
                 4           4
                 5           5
                 6           6

----------------------------------------------------------------------------------------

 
 
 KPOINTS: g                                       

Automatic generation of k-mesh.
Space group operators:
 irot       det(A)        alpha          n_x          n_y          n_z        tau_x        tau_y        tau_z
    1     1.000000     0.000000     1.000000     0.000000     0.000000     0.000000     0.000000     0.000000
 
 Subroutine IBZKPT returns following result:
 ===========================================
 
 Found      1 irreducible k-points:
 
 Following reciprocal coordinates:
            Coordinates               Weight
  0.000000  0.000000  0.000000      1.000000
 
 Following cartesian coordinates:
            Coordinates               Weight
  0.000000  0.000000  0.000000      1.000000
 


--------------------------------------------------------------------------------------------------------




 Dimension of arrays:
   k-points           NKPTS =      1   k-points in BZ     NKDIM =      1   number of bands    NBANDS=     32
   number of dos      NEDOS =    301   number of ions     NIONS =      6
   non local maximal  LDIM  =      4   non local SUM 2l+1 LMDIM =      8
   total plane-waves  NPLWV = ******
   max r-space proj   IRMAX =      1   max aug-charges    IRDMAX=  29269
   dimension x,y,z NGX =   378 NGY =  378 NGZ =  378
   dimension x,y,z NGXF=   756 NGYF=  756 NGZF=  756
   support grid    NGXF=   756 NGYF=  756 NGZF=  756
   ions per type =               2   4
   NGX,Y,Z   is equivalent  to a cutoff of  17.95, 17.95, 17.95 a.u.
   NGXF,Y,Z  is equivalent  to a cutoff of  35.91, 35.91, 35.91 a.u.

 SYSTEM =  C                                       
 POSCAR =   C  O                                   

 Startparameter for this run:
   NWRITE =      2    write-flag & timer
   PREC   = acc       normal or accurate (medium, high low for compatibility)
   ISTART =      0    job   : 0-new  1-cont  2-samecut
   ICHARG =      2    charge: 1-file 2-atom 10-const
   ISPIN  =      1    spin polarized calculation?
   LNONCOLLINEAR =      F non collinear calculations
   LSORBIT =      F    spin-orbit coupling
   INIWAV =      1    electr: 0-lowe 1-rand  2-diag
   LASPH  =      T    aspherical Exc in radial PAW
   METAGGA=      F    non-selfconsistent MetaGGA calc.

 Electronic Relaxation 1
   ENCUT  = 1000.0 eV  73.50 Ry    8.57 a.u.  90.25 90.25 90.25*2*pi/ulx,y,z
   ENINI  = 1000.0     initial cutoff
   ENAUG  =  439.2 eV  augmentation charge cutoff
   NELM   =     60;   NELMIN=  2; NELMDL= -5     # of ELM steps 
   EDIFF  = 0.1E-06   stopping-criterion for ELM
   LREAL  =      F    real-space projection
   NLSPLINE    = F    spline interpolate recip. space projectors
   LCOMPAT=      F    compatible to vasp.4.4
   GGA_COMPAT  = T    GGA compatible to vasp.4.4-vasp.4.6
   LMAXPAW     = -100 max onsite density
   LMAXMIX     =    2 max onsite mixed and CHGCAR
   VOSKOWN=      0    Vosko Wilk Nusair interpolation
   ROPT   =    0.00000   0.00000
 Ionic relaxation
   EDIFFG = 0.1E-05   stopping-criterion for IOM
   NSW    =      0    number of steps for IOM
   NBLOCK =      1;   KBLOCK =      1    inner block; outer block 
   IBRION =     -1    ionic relax: 0-MD 1-quasi-New 2-CG
   NFREE  =      0    steps in history (QN), initial steepest desc. (CG)
   ISIF   =      2    stress and relaxation
   IWAVPR =     10    prediction:  0-non 1-charg 2-wave 3-comb
   ISYM   =      2    0-nonsym 1-usesym 2-fastsym
   LCORR  =      T    Harris-Foulkes like correction to forces

   POTIM  = 0.5000    time-step for ionic-motion
   TEIN   =    0.0    initial temperature
   TEBEG  =    0.0;   TEEND  =   0.0 temperature during run
   SMASS  =  -3.00    Nose mass-parameter (am)
   estimated Nose-frequenzy (Omega)   =  0.10E-29 period in steps = 0.13E+47 mass=  -0.280E-25a.u.
   SCALEE = 1.0000    scale energy and forces
   NPACO  =    256;   APACO  = 16.0  distance and # of slots for P.C.
   PSTRESS=    0.0 pullay stress

  Mass of Ions in am
   POMASS =  12.01 16.00
  Ionic Valenz
   ZVAL   =   4.00  6.00
  Atomic Wigner-Seitz radii
   RWIGS  =  -1.00 -1.00
  virtual crystal weights 
   VCA    =   1.00  1.00
   NELECT =      32.0000    total number of electrons
   NUPDOWN=      -1.0000    fix difference up-down

 DOS related values:
   EMIN   =  10.00;   EMAX   =-10.00  energy-range for DOS
   EFERMI =   0.00
   ISMEAR =     0;   SIGMA  =   0.01  broadening in eV -4-tet -1-fermi 0-gaus

 Electronic relaxation 2 (details)
   IALGO  =     38    algorithm
   LDIAG  =      T    sub-space diagonalisation (order eigenvalues)
   LSUBROT=      F    optimize rotation matrix (better conditioning)
   TURBO    =      0    0=normal 1=particle mesh
   IRESTART =      0    0=no restart 2=restart with 2 vectors
   NREBOOT  =      0    no. of reboots
   NMIN     =      0    reboot dimension
   EREF     =   0.00    reference energy to select bands
   IMIX   =      4    mixing-type and parameters
     AMIX     =   0.40;   BMIX     =  1.00
     AMIX_MAG =   1.60;   BMIX_MAG =  1.00
     AMIN     =   0.10
     WC   =   100.;   INIMIX=   1;  MIXPRE=   1;  MAXMIX= -45

 Intra band minimization:
   WEIMIN = 0.0000     energy-eigenvalue tresh-hold
   EBREAK =  0.78E-09  absolut break condition
   DEPER  =   0.30     relativ break condition  

   TIME   =   0.40     timestep for ELM

  volume/ion in A,a.u.               =    7145.83     48222.46
  Fermi-wavevector in a.u.,A,eV,Ry     =   0.148499  0.280622  0.300035  0.022052
  Thomas-Fermi vector in A             =   0.821704
 
 Write flags
   LWAVE        =      T    write WAVECAR
   LDOWNSAMPLE  =      F    k-point downsampling of WAVECAR
   LCHARG       =      T    write CHGCAR
   LVTOT        =      F    write LOCPOT, total local potential
   LVHAR        =      F    write LOCPOT, Hartree potential only
   LELF         =      F    write electronic localiz. function (ELF)
   LORBIT       =      0    0 simple, 1 ext, 2 COOP (PROOUT), +10 PAW based schemes


 Dipole corrections
   LMONO  =      F    monopole corrections only (constant potential shift)
   LDIPOL =      F    correct potential (dipole corrections)
   IDIPOL =      4    1-x, 2-y, 3-z, 4-all directions 
   EPSILON=  1.0000000 bulk dielectric constant

 Exchange correlation treatment:
   GGA     =    --    GGA type
   LEXCH   =     8    internal setting for exchange type
   VOSKOWN=      0    Vosko Wilk Nusair interpolation
   LHFCALC =     F    Hartree Fock is set to
   LHFONE  =     F    Hartree Fock one center treatment
   AEXX    =    0.0000 exact exchange contribution

 Linear response parameters
   LEPSILON=     F    determine dielectric tensor
   LRPA    =     F    only Hartree local field effects (RPA)
   LNABLA  =     F    use nabla operator in PAW spheres
   LVEL    =     F    velocity operator in full k-point grid
   LINTERFAST=   F  fast interpolation
   KINTER  =     0    interpolate to denser k-point grid
   CSHIFT  =0.1000    complex shift for real part using Kramers Kronig
   OMEGAMAX=  -1.0    maximum frequency
   DEG_THRESHOLD= 0.2000000E-02 threshold for treating states as degnerate
   RTIME   =   -0.100 relaxation time in fs
  (WPLASMAI=    0.000 imaginary part of plasma frequency in eV, 0.658/RTIME)
   DFIELD  = 0.0000000 0.0000000 0.0000000 field for delta impulse in time
 
 Orbital magnetization related:
   ORBITALMAG=     F  switch on orbital magnetization
   LCHIMAG   =     F  perturbation theory with respect to B field
   DQ        =  0.001000  dq finite difference perturbation B field
   LLRAUG    =     F  two centre corrections for induced B field



--------------------------------------------------------------------------------------------------------


 Static calculation
 charge density and potential will be updated during run
 non-spin polarized calculation
 Variant of blocked Davidson
 Davidson routine will perform the subspace rotation
 perform sub-space diagonalisation
    after iterative eigenvector-optimisation
 modified Broyden-mixing scheme, WC =      100.0
 initial mixing is a Kerker type mixing with AMIX =  0.4000 and BMIX =      1.0000
 Hartree-type preconditioning will be used
 using additional bands            16
 reciprocal scheme for non local part
 calculate Harris-corrections to forces 
   (improved forces if not selfconsistent)
 use gradient corrections 
 use of overlap-Matrix (Vanderbilt PP)
 Gauss-broadening in eV      SIGMA  =   0.01


--------------------------------------------------------------------------------------------------------


  energy-cutoff  :     1000.00
  volume of cell :    42875.00
      direct lattice vectors                 reciprocal lattice vectors
    35.000000000  0.000000000  0.000000000     0.028571429  0.000000000  0.000000000
     0.000000000 35.000000000  0.000000000     0.000000000  0.028571429  0.000000000
     0.000000000  0.000000000 35.000000000     0.000000000  0.000000000  0.028571429

  length of vectors
    35.000000000 35.000000000 35.000000000     0.028571429  0.028571429  0.028571429


 
 k-points in units of 2pi/SCALE and weight: g                                       
   0.00000000  0.00000000  0.00000000       1.000
 
 k-points in reciprocal lattice and weights: g                                       
   0.00000000  0.00000000  0.00000000       1.000
 
 position of ions in fractional coordinates (direct lattice) 
   0.00000000  0.00162817  0.00000000
   0.99995729  0.16077647  0.00021554
   0.00000000  0.03506303  0.00000000
   0.00000000  0.96819331  0.00000000
   0.99952212  0.16052361  0.03364661
   0.00039246  0.16102932  0.96678447
 
 position of ions in cartesian coordinates  (Angst):
   0.00000000  0.05698600  0.00000000
  34.99850504  5.62717643  0.00754377
   0.00000000  1.22720600  0.00000000
   0.00000000 33.88676600  0.00000000
  34.98327409  5.61832652  1.17763118
   0.01373599  5.63602633 33.83745636
 


--------------------------------------------------------------------------------------------------------


 use serial FFT for orbitals x direction half grid
 k-point   1 :   0.0000 0.0000 0.0000  plane waves: 1539209

 maximum and minimum number of plane-waves per node :   1539209  1539209

 maximum number of plane-waves:   1539209
 maximum index in each direction: 
   IXMAX=   90   IYMAX=   90   IZMAX=   90
   IXMIN=    0   IYMIN=  -90   IZMIN=  -90


 serial   3D FFT for wavefunctions
 parallel 3D FFT for charge:
    minimum data exchange during FFTs selected (reduces bandwidth)


 total amount of memory used by VASP MPI-rank0  4007897. kBytes
=======================================================================

   base      :      30000. kBytes
   nonl-proj :     344787. kBytes
   fftplans  :     676185. kBytes
   grid      :    2932288. kBytes
   one-center:          9. kBytes
   wavefun   :      24628. kBytes
 
     INWAV:  cpu time    0.0001: real time    0.0001
 Broyden mixing: mesh for mixing (old mesh)
   NGX =181   NGY =181   NGZ =181
  (NGX  =756   NGY  =756   NGZ  =756)
  gives a total of ****** points

 initial charge density was supplied:
 charge density of overlapping atoms calculated
 number of electron      32.0000000 magnetization 
 keeping initial charge density in first step


--------------------------------------------------------------------------------------------------------


 Maximum index for augmentation-charges          1122 (set IRDMAX)


--------------------------------------------------------------------------------------------------------


 First call to EWALD:  gamma=   0.051
 Maximum number of real-space cells 3x 3x 3
 Maximum number of reciprocal cells 3x 3x 3

    FEWALD:  cpu time    0.0023: real time    0.0023


--------------------------------------- Iteration      1(   1)  ---------------------------------------


    POTLOK:  cpu time   15.0226: real time   15.0489
    SETDIJ:  cpu time    0.0496: real time    0.0503
     EDDAV:  cpu time   29.5990: real time   29.6624
       DOS:  cpu time    0.0007: real time    0.0007
    --------------------------------------------
      LOOP:  cpu time   44.6719: real time   44.7624

 eigenvalue-minimisations  :   128
 total energy-change (2. order) : 0.2293990E+03  (-0.6964540E+03)
 number of electron      32.0000000 magnetization 
 augmentation part       32.0000000 magnetization 

 Free energy of the ion-electron system (eV)
  ---------------------------------------------------
  alpha Z        PSCENC =         0.07205883
  Ewald energy   TEWEN  =      1705.05883316
  -Hartree energ DENC   =     -3306.18542968
  -exchange      EXHF   =         0.00000000
  -V(xc)+E(xc)   XCENC  =       135.98234766
  PAW double counting   =      1593.34061361    -1611.57548628
  entropy T*S    EENTRO =        -0.00000031
  eigenvalues    EBANDS =      -311.11905525
  atomic energy  EATOM  =      2023.82507259
  Solvation  Ediel_sol  =         0.00000000
  ---------------------------------------------------
  free energy    TOTEN  =       229.39895434 eV

  energy without entropy =      229.39895465  energy(sigma->0) =      229.39895450


--------------------------------------------------------------------------------------------------------




--------------------------------------- Iteration      1(   2)  ---------------------------------------


     EDDAV:  cpu time   29.4977: real time   29.5504
       DOS:  cpu time    0.0002: real time    0.0002
    --------------------------------------------
      LOOP:  cpu time   29.4980: real time   29.5506

 eigenvalue-minimisations  :   128
 total energy-change (2. order) :-0.2480341E+03  (-0.2480341E+03)
 number of electron      32.0000000 magnetization 
 augmentation part       32.0000000 magnetization 

 Free energy of the ion-electron system (eV)
  ---------------------------------------------------
  alpha Z        PSCENC =         0.07205883
  Ewald energy   TEWEN  =      1705.05883316
  -Hartree energ DENC   =     -3306.18542968
  -exchange      EXHF   =         0.00000000
  -V(xc)+E(xc)   XCENC  =       135.98234766
  PAW double counting   =      1593.34061361    -1611.57548628
  entropy T*S    EENTRO =        -0.00000000
  eigenvalues    EBANDS =      -559.15317045
  atomic energy  EATOM  =      2023.82507259
  Solvation  Ediel_sol  =         0.00000000
  ---------------------------------------------------
  free energy    TOTEN  =       -18.63516055 eV

  energy without entropy =      -18.63516055  energy(sigma->0) =      -18.63516055


--------------------------------------------------------------------------------------------------------




--------------------------------------- Iteration      1(   3)  ---------------------------------------


     EDDAV:  cpu time   17.8898: real time   17.9215
       DOS:  cpu time    0.0002: real time    0.0002
    --------------------------------------------
      LOOP:  cpu time   17.8900: real time   17.9217

 eigenvalue-minimisations  :    64
 total energy-change (2. order) :-0.2879017E+02  (-0.2879017E+02)
 number of electron      32.0000000 magnetization 
 augmentation part       32.0000000 magnetization 

 Free energy of the ion-electron system (eV)
  ---------------------------------------------------
  alpha Z        PSCENC =         0.07205883
  Ewald energy   TEWEN  =      1705.05883316
  -Hartree energ DENC   =     -3306.18542968
  -exchange      EXHF   =         0.00000000
  -V(xc)+E(xc)   XCENC  =       135.98234766
  PAW double counting   =      1593.34061361    -1611.57548628
  entropy T*S    EENTRO =        -0.00000000
  eigenvalues    EBANDS =      -587.94333946
  atomic energy  EATOM  =      2023.82507259
  Solvation  Ediel_sol  =         0.00000000
  ---------------------------------------------------
  free energy    TOTEN  =       -47.42532956 eV

  energy without entropy =      -47.42532956  energy(sigma->0) =      -47.42532956


--------------------------------------------------------------------------------------------------------




--------------------------------------- Iteration      1(   4)  ---------------------------------------


     EDDAV:  cpu time   29.6333: real time   29.7009
       DOS:  cpu time    0.0002: real time    0.0002
    --------------------------------------------
      LOOP:  cpu time   29.6336: real time   29.7011

 eigenvalue-minimisations  :   128
 total energy-change (2. order) :-0.3992187E+00  (-0.3992188E+00)
 number of electron      32.0000000 magnetization 
 augmentation part       32.0000000 magnetization 

 Free energy of the ion-electron system (eV)
  ---------------------------------------------------
  alpha Z        PSCENC =         0.07205883
  Ewald energy   TEWEN  =      1705.05883316
  -Hartree energ DENC   =     -3306.18542968
  -exchange      EXHF   =         0.00000000
  -V(xc)+E(xc)   XCENC  =       135.98234766
  PAW double counting   =      1593.34061361    -1611.57548628
  entropy T*S    EENTRO =        -0.00000000
  eigenvalues    EBANDS =      -588.34255821
  atomic energy  EATOM  =      2023.82507259
  Solvation  Ediel_sol  =         0.00000000
  ---------------------------------------------------
  free energy    TOTEN  =       -47.82454831 eV

  energy without entropy =      -47.82454831  energy(sigma->0) =      -47.82454831


--------------------------------------------------------------------------------------------------------




--------------------------------------- Iteration      1(   5)  ---------------------------------------


     EDDAV:  cpu time   29.6018: real time   29.6554
       DOS:  cpu time    0.0003: real time    0.0003
    CHARGE:  cpu time    6.5932: real time    6.6025
    MIXING:  cpu time    0.3163: real time    0.3169
    --------------------------------------------
      LOOP:  cpu time   36.5116: real time   36.5751

 eigenvalue-minimisations  :   128
 total energy-change (2. order) :-0.1566348E-03  (-0.1566499E-03)
 number of electron      31.9999999 magnetization 
 augmentation part        6.0057299 magnetization 

 Broyden mixing:
  rms(total) = 0.65532E+01    rms(broyden)= 0.65532E+01
  rms(prec ) = 0.65592E+01
  weight for this iteration     100.00

 Free energy of the ion-electron system (eV)
  ---------------------------------------------------
  alpha Z        PSCENC =         0.07205883
  Ewald energy   TEWEN  =      1705.05883316
  -Hartree energ DENC   =     -3306.18542968
  -exchange      EXHF   =         0.00000000
  -V(xc)+E(xc)   XCENC  =       135.98234766
  PAW double counting   =      1593.34061361    -1611.57548628
  entropy T*S    EENTRO =        -0.00000000
  eigenvalues    EBANDS =      -588.34271484
  atomic energy  EATOM  =      2023.82507259
  Solvation  Ediel_sol  =         0.00000000
  ---------------------------------------------------
  free energy    TOTEN  =       -47.82470494 eV

  energy without entropy =      -47.82470494  energy(sigma->0) =      -47.82470494


--------------------------------------------------------------------------------------------------------




--------------------------------------- Iteration      1(   6)  ---------------------------------------


    POTLOK:  cpu time   14.7344: real time   14.7606
    SETDIJ:  cpu time    0.0488: real time    0.0488
     EDDAV:  cpu time   22.9296: real time   22.9704
       DOS:  cpu time    0.0111: real time    0.0111
    CHARGE:  cpu time    6.4831: real time    6.4947
    MIXING:  cpu time    0.3104: real time    0.3142
    --------------------------------------------
      LOOP:  cpu time   44.5174: real time   44.5997

 eigenvalue-minimisations  :    96
 total energy-change (2. order) : 0.3321367E+01  (-0.2380650E+01)
 number of electron      32.0000000 magnetization 
 augmentation part        5.3232598 magnetization 

 Broyden mixing:
  rms(total) = 0.61844E+01    rms(broyden)= 0.61844E+01
  rms(prec ) = 0.61850E+01
  weight for this iteration     100.00

 eigenvalues of (default mixing * dielectric matrix)
  average eigenvalue GAMMA=   0.9745
  0.9745

 Free energy of the ion-electron system (eV)
  ---------------------------------------------------
  alpha Z        PSCENC =         0.07205883
  Ewald energy   TEWEN  =      1705.05883316
  -Hartree energ DENC   =     -3356.44593638
  -exchange      EXHF   =         0.00000000
  -V(xc)+E(xc)   XCENC  =       139.08871364
  PAW double counting   =      3422.07299406    -3443.23551324
  entropy T*S    EENTRO =        -0.00000000
  eigenvalues    EBANDS =      -534.93956026
  atomic energy  EATOM  =      2023.82507259
  Solvation  Ediel_sol  =         0.00000000
  ---------------------------------------------------
  free energy    TOTEN  =       -44.50333759 eV

  energy without entropy =      -44.50333759  energy(sigma->0) =      -44.50333759


--------------------------------------------------------------------------------------------------------




--------------------------------------- Iteration      1(   7)  ---------------------------------------


    POTLOK:  cpu time   14.7426: real time   14.7679
    SETDIJ:  cpu time    0.0489: real time    0.0489
     EDDAV:  cpu time   22.9107: real time   22.9522
       DOS:  cpu time    0.0023: real time    0.0023
    CHARGE:  cpu time    6.4221: real time    6.4310
    MIXING:  cpu time    0.3519: real time    0.3533
    --------------------------------------------
      LOOP:  cpu time   44.4786: real time   44.5558

 eigenvalue-minimisations  :    96
 total energy-change (2. order) : 0.3039544E+00  (-0.1076423E+00)
 number of electron      31.9999999 magnetization 
 augmentation part        5.3867186 magnetization 

 Broyden mixing:
  rms(total) = 0.34009E+01    rms(broyden)= 0.34009E+01
  rms(prec ) = 0.34012E+01
  weight for this iteration     100.00

 eigenvalues of (default mixing * dielectric matrix)
  average eigenvalue GAMMA=   1.6906
  0.8458  2.5354

 Free energy of the ion-electron system (eV)
  ---------------------------------------------------
  alpha Z        PSCENC =         0.07205883
  Ewald energy   TEWEN  =      1705.05883316
  -Hartree energ DENC   =     -3363.62357436
  -exchange      EXHF   =         0.00000000
  -V(xc)+E(xc)   XCENC  =       139.35660304
  PAW double counting   =      5349.62119011    -5370.35248026
  entropy T*S    EENTRO =        -0.00000000
  eigenvalues    EBANDS =      -528.15708633
  atomic energy  EATOM  =      2023.82507259
  Solvation  Ediel_sol  =         0.00000000
  ---------------------------------------------------
  free energy    TOTEN  =       -44.19938322 eV

  energy without entropy =      -44.19938322  energy(sigma->0) =      -44.19938322


--------------------------------------------------------------------------------------------------------




--------------------------------------- Iteration      1(   8)  ---------------------------------------


    POTLOK:  cpu time   14.8135: real time   14.8388
    SETDIJ:  cpu time    0.0488: real time    0.0488
     EDDAV:  cpu time   28.6060: real time   28.6553
       DOS:  cpu time    0.0108: real time    0.0108
    CHARGE:  cpu time    6.4075: real time    6.4186
    MIXING:  cpu time    0.3435: real time    0.3442
    --------------------------------------------
      LOOP:  cpu time   50.2301: real time   50.3165

 eigenvalue-minimisations  :   128
 total energy-change (2. order) : 0.1175807E+00  (-0.3870881E-01)
 number of electron      31.9999999 magnetization 
 augmentation part        5.3343085 magnetization 

 Broyden mixing:
  rms(total) = 0.22498E+00    rms(broyden)= 0.22498E+00
  rms(prec ) = 0.22553E+00
  weight for this iteration     100.00

 eigenvalues of (default mixing * dielectric matrix)
  average eigenvalue GAMMA=   1.5363
  2.5231  1.1974  0.8883

 Free energy of the ion-electron system (eV)
  ---------------------------------------------------
  alpha Z        PSCENC =         0.07205883
  Ewald energy   TEWEN  =      1705.05883316
  -Hartree energ DENC   =     -3380.47409436
  -exchange      EXHF   =         0.00000000
  -V(xc)+E(xc)   XCENC  =       140.24491680
  PAW double counting   =      9517.11200289    -9537.84515816
  entropy T*S    EENTRO =        -0.00000000
  eigenvalues    EBANDS =      -512.07543427
  atomic energy  EATOM  =      2023.82507259
  Solvation  Ediel_sol  =         0.00000000
  ---------------------------------------------------
  free energy    TOTEN  =       -44.08180252 eV

  energy without entropy =      -44.08180252  energy(sigma->0) =      -44.08180252


--------------------------------------------------------------------------------------------------------




--------------------------------------- Iteration      1(   9)  ---------------------------------------


    POTLOK:  cpu time   14.7490: real time   14.7741
    SETDIJ:  cpu time    0.0488: real time    0.0488
     EDDAV:  cpu time   22.9678: real time   23.0083
       DOS:  cpu time    0.0069: real time    0.0069
    CHARGE:  cpu time    6.4453: real time    6.4538
    MIXING:  cpu time    0.3481: real time    0.3487
    --------------------------------------------
      LOOP:  cpu time   44.5658: real time   44.6407

 eigenvalue-minimisations  :    96
 total energy-change (2. order) : 0.5822163E-02  (-0.3507403E-02)
 number of electron      31.9999999 magnetization 
 augmentation part        5.3323401 magnetization 

 Broyden mixing:
  rms(total) = 0.63146E-01    rms(broyden)= 0.63146E-01
  rms(prec ) = 0.63517E-01
  weight for this iteration     100.00

 eigenvalues of (default mixing * dielectric matrix)
  average eigenvalue GAMMA=   1.4732
  2.5280  0.8501  1.0168  1.4980

 Free energy of the ion-electron system (eV)
  ---------------------------------------------------
  alpha Z        PSCENC =         0.07205883
  Ewald energy   TEWEN  =      1705.05883316
  -Hartree energ DENC   =     -3379.01562275
  -exchange      EXHF   =         0.00000000
  -V(xc)+E(xc)   XCENC  =       140.15873023
  PAW double counting   =      9610.57681136    -9631.20377536
  entropy T*S    EENTRO =        -0.00000000
  eigenvalues    EBANDS =      -513.54808843
  atomic energy  EATOM  =      2023.82507259
  Solvation  Ediel_sol  =         0.00000000
  ---------------------------------------------------
  free energy    TOTEN  =       -44.07598036 eV

  energy without entropy =      -44.07598036  energy(sigma->0) =      -44.07598036


--------------------------------------------------------------------------------------------------------




--------------------------------------- Iteration      1(  10)  ---------------------------------------


    POTLOK:  cpu time   14.7041: real time   14.7297
    SETDIJ:  cpu time    0.0489: real time    0.0489
     EDDAV:  cpu time   28.5855: real time   28.6363
       DOS:  cpu time    0.0128: real time    0.0128
    CHARGE:  cpu time    6.4556: real time    6.4652
    MIXING:  cpu time    0.3745: real time    0.3753
    --------------------------------------------
      LOOP:  cpu time   50.1814: real time   50.2682

 eigenvalue-minimisations  :   128
 total energy-change (2. order) :-0.3168435E-02  (-0.3197168E-03)
 number of electron      31.9999999 magnetization 
 augmentation part        5.3378573 magnetization 

 Broyden mixing:
  rms(total) = 0.45433E-01    rms(broyden)= 0.45433E-01
  rms(prec ) = 0.45685E-01
  weight for this iteration     100.00

 eigenvalues of (default mixing * dielectric matrix)
  average eigenvalue GAMMA=   1.4224
  2.5183  1.6054  0.9267  0.9267  1.1346

 Free energy of the ion-electron system (eV)
  ---------------------------------------------------
  alpha Z        PSCENC =         0.07205883
  Ewald energy   TEWEN  =      1705.05883316
  -Hartree energ DENC   =     -3378.76244030
  -exchange      EXHF   =         0.00000000
  -V(xc)+E(xc)   XCENC  =       140.12486320
  PAW double counting   =      9648.86962789    -9669.42222779
  entropy T*S    EENTRO =        -0.00000000
  eigenvalues    EBANDS =      -513.84493639
  atomic energy  EATOM  =      2023.82507259
  Solvation  Ediel_sol  =         0.00000000
  ---------------------------------------------------
  free energy    TOTEN  =       -44.07914879 eV

  energy without entropy =      -44.07914879  energy(sigma->0) =      -44.07914879


--------------------------------------------------------------------------------------------------------




--------------------------------------- Iteration      1(  11)  ---------------------------------------


    POTLOK:  cpu time   14.7459: real time   14.7706
    SETDIJ:  cpu time    0.0490: real time    0.0490
     EDDAV:  cpu time   22.9073: real time   22.9482
       DOS:  cpu time    0.0077: real time    0.0077
    CHARGE:  cpu time    6.4091: real time    6.4180
    MIXING:  cpu time    0.3862: real time    0.3869
    --------------------------------------------
      LOOP:  cpu time   44.5052: real time   44.5805

 eigenvalue-minimisations  :    96
 total energy-change (2. order) :-0.2716320E-02  (-0.2112207E-04)
 number of electron      31.9999999 magnetization 
 augmentation part        5.3371184 magnetization 

 Broyden mixing:
  rms(total) = 0.22201E-01    rms(broyden)= 0.22201E-01
  rms(prec ) = 0.22522E-01
  weight for this iteration     100.00

 eigenvalues of (default mixing * dielectric matrix)
  average eigenvalue GAMMA=   1.5341
  2.5420  2.3563  1.5717  0.9791  0.8450  0.9107

 Free energy of the ion-electron system (eV)
  ---------------------------------------------------
  alpha Z        PSCENC =         0.07205883
  Ewald energy   TEWEN  =      1705.05883316
  -Hartree energ DENC   =     -3379.16944843
  -exchange      EXHF   =         0.00000000
  -V(xc)+E(xc)   XCENC  =       140.13258498
  PAW double counting   =      9644.12294260    -9664.66237570
  entropy T*S    EENTRO =        -0.00000000
  eigenvalues    EBANDS =      -513.46153315
  atomic energy  EATOM  =      2023.82507259
  Solvation  Ediel_sol  =         0.00000000
  ---------------------------------------------------
  free energy    TOTEN  =       -44.08186511 eV

  energy without entropy =      -44.08186511  energy(sigma->0) =      -44.08186511


--------------------------------------------------------------------------------------------------------




--------------------------------------- Iteration      1(  12)  ---------------------------------------


    POTLOK:  cpu time   14.7603: real time   14.7927
    SETDIJ:  cpu time    0.0488: real time    0.0488
     EDDAV:  cpu time   17.2924: real time   17.3246
       DOS:  cpu time    0.0024: real time    0.0024
    CHARGE:  cpu time    6.3528: real time    6.3686
    MIXING:  cpu time    0.4206: real time    0.4214
    --------------------------------------------
      LOOP:  cpu time   38.8773: real time   38.9585

 eigenvalue-minimisations  :    64
 total energy-change (2. order) :-0.3793922E-02  (-0.3783902E-04)
 number of electron      31.9999999 magnetization 
 augmentation part        5.3362709 magnetization 

 Broyden mixing:
  rms(total) = 0.36924E-02    rms(broyden)= 0.36924E-02
  rms(prec ) = 0.44654E-02
  weight for this iteration     100.00

 eigenvalues of (default mixing * dielectric matrix)
  average eigenvalue GAMMA=   1.4904
  2.7511  2.5075  1.6163  1.0106  0.8488  0.8488  0.8501

 Free energy of the ion-electron system (eV)
  ---------------------------------------------------
  alpha Z        PSCENC =         0.07205883
  Ewald energy   TEWEN  =      1705.05883316
  -Hartree energ DENC   =     -3379.80304264
  -exchange      EXHF   =         0.00000000
  -V(xc)+E(xc)   XCENC  =       140.14534351
  PAW double counting   =      9641.60803028    -9662.13516366
  entropy T*S    EENTRO =        -0.00000000
  eigenvalues    EBANDS =      -512.85679111
  atomic energy  EATOM  =      2023.82507259
  Solvation  Ediel_sol  =         0.00000000
  ---------------------------------------------------
  free energy    TOTEN  =       -44.08565904 eV

  energy without entropy =      -44.08565904  energy(sigma->0) =      -44.08565904


--------------------------------------------------------------------------------------------------------




--------------------------------------- Iteration      1(  13)  ---------------------------------------


    POTLOK:  cpu time   14.7463: real time   14.7718
    SETDIJ:  cpu time    0.0489: real time    0.0490
     EDDAV:  cpu time   22.9393: real time   22.9789
       DOS:  cpu time    0.0025: real time    0.0025
    CHARGE:  cpu time    6.4347: real time    6.4454
    MIXING:  cpu time    0.4193: real time    0.4201
    --------------------------------------------
      LOOP:  cpu time   44.5911: real time   44.6677

 eigenvalue-minimisations  :    96
 total energy-change (2. order) :-0.1777056E-02  (-0.8916674E-05)
 number of electron      31.9999999 magnetization 
 augmentation part        5.3360581 magnetization 

 Broyden mixing:
  rms(total) = 0.22986E-02    rms(broyden)= 0.22986E-02
  rms(prec ) = 0.30347E-02
  weight for this iteration     100.00

 eigenvalues of (default mixing * dielectric matrix)
  average eigenvalue GAMMA=   1.5000
  3.0218  2.5311  1.6508  1.2093  0.9850  0.9850  0.8488  0.7680

 Free energy of the ion-electron system (eV)
  ---------------------------------------------------
  alpha Z        PSCENC =         0.07205883
  Ewald energy   TEWEN  =      1705.05883316
  -Hartree energ DENC   =     -3380.05652703
  -exchange      EXHF   =         0.00000000
  -V(xc)+E(xc)   XCENC  =       140.14877067
  PAW double counting   =      9639.87857275    -9660.40331079
  entropy T*S    EENTRO =        -0.00000000
  eigenvalues    EBANDS =      -512.61090628
  atomic energy  EATOM  =      2023.82507259
  Solvation  Ediel_sol  =         0.00000000
  ---------------------------------------------------
  free energy    TOTEN  =       -44.08743609 eV

  energy without entropy =      -44.08743609  energy(sigma->0) =      -44.08743609


--------------------------------------------------------------------------------------------------------




--------------------------------------- Iteration      1(  14)  ---------------------------------------


    POTLOK:  cpu time   14.8217: real time   14.8466
    SETDIJ:  cpu time    0.0487: real time    0.0487
     EDDAV:  cpu time   22.9476: real time   22.9954
       DOS:  cpu time    0.0018: real time    0.0018
    CHARGE:  cpu time    6.3789: real time    6.3873
    MIXING:  cpu time    0.4419: real time    0.4428
    --------------------------------------------
      LOOP:  cpu time   44.6406: real time   44.7226

 eigenvalue-minimisations  :    96
 total energy-change (2. order) :-0.2198105E-02  (-0.1365707E-04)
 number of electron      31.9999999 magnetization 
 augmentation part        5.3360241 magnetization 

 Broyden mixing:
  rms(total) = 0.17741E-02    rms(broyden)= 0.17741E-02
  rms(prec ) = 0.22236E-02
  weight for this iteration     100.00

 eigenvalues of (default mixing * dielectric matrix)
  average eigenvalue GAMMA=   1.7049
  4.5102  2.5436  2.3507  1.5757  1.0755  0.8828  0.8828  0.7615  0.7615

 Free energy of the ion-electron system (eV)
  ---------------------------------------------------
  alpha Z        PSCENC =         0.07205883
  Ewald energy   TEWEN  =      1705.05883316
  -Hartree energ DENC   =     -3380.32932123
  -exchange      EXHF   =         0.00000000
  -V(xc)+E(xc)   XCENC  =       140.15044953
  PAW double counting   =      9638.27905900    -9658.80263262
  entropy T*S    EENTRO =        -0.00000000
  eigenvalues    EBANDS =      -512.34315346
  atomic energy  EATOM  =      2023.82507259
  Solvation  Ediel_sol  =         0.00000000
  ---------------------------------------------------
  free energy    TOTEN  =       -44.08963420 eV

  energy without entropy =      -44.08963420  energy(sigma->0) =      -44.08963420


--------------------------------------------------------------------------------------------------------




--------------------------------------- Iteration      1(  15)  ---------------------------------------


    POTLOK:  cpu time   14.7546: real time   14.7799
    SETDIJ:  cpu time    0.0487: real time    0.0488
     EDDAV:  cpu time   22.9544: real time   22.9987
       DOS:  cpu time    0.0002: real time    0.0002
    CHARGE:  cpu time    6.4655: real time    6.4742
    MIXING:  cpu time    0.4657: real time    0.4703
    --------------------------------------------
      LOOP:  cpu time   44.6892: real time   44.7720

 eigenvalue-minimisations  :    96
 total energy-change (2. order) :-0.2030086E-02  (-0.2735558E-04)
 number of electron      31.9999999 magnetization 
 augmentation part        5.3359214 magnetization 

 Broyden mixing:
  rms(total) = 0.98096E-03    rms(broyden)= 0.98096E-03
  rms(prec ) = 0.11763E-02
  weight for this iteration     100.00

 eigenvalues of (default mixing * dielectric matrix)
  average eigenvalue GAMMA=   1.7389
  5.0861  2.5115  2.5115  1.5418  1.3173  0.9946  0.9946  0.8654  0.8654  0.7011

 Free energy of the ion-electron system (eV)
  ---------------------------------------------------
  alpha Z        PSCENC =         0.07205883
  Ewald energy   TEWEN  =      1705.05883316
  -Hartree energ DENC   =     -3380.65639564
  -exchange      EXHF   =         0.00000000
  -V(xc)+E(xc)   XCENC  =       140.15239211
  PAW double counting   =      9637.93084563    -9658.45436305
  entropy T*S    EENTRO =        -0.00000000
  eigenvalues    EBANDS =      -512.02010792
  atomic energy  EATOM  =      2023.82507259
  Solvation  Ediel_sol  =         0.00000000
  ---------------------------------------------------
  free energy    TOTEN  =       -44.09166428 eV

  energy without entropy =      -44.09166428  energy(sigma->0) =      -44.09166428


--------------------------------------------------------------------------------------------------------




--------------------------------------- Iteration      1(  16)  ---------------------------------------


    POTLOK:  cpu time   14.7247: real time   14.7500
    SETDIJ:  cpu time    0.0489: real time    0.0489
     EDDAV:  cpu time   28.4984: real time   28.5479
       DOS:  cpu time    0.0071: real time    0.0071
    CHARGE:  cpu time    6.4087: real time    6.4176
    MIXING:  cpu time    0.4911: real time    0.4921
    --------------------------------------------
      LOOP:  cpu time   50.1788: real time   50.2636

 eigenvalue-minimisations  :   128
 total energy-change (2. order) :-0.6508453E-03  (-0.1830808E-05)
 number of electron      31.9999999 magnetization 
 augmentation part        5.3358019 magnetization 

 Broyden mixing:
  rms(total) = 0.63584E-03    rms(broyden)= 0.63584E-03
  rms(prec ) = 0.78274E-03
  weight for this iteration     100.00

 eigenvalues of (default mixing * dielectric matrix)
  average eigenvalue GAMMA=   1.8609
  5.7651  3.0993  2.4608  2.2351  1.5055  1.1755  0.9157  0.9157  0.8456  0.8456
  0.7062

 Free energy of the ion-electron system (eV)
  ---------------------------------------------------
  alpha Z        PSCENC =         0.07205883
  Ewald energy   TEWEN  =      1705.05883316
  -Hartree energ DENC   =     -3380.72863706
  -exchange      EXHF   =         0.00000000
  -V(xc)+E(xc)   XCENC  =       140.15244716
  PAW double counting   =      9638.74679313    -9659.27052840
  entropy T*S    EENTRO =        -0.00000000
  eigenvalues    EBANDS =      -511.94835455
  atomic energy  EATOM  =      2023.82507259
  Solvation  Ediel_sol  =         0.00000000
  ---------------------------------------------------
  free energy    TOTEN  =       -44.09231513 eV

  energy without entropy =      -44.09231513  energy(sigma->0) =      -44.09231513


--------------------------------------------------------------------------------------------------------




--------------------------------------- Iteration      1(  17)  ---------------------------------------


    POTLOK:  cpu time   14.8108: real time   14.8366
    SETDIJ:  cpu time    0.0487: real time    0.0488
     EDDAV:  cpu time   22.8200: real time   22.8604
       DOS:  cpu time    0.0056: real time    0.0056
    CHARGE:  cpu time    6.3539: real time    6.3634
    MIXING:  cpu time    0.5366: real time    0.5376
    --------------------------------------------
      LOOP:  cpu time   44.5755: real time   44.6522

 eigenvalue-minimisations  :    96
 total energy-change (2. order) :-0.7341595E-03  (-0.2869278E-05)
 number of electron      31.9999999 magnetization 
 augmentation part        5.3357936 magnetization 

 Broyden mixing:
  rms(total) = 0.47736E-03    rms(broyden)= 0.47736E-03
  rms(prec ) = 0.53063E-03
  weight for this iteration     100.00

 eigenvalues of (default mixing * dielectric matrix)
  average eigenvalue GAMMA=   1.9273
  6.7213  3.3245  2.5038  2.3467  1.6073  1.2632  1.0074  1.0074  0.9163  0.8663
  0.8663  0.6974

 Free energy of the ion-electron system (eV)
  ---------------------------------------------------
  alpha Z        PSCENC =         0.07205883
  Ewald energy   TEWEN  =      1705.05883316
  -Hartree energ DENC   =     -3380.77918938
  -exchange      EXHF   =         0.00000000
  -V(xc)+E(xc)   XCENC  =       140.15125643
  PAW double counting   =      9638.84130592    -9659.36465173
  entropy T*S    EENTRO =        -0.00000000
  eigenvalues    EBANDS =      -511.89773512
  atomic energy  EATOM  =      2023.82507259
  Solvation  Ediel_sol  =         0.00000000
  ---------------------------------------------------
  free energy    TOTEN  =       -44.09304929 eV

  energy without entropy =      -44.09304929  energy(sigma->0) =      -44.09304929


--------------------------------------------------------------------------------------------------------




--------------------------------------- Iteration      1(  18)  ---------------------------------------


    POTLOK:  cpu time   14.7087: real time   14.7346
    SETDIJ:  cpu time    0.0487: real time    0.0487
     EDDAV:  cpu time   28.4552: real time   28.5058
       DOS:  cpu time    0.0069: real time    0.0069
    CHARGE:  cpu time    6.4708: real time    6.4801
    MIXING:  cpu time    0.5505: real time    0.5516
    --------------------------------------------
      LOOP:  cpu time   50.2408: real time   50.3277

 eigenvalue-minimisations  :   128
 total energy-change (2. order) :-0.2361619E-03  (-0.3565491E-06)
 number of electron      31.9999999 magnetization 
 augmentation part        5.3357645 magnetization 

 Broyden mixing:
  rms(total) = 0.24451E-03    rms(broyden)= 0.24451E-03
  rms(prec ) = 0.28747E-03
  weight for this iteration     100.00

 eigenvalues of (default mixing * dielectric matrix)
  average eigenvalue GAMMA=   2.0039
  7.5270  3.8914  2.5449  2.5168  1.8344  1.4757  1.0584  1.0584  0.8743  0.8743
  0.8859  0.7979  0.7116

 Free energy of the ion-electron system (eV)
  ---------------------------------------------------
  alpha Z        PSCENC =         0.07205883
  Ewald energy   TEWEN  =      1705.05883316
  -Hartree energ DENC   =     -3380.80459838
  -exchange      EXHF   =         0.00000000
  -V(xc)+E(xc)   XCENC  =       140.15119698
  PAW double counting   =      9638.72851420    -9659.25177227
  entropy T*S    EENTRO =        -0.00000000
  eigenvalues    EBANDS =      -511.87259056
  atomic energy  EATOM  =      2023.82507259
  Solvation  Ediel_sol  =         0.00000000
  ---------------------------------------------------
  free energy    TOTEN  =       -44.09328545 eV

  energy without entropy =      -44.09328545  energy(sigma->0) =      -44.09328545


--------------------------------------------------------------------------------------------------------




--------------------------------------- Iteration      1(  19)  ---------------------------------------


    POTLOK:  cpu time   14.7074: real time   14.7324
    SETDIJ:  cpu time    0.0489: real time    0.0489
     EDDAV:  cpu time   28.4291: real time   28.4786
       DOS:  cpu time    0.0087: real time    0.0087
    CHARGE:  cpu time    6.3975: real time    6.4063
    MIXING:  cpu time    0.5819: real time    0.5830
    --------------------------------------------
      LOOP:  cpu time   50.1735: real time   50.2579

 eigenvalue-minimisations  :   128
 total energy-change (2. order) :-0.1903697E-03  (-0.3892380E-06)
 number of electron      31.9999999 magnetization 
 augmentation part        5.3357763 magnetization 

 Broyden mixing:
  rms(total) = 0.12179E-03    rms(broyden)= 0.12179E-03
  rms(prec ) = 0.14704E-03
  weight for this iteration     100.00

 eigenvalues of (default mixing * dielectric matrix)
  average eigenvalue GAMMA=   2.0490
  7.9871  4.3377  2.7959  2.4903  2.1545  1.5099  1.3186  0.9637  0.9637  0.7003
  0.8873  0.8873  0.8794  0.8103

 Free energy of the ion-electron system (eV)
  ---------------------------------------------------
  alpha Z        PSCENC =         0.07205883
  Ewald energy   TEWEN  =      1705.05883316
  -Hartree energ DENC   =     -3380.81019948
  -exchange      EXHF   =         0.00000000
  -V(xc)+E(xc)   XCENC  =       140.15072777
  PAW double counting   =      9638.49255988    -9659.01571892
  entropy T*S    EENTRO =        -0.00000000
  eigenvalues    EBANDS =      -511.86680965
  atomic energy  EATOM  =      2023.82507259
  Solvation  Ediel_sol  =         0.00000000
  ---------------------------------------------------
  free energy    TOTEN  =       -44.09347582 eV

  energy without entropy =      -44.09347582  energy(sigma->0) =      -44.09347582


--------------------------------------------------------------------------------------------------------




--------------------------------------- Iteration      1(  20)  ---------------------------------------


    POTLOK:  cpu time   14.7442: real time   14.7699
    SETDIJ:  cpu time    0.0487: real time    0.0488
     EDDAV:  cpu time   28.3944: real time   28.4449
       DOS:  cpu time    0.0079: real time    0.0079
    CHARGE:  cpu time    6.4339: real time    6.4427
    MIXING:  cpu time    0.6155: real time    0.6166
    --------------------------------------------
      LOOP:  cpu time   50.2446: real time   50.3309

 eigenvalue-minimisations  :   128
 total energy-change (2. order) :-0.7712730E-04  (-0.8347544E-07)
 number of electron      31.9999999 magnetization 
 augmentation part        5.3357872 magnetization 

 Broyden mixing:
  rms(total) = 0.94441E-04    rms(broyden)= 0.94441E-04
  rms(prec ) = 0.10748E-03
  weight for this iteration     100.00

 eigenvalues of (default mixing * dielectric matrix)
  average eigenvalue GAMMA=   2.0972
  8.2825  4.8358  3.1814  2.4214  2.4214  1.6222  1.6222  1.0755  1.0755  0.9060
  0.9060  0.8475  0.8475  0.7064  0.7064

 Free energy of the ion-electron system (eV)
  ---------------------------------------------------
  alpha Z        PSCENC =         0.07205883
  Ewald energy   TEWEN  =      1705.05883316
  -Hartree energ DENC   =     -3380.81117701
  -exchange      EXHF   =         0.00000000
  -V(xc)+E(xc)   XCENC  =       140.15053889
  PAW double counting   =      9638.41773819    -9658.94090307
  entropy T*S    EENTRO =        -0.00000000
  eigenvalues    EBANDS =      -511.86571453
  atomic energy  EATOM  =      2023.82507259
  Solvation  Ediel_sol  =         0.00000000
  ---------------------------------------------------
  free energy    TOTEN  =       -44.09355295 eV

  energy without entropy =      -44.09355295  energy(sigma->0) =      -44.09355295


--------------------------------------------------------------------------------------------------------




--------------------------------------- Iteration      1(  21)  ---------------------------------------


    POTLOK:  cpu time   14.7204: real time   14.7466
    SETDIJ:  cpu time    0.0488: real time    0.0488
     EDDAV:  cpu time   28.4219: real time   28.4715
       DOS:  cpu time    0.0002: real time    0.0002
    CHARGE:  cpu time    6.4723: real time    6.4810
    MIXING:  cpu time    0.6458: real time    0.6470
    --------------------------------------------
      LOOP:  cpu time   50.3094: real time   50.3953

 eigenvalue-minimisations  :   128
 total energy-change (2. order) :-0.5443348E-04  (-0.5060239E-07)
 number of electron      31.9999999 magnetization 
 augmentation part        5.3357863 magnetization 

 Broyden mixing:
  rms(total) = 0.69825E-04    rms(broyden)= 0.69825E-04
  rms(prec ) = 0.74756E-04
  weight for this iteration     100.00

 eigenvalues of (default mixing * dielectric matrix)
  average eigenvalue GAMMA=   2.1551
  8.9207  5.5224  3.3385  2.5096  2.5096  2.0909  1.5283  1.1928  1.0128  0.9356
  0.9356  0.9067  0.8547  0.8547  0.7027  0.6660

 Free energy of the ion-electron system (eV)
  ---------------------------------------------------
  alpha Z        PSCENC =         0.07205883
  Ewald energy   TEWEN  =      1705.05883316
  -Hartree energ DENC   =     -3380.81350526
  -exchange      EXHF   =         0.00000000
  -V(xc)+E(xc)   XCENC  =       140.15050560
  PAW double counting   =      9638.45486009    -9658.97806620
  entropy T*S    EENTRO =        -0.00000000
  eigenvalues    EBANDS =      -511.86336621
  atomic energy  EATOM  =      2023.82507259
  Solvation  Ediel_sol  =         0.00000000
  ---------------------------------------------------
  free energy    TOTEN  =       -44.09360738 eV

  energy without entropy =      -44.09360738  energy(sigma->0) =      -44.09360738


--------------------------------------------------------------------------------------------------------




--------------------------------------- Iteration      1(  22)  ---------------------------------------


    POTLOK:  cpu time   14.7016: real time   14.7274
    SETDIJ:  cpu time    0.0489: real time    0.0489
     EDDAV:  cpu time   28.3448: real time   28.3944
       DOS:  cpu time    0.0079: real time    0.0079
    CHARGE:  cpu time    6.4295: real time    6.4386
    MIXING:  cpu time    0.6940: real time    0.6952
    --------------------------------------------
      LOOP:  cpu time   50.2267: real time   50.3124

 eigenvalue-minimisations  :   128
 total energy-change (2. order) :-0.1991764E-04  (-0.1165008E-07)
 number of electron      31.9999999 magnetization 
 augmentation part        5.3357822 magnetization 

 Broyden mixing:
  rms(total) = 0.26771E-04    rms(broyden)= 0.26771E-04
  rms(prec ) = 0.31173E-04
  weight for this iteration     100.00

 eigenvalues of (default mixing * dielectric matrix)
  average eigenvalue GAMMA=   2.1548
  9.0265  5.6776  3.5627  2.6445  2.4728  2.1097  1.5767  1.5767  1.0588  1.0588
  0.9370  0.9370  0.8964  0.8558  0.8558  0.7052  0.6801

 Free energy of the ion-electron system (eV)
  ---------------------------------------------------
  alpha Z        PSCENC =         0.07205883
  Ewald energy   TEWEN  =      1705.05883316
  -Hartree energ DENC   =     -3380.81474687
  -exchange      EXHF   =         0.00000000
  -V(xc)+E(xc)   XCENC  =       140.15049174
  PAW double counting   =      9638.48050924    -9659.00372663
  entropy T*S    EENTRO =        -0.00000000
  eigenvalues    EBANDS =      -511.86211937
  atomic energy  EATOM  =      2023.82507259
  Solvation  Ediel_sol  =         0.00000000
  ---------------------------------------------------
  free energy    TOTEN  =       -44.09362730 eV

  energy without entropy =      -44.09362730  energy(sigma->0) =      -44.09362730


--------------------------------------------------------------------------------------------------------




--------------------------------------- Iteration      1(  23)  ---------------------------------------


    POTLOK:  cpu time   14.7296: real time   14.7552
    SETDIJ:  cpu time    0.0488: real time    0.0488
     EDDAV:  cpu time   28.3864: real time   28.4368
       DOS:  cpu time    0.0056: real time    0.0057
    CHARGE:  cpu time    6.3738: real time    6.3833
    MIXING:  cpu time    0.7237: real time    0.7251
    --------------------------------------------
      LOOP:  cpu time   50.2680: real time   50.3549

 eigenvalue-minimisations  :   128
 total energy-change (2. order) :-0.1133230E-04  (-0.6551307E-08)
 number of electron      31.9999999 magnetization 
 augmentation part        5.3357815 magnetization 

 Broyden mixing:
  rms(total) = 0.16435E-04    rms(broyden)= 0.16435E-04
  rms(prec ) = 0.18953E-04
  weight for this iteration     100.00

 eigenvalues of (default mixing * dielectric matrix)
  average eigenvalue GAMMA=   2.2684
  9.4509  6.1616  4.3712  3.0505  2.4947  2.4947  2.1293  1.5349  1.1940  1.0424
  0.9687  0.9687  0.9326  0.9326  0.8575  0.8575  0.7043  0.6849

 Free energy of the ion-electron system (eV)
  ---------------------------------------------------
  alpha Z        PSCENC =         0.07205883
  Ewald energy   TEWEN  =      1705.05883316
  -Hartree energ DENC   =     -3380.81558983
  -exchange      EXHF   =         0.00000000
  -V(xc)+E(xc)   XCENC  =       140.15050018
  PAW double counting   =      9638.48890563    -9659.01211410
  entropy T*S    EENTRO =        -0.00000000
  eigenvalues    EBANDS =      -511.86130510
  atomic energy  EATOM  =      2023.82507259
  Solvation  Ediel_sol  =         0.00000000
  ---------------------------------------------------
  free energy    TOTEN  =       -44.09363863 eV

  energy without entropy =      -44.09363863  energy(sigma->0) =      -44.09363863


--------------------------------------------------------------------------------------------------------




--------------------------------------- Iteration      1(  24)  ---------------------------------------


    POTLOK:  cpu time   14.6856: real time   14.7113
    SETDIJ:  cpu time    0.0487: real time    0.0487
     EDDAV:  cpu time   22.7527: real time   22.7930
       DOS:  cpu time    0.0002: real time    0.0002
    CHARGE:  cpu time    6.4077: real time    6.4165
    MIXING:  cpu time    0.7659: real time    0.7673
    --------------------------------------------
      LOOP:  cpu time   44.6609: real time   44.7370

 eigenvalue-minimisations  :    96
 total energy-change (2. order) :-0.7803307E-05  (-0.6484939E-08)
 number of electron      31.9999999 magnetization 
 augmentation part        5.3357809 magnetization 

 Broyden mixing:
  rms(total) = 0.89201E-05    rms(broyden)= 0.89201E-05
  rms(prec ) = 0.97278E-05
  weight for this iteration     100.00

 eigenvalues of (default mixing * dielectric matrix)
  average eigenvalue GAMMA=   2.2438
  9.5149  6.4645  4.5747  3.1253  2.4978  2.4978  2.0896  1.4944  1.4944  1.0307
  1.0307  0.9208  0.9208  0.9530  0.9189  0.8521  0.8521  0.7045  0.6948

 Free energy of the ion-electron system (eV)
  ---------------------------------------------------
  alpha Z        PSCENC =         0.07205883
  Ewald energy   TEWEN  =      1705.05883316
  -Hartree energ DENC   =     -3380.81637759
  -exchange      EXHF   =         0.00000000
  -V(xc)+E(xc)   XCENC  =       140.15051001
  PAW double counting   =      9638.48695047    -9659.01015149
  entropy T*S    EENTRO =        -0.00000000
  eigenvalues    EBANDS =      -511.86054241
  atomic energy  EATOM  =      2023.82507259
  Solvation  Ediel_sol  =         0.00000000
  ---------------------------------------------------
  free energy    TOTEN  =       -44.09364643 eV

  energy without entropy =      -44.09364643  energy(sigma->0) =      -44.09364643


--------------------------------------------------------------------------------------------------------




--------------------------------------- Iteration      1(  25)  ---------------------------------------


    POTLOK:  cpu time   14.6937: real time   14.7200
    SETDIJ:  cpu time    0.0488: real time    0.0488
     EDDAV:  cpu time   28.2764: real time   28.3271
       DOS:  cpu time    0.0051: real time    0.0051
    CHARGE:  cpu time    6.4133: real time    6.4224
    MIXING:  cpu time    0.8080: real time    0.8095
    --------------------------------------------
      LOOP:  cpu time   50.2453: real time   50.3327

 eigenvalue-minimisations  :   128
 total energy-change (2. order) :-0.1317396E-05  (-0.3821622E-08)
 number of electron      31.9999999 magnetization 
 augmentation part        5.3357811 magnetization 

 Broyden mixing:
  rms(total) = 0.50325E-05    rms(broyden)= 0.50325E-05
  rms(prec ) = 0.57476E-05
  weight for this iteration     100.00

 eigenvalues of (default mixing * dielectric matrix)
  average eigenvalue GAMMA=   2.2511
  9.6347  6.6798  4.6915  3.3082  2.4808  2.4808  2.1409  2.1409  1.5507  1.0977
  1.0977  0.9325  0.9325  0.9620  0.8934  0.8934  0.8522  0.8522  0.6962  0.7034

 Free energy of the ion-electron system (eV)
  ---------------------------------------------------
  alpha Z        PSCENC =         0.07205883
  Ewald energy   TEWEN  =      1705.05883316
  -Hartree energ DENC   =     -3380.81631583
  -exchange      EXHF   =         0.00000000
  -V(xc)+E(xc)   XCENC  =       140.15050705
  PAW double counting   =      9638.49056549    -9659.01376787
  entropy T*S    EENTRO =        -0.00000000
  eigenvalues    EBANDS =      -511.86060117
  atomic energy  EATOM  =      2023.82507259
  Solvation  Ediel_sol  =         0.00000000
  ---------------------------------------------------
  free energy    TOTEN  =       -44.09364775 eV

  energy without entropy =      -44.09364775  energy(sigma->0) =      -44.09364775


--------------------------------------------------------------------------------------------------------




--------------------------------------- Iteration      1(  26)  ---------------------------------------


    POTLOK:  cpu time   14.6788: real time   14.7090
    SETDIJ:  cpu time    0.0487: real time    0.0488
     EDDAV:  cpu time   22.7971: real time   22.8367
       DOS:  cpu time    0.0003: real time    0.0003
    CHARGE:  cpu time    6.4650: real time    6.4738
    MIXING:  cpu time    0.8505: real time    0.8522
    --------------------------------------------
      LOOP:  cpu time   44.8404: real time   44.9207

 eigenvalue-minimisations  :    96
 total energy-change (2. order) :-0.1311440E-05  (-0.3665566E-08)
 number of electron      31.9999999 magnetization 
 augmentation part        5.3357815 magnetization 

 Broyden mixing:
  rms(total) = 0.23137E-05    rms(broyden)= 0.23137E-05
  rms(prec ) = 0.28182E-05
  weight for this iteration     100.00

 eigenvalues of (default mixing * dielectric matrix)
  average eigenvalue GAMMA=   2.3086
  9.7257  7.0050  5.1611  3.7633  3.0080  2.4864  2.4864  2.1219  1.5222  1.3893
  1.0131  1.0131  0.9981  0.9151  0.9151  0.9216  0.9216  0.8574  0.8574  0.7046
  0.6935

 Free energy of the ion-electron system (eV)
  ---------------------------------------------------
  alpha Z        PSCENC =         0.07205883
  Ewald energy   TEWEN  =      1705.05883316
  -Hartree energ DENC   =     -3380.81617017
  -exchange      EXHF   =         0.00000000
  -V(xc)+E(xc)   XCENC  =       140.15049957
  PAW double counting   =      9638.48578988    -9659.00899407
  entropy T*S    EENTRO =        -0.00000000
  eigenvalues    EBANDS =      -511.86073886
  atomic energy  EATOM  =      2023.82507259
  Solvation  Ediel_sol  =         0.00000000
  ---------------------------------------------------
  free energy    TOTEN  =       -44.09364906 eV

  energy without entropy =      -44.09364906  energy(sigma->0) =      -44.09364906


--------------------------------------------------------------------------------------------------------




--------------------------------------- Iteration      1(  27)  ---------------------------------------


    POTLOK:  cpu time   14.7294: real time   14.7556
    SETDIJ:  cpu time    0.0487: real time    0.0488
     EDDAV:  cpu time   17.1109: real time   17.1407
       DOS:  cpu time    0.0039: real time    0.0039
    CHARGE:  cpu time    6.4332: real time    6.4434
    MIXING:  cpu time    0.9864: real time    0.9883
    --------------------------------------------
      LOOP:  cpu time   39.3126: real time   39.3807

 eigenvalue-minimisations  :    64
 total energy-change (2. order) :-0.7236531E-06  (-0.3380688E-08)
 number of electron      31.9999999 magnetization 
 augmentation part        5.3357818 magnetization 

 Broyden mixing:
  rms(total) = 0.22770E-05    rms(broyden)= 0.22770E-05
  rms(prec ) = 0.24164E-05
  weight for this iteration     100.00

 eigenvalues of (default mixing * dielectric matrix)
  average eigenvalue GAMMA=   2.2997
  9.7639  7.1198  5.2836  3.9776  3.0409  2.4769  2.4769  1.9900  1.9900  1.5511
  1.0906  1.0906  1.0180  0.9508  0.9508  0.9127  0.9127  0.8917  0.8533  0.8533
  0.7049  0.6933

 Free energy of the ion-electron system (eV)
  ---------------------------------------------------
  alpha Z        PSCENC =         0.07205883
  Ewald energy   TEWEN  =      1705.05883316
  -Hartree energ DENC   =     -3380.81608220
  -exchange      EXHF   =         0.00000000
  -V(xc)+E(xc)   XCENC  =       140.15049589
  PAW double counting   =      9638.48463803    -9659.00784201
  entropy T*S    EENTRO =        -0.00000000
  eigenvalues    EBANDS =      -511.86082408
  atomic energy  EATOM  =      2023.82507259
  Solvation  Ediel_sol  =         0.00000000
  ---------------------------------------------------
  free energy    TOTEN  =       -44.09364978 eV

  energy without entropy =      -44.09364978  energy(sigma->0) =      -44.09364978


--------------------------------------------------------------------------------------------------------




--------------------------------------- Iteration      1(  28)  ---------------------------------------


    POTLOK:  cpu time   14.7567: real time   14.7825
    SETDIJ:  cpu time    0.0489: real time    0.0489
     EDDAV:  cpu time   28.3246: real time   28.3736
       DOS:  cpu time    0.0069: real time    0.0069
    CHARGE:  cpu time    6.4853: real time    6.4941
    MIXING:  cpu time    0.9420: real time    0.9438
    --------------------------------------------
      LOOP:  cpu time   50.5643: real time   50.6498

 eigenvalue-minimisations  :   128
 total energy-change (2. order) :-0.2259876E-06  (-0.3123677E-08)
 number of electron      31.9999999 magnetization 
 augmentation part        5.3357815 magnetization 

 Broyden mixing:
  rms(total) = 0.10468E-05    rms(broyden)= 0.10468E-05
  rms(prec ) = 0.11608E-05
  weight for this iteration     100.00

 eigenvalues of (default mixing * dielectric matrix)
  average eigenvalue GAMMA=   2.2980
  9.7693  7.2824  5.4791  4.1180  3.0522  2.4919  2.4733  2.4733  2.2094  1.5408
  1.2538  1.0499  1.0499  0.9512  0.9512  0.8871  0.8871  0.9120  0.9120  0.8562
  0.8562  0.7048  0.6926

 Free energy of the ion-electron system (eV)
  ---------------------------------------------------
  alpha Z        PSCENC =         0.07205883
  Ewald energy   TEWEN  =      1705.05883316
  -Hartree energ DENC   =     -3380.81607665
  -exchange      EXHF   =         0.00000000
  -V(xc)+E(xc)   XCENC  =       140.15049650
  PAW double counting   =      9638.48494924    -9659.00815361
  entropy T*S    EENTRO =        -0.00000000
  eigenvalues    EBANDS =      -511.86083008
  atomic energy  EATOM  =      2023.82507259
  Solvation  Ediel_sol  =         0.00000000
  ---------------------------------------------------
  free energy    TOTEN  =       -44.09365001 eV

  energy without entropy =      -44.09365001  energy(sigma->0) =      -44.09365001


--------------------------------------------------------------------------------------------------------




--------------------------------------- Iteration      1(  29)  ---------------------------------------


    POTLOK:  cpu time   14.7660: real time   14.7919
    SETDIJ:  cpu time    0.0489: real time    0.0490
     EDDAV:  cpu time   28.3129: real time   28.3686
       DOS:  cpu time    0.0073: real time    0.0073
    CHARGE:  cpu time    6.3935: real time    6.4023
    MIXING:  cpu time    0.9938: real time    0.9955
    --------------------------------------------
      LOOP:  cpu time   50.5223: real time   50.6145

 eigenvalue-minimisations  :   128
 total energy-change (2. order) :-0.1158451E-06  (-0.3044018E-08)
 number of electron      31.9999999 magnetization 
 augmentation part        5.3357815 magnetization 

 Broyden mixing:
  rms(total) = 0.81745E-06    rms(broyden)= 0.81745E-06
  rms(prec ) = 0.87628E-06
  weight for this iteration     100.00

 eigenvalues of (default mixing * dielectric matrix)
  average eigenvalue GAMMA=   2.3092
  9.7804  7.5889  5.7780  4.4066  3.2291  2.8134  2.4591  2.4591  2.1382  1.5196
  1.4582  1.0631  1.0631  1.0422  0.9370  0.9370  0.8999  0.8999  0.9211  0.9211
  0.8547  0.8547  0.7046  0.6928

 Free energy of the ion-electron system (eV)
  ---------------------------------------------------
  alpha Z        PSCENC =         0.07205883
  Ewald energy   TEWEN  =      1705.05883316
  -Hartree energ DENC   =     -3380.81607262
  -exchange      EXHF   =         0.00000000
  -V(xc)+E(xc)   XCENC  =       140.15049693
  PAW double counting   =      9638.48599045    -9659.00919446
  entropy T*S    EENTRO =        -0.00000000
  eigenvalues    EBANDS =      -511.86083500
  atomic energy  EATOM  =      2023.82507259
  Solvation  Ediel_sol  =         0.00000000
  ---------------------------------------------------
  free energy    TOTEN  =       -44.09365013 eV

  energy without entropy =      -44.09365013  energy(sigma->0) =      -44.09365013


--------------------------------------------------------------------------------------------------------




--------------------------------------- Iteration      1(  30)  ---------------------------------------


    POTLOK:  cpu time   14.7288: real time   14.7553
    SETDIJ:  cpu time    0.0487: real time    0.0488
     EDDAV:  cpu time   28.2614: real time   28.3112
       DOS:  cpu time    0.0014: real time    0.0014
    --------------------------------------------
      LOOP:  cpu time   43.0403: real time   43.1166

 eigenvalue-minimisations  :   128
 total energy-change (2. order) :-0.5865877E-07  (-0.3000874E-08)
 number of electron      31.9999999 magnetization 
 augmentation part        5.3357815 magnetization 

 Free energy of the ion-electron system (eV)
  ---------------------------------------------------
  alpha Z        PSCENC =         0.07205883
  Ewald energy   TEWEN  =      1705.05883316
  -Hartree energ DENC   =     -3380.81606104
  -exchange      EXHF   =         0.00000000
  -V(xc)+E(xc)   XCENC  =       140.15049689
  PAW double counting   =      9638.48617115    -9659.00937540
  entropy T*S    EENTRO =        -0.00000000
  eigenvalues    EBANDS =      -511.86084637
  atomic energy  EATOM  =      2023.82507259
  Solvation  Ediel_sol  =         0.00000000
  ---------------------------------------------------
  free energy    TOTEN  =       -44.09365019 eV

  energy without entropy =      -44.09365019  energy(sigma->0) =      -44.09365019


--------------------------------------------------------------------------------------------------------




 average (electrostatic) potential at core
  the test charge radii are     0.8471  0.8742
  (the norm of the test charge is              1.0000)
       1 -89.0685       2 -88.9406       3 -92.9800       4 -92.9659       5 -92.8447
       6 -92.8448
 
 
 
 E-fermi :  -8.9522     XC(G=0):  -0.0414     alpha+bet : -0.0126


 k-point     1 :       0.0000    0.0000    0.0000
  band No.  band energies     occupation 
      1     -29.5743      2.00000
      2     -29.4466      2.00000
      3     -28.5144      2.00000
      4     -28.3868      2.00000
      5     -13.7919      2.00000
      6     -13.6614      2.00000
      7     -12.8625      2.00000
      8     -12.8613      2.00000
      9     -12.7372      2.00000
     10     -12.7326      2.00000
     11     -12.4634      2.00000
     12     -12.3341      2.00000
     13      -9.2052      2.00000
     14      -9.2042      2.00000
     15      -9.0793      2.00000
     16      -9.0752      2.00000
     17      -1.2231      0.00000
     18      -0.8308      0.00000
     19      -0.7726      0.00000
     20      -0.7704      0.00000
     21      -0.6451      0.00000
     22      -0.6389      0.00000
     23       0.0084      0.00000
     24       0.1090      0.00000
     25       0.1143      0.00000
     26       0.1237      0.00000
     27       0.1249      0.00000
     28       0.1312      0.00000
     29       0.1497      0.00000
     30       0.2041      0.00000
     31       0.2132      0.00000
     32       0.2444      0.00000


--------------------------------------------------------------------------------------------------------


 soft charge-density along one line, spin component            1
         0         1         2         3         4         5         6         7         8         9
 total charge-density along one line
 
 pseudopotential strength for first ion, spin component:            1
 20.409  24.024  -0.000   0.000   0.000  -0.000   0.000   0.000
 24.024  28.282  -0.000   0.000   0.000  -0.000   0.000   0.000
 -0.000  -0.000  -3.789   0.000   0.000  -4.737   0.000   0.000
  0.000   0.000   0.000  -3.453  -0.000   0.000  -4.283  -0.000
  0.000   0.000   0.000  -0.000  -3.453   0.000  -0.000  -4.283
 -0.000  -0.000  -4.737   0.000   0.000  -5.855   0.000   0.000
  0.000   0.000   0.000  -4.283  -0.000   0.000  -5.242  -0.000
  0.000   0.000   0.000  -0.000  -4.283   0.000  -0.000  -5.242
 total augmentation occupancy for first ion, spin component:            1
 27.163 -19.370   0.002  -0.000   0.000  -0.000   0.000   0.000
-19.370  14.432  -0.001   0.000  -0.000  -0.001  -0.000  -0.000
  0.002  -0.001  27.323  -0.000  -0.000 -16.552   0.000   0.000
 -0.000   0.000  -0.000   5.723   0.000   0.000  -2.576  -0.000
  0.000  -0.000  -0.000   0.000   5.724  -0.000  -0.000  -2.576
 -0.000  -0.001 -16.552   0.000  -0.000  10.180  -0.000  -0.000
  0.000  -0.000   0.000  -2.576  -0.000  -0.000   1.159   0.000
  0.000  -0.000   0.000  -0.000  -2.576  -0.000   0.000   1.159


------------------------ aborting loop because EDIFF is reached ----------------------------------------



 DIPCOR: dipole corrections for dipol
 direction  1 min pos   355, direction  2 min pos   398, direction  3 min pos   431,
 dipolmoment           0.000003      0.012895     -0.000037 electrons x Angstroem
 Tr[quadrupol]        17.233176

 energy correction for charged system         0.000000 eV
 dipol+quadrupol energy correction            0.000000 eV
 added-field ion interaction          0.000000 eV  (added to PSCEN)

 
  *************** adding dipol energy to TOTEN NOW **************** 
    CHARGE:  cpu time    6.4401: real time    6.4488
    FORLOC:  cpu time    0.4892: real time    0.4900
    FORNL :  cpu time    0.6800: real time    0.6812
    STRESS:  cpu time   15.8814: real time   15.9091
    FORHAR:  cpu time    3.5702: real time    3.5768
    MIXING:  cpu time    1.0460: real time    1.0480
    OFIELD:  cpu time    0.0001: real time    0.0001

  Hirshfeld charges:
            ion         q(e)     
   ------------------------------
      1     C           0.300
      2     C           0.298
      3     O          -0.150
      4     O          -0.148
      5     O          -0.150
      6     O          -0.150

  Hirshfeld-I charges:
            ion         q(e)        dq(e)    
   ------------------------------------------
      1     C           0.859     -0.475E-04
      2     C           0.858     -0.449E-04
      3     O          -0.433      0.240E-04
      4     O          -0.427      0.237E-04
      5     O          -0.429      0.223E-04
      6     O          -0.429      0.223E-04

   Hirshfeld-I converged in  15 cycles. Convergence criterion |dq|< 0.500E-04 e

  Atomic reference data used in the T-S method for vdW correction:
            C6at              R0at           ALPHAat      REFSTATE
            (au)              (au)            (au)                
   ---------------------------------------------------------------
   C          46.600          3.590         12.000         0
   O          15.600          3.194          5.400         0

  Tkatchenko/Scheffler method for vdW energy calculation
  ---------------------------------------------------------------------------------------------

  Parameters of vdW forcefield:
            C6ts              R0ts           ALPHAts        RELVOL
            (au)              (au)            (au)                
   ---------------------------------------------------------------
   C           8.861          2.723          5.233          0.43605418
   C           8.880          2.724          5.238          0.43652039
   O          19.015          3.301          5.962          1.10404015
   O          18.602          3.289          5.897          1.09198433
   O          18.730          3.292          5.917          1.09572556
   O          18.730          3.292          5.917          1.09572081

  vdW correction parametrized for the method pbe       

  IVDW =  21
  VDW_RADIUS =    50.000 A
  VDW_IDAMPF =  0
  VDW_S6 =     1.000
  VDW_SR =     0.950
  VDW_D =    20.000
  LVDW_ONECELL = F F F
  LVDW_SAMETYPE T T
  LVDW_EWALD = F

  Number of pair interactions contributing to vdW energy:     321
  Edisp (eV):   -0.00492
    FORVDW:  cpu time   99.2507: real time   99.3134

  FORCE on cell =-STRESS in cart. coord.  units (eV):
  Direction    XX          YY          ZZ          XY          YZ          ZX
  --------------------------------------------------------------------------------------
  Alpha Z     0.07206     0.07206     0.07206
  Ewald    -202.04819  1271.80608   635.30172    -0.10398    -4.98584   -10.87607
  Hartree   648.13474  1669.99889  1062.68239    -0.13755    -1.83114    -5.37011
  E(xc)    -148.92916  -146.76145  -146.76148     0.00021    -0.01642    -0.02822
  Local   -1138.29248 -3556.20239 -2312.37589     0.24925     6.22725    15.23310
  n-local   117.65904   105.64621   105.64827    -0.00119     0.09092     0.15637
  augment   182.04846   173.07431   173.07961    -0.00088     0.06801     0.11677
  Kinetic   541.35331   490.53228   490.58258    -0.00503     0.38499     0.66099
  Fock        0.00000     0.00000     0.00000     0.00000     0.00000     0.00000
  vdW        -0.00000    -0.02409     0.00046     0.00001    -0.00010    -0.00001
  -------------------------------------------------------------------------------------
  Total      -0.00222     8.14190     8.22972     0.00085    -0.06232    -0.10716
  in kB      -0.00008     0.30425     0.30753     0.00003    -0.00233    -0.00400
  external pressure =        0.20 kB  Pullay stress =        0.00 kB


 VOLUME and BASIS-vectors are now :
 -----------------------------------------------------------------------------
  energy-cutoff  :     1000.00
  volume of cell :    42875.00
      direct lattice vectors                 reciprocal lattice vectors
    35.000000000  0.000000000  0.000000000     0.028571429  0.000000000  0.000000000
     0.000000000 35.000000000  0.000000000     0.000000000  0.028571429  0.000000000
     0.000000000  0.000000000 35.000000000     0.000000000  0.000000000  0.028571429

  length of vectors
    35.000000000 35.000000000 35.000000000     0.028571429  0.028571429  0.028571429


 FORCES acting on ions
    electron-ion (+dipol)            ewald-force                    non-local-force                 convergence-correction
 -----------------------------------------------------------------------------------------------
   -.770E-02 0.277E+02 0.540E-01   0.769E-02 -.278E+02 -.541E-01   0.534E-05 0.494E-01 0.146E-03   0.170E-07 0.121E-05 0.121E-07
   0.963E-02 -.324E+02 -.481E-01   -.963E-02 0.323E+02 0.486E-01   0.801E-05 -.646E-02 -.275E-03   0.274E-07 -.387E-06 0.573E-06
   -.230E-01 -.195E+03 0.170E+00   0.230E-01 0.281E+03 -.168E+00   -.505E-04 -.827E+02 -.176E-02   -.128E-06 0.835E-06 0.209E-07
   -.652E-02 0.289E+03 0.446E-01   0.652E-02 -.375E+03 -.444E-01   0.240E-05 0.830E+02 -.222E-03   0.157E-06 0.408E-05 0.178E-07
   0.354E+01 -.430E+02 -.271E+03   -.466E+01 0.422E+02 0.357E+03   0.108E+01 0.746E+00 -.829E+02   0.766E-07 -.857E-06 -.837E-06
   -.351E+01 -.467E+02 0.271E+03   0.464E+01 0.472E+02 -.357E+03   -.108E+01 -.510E+00 0.829E+02   0.533E-07 -.109E-05 0.130E-05
 -----------------------------------------------------------------------------------------------
   0.177E-03 -.574E+00 0.942E-03   0.000E+00 -.497E-13 0.000E+00   -.860E-04 0.574E+00 -.845E-03   0.204E-06 0.379E-05 0.109E-05
 
 
 POSITION                                       TOTAL-FORCE (eV/Angst)
 -----------------------------------------------------------------------------------
      0.00000      0.05699      0.00000        -0.000017     -0.034610      0.000052
     34.99851      5.62718      0.00754        -0.000003     -0.029588      0.000135
      0.00000      1.22721      0.00000        -0.000020      3.546100     -0.000100
      0.00000     33.88677      0.00000        -0.000014     -3.494532     -0.000013
     34.98327      5.61833      1.17763        -0.045838     -0.020199      3.518355
      0.01374      5.63603     33.83746         0.045892      0.032829     -3.518429
 -----------------------------------------------------------------------------------
    total drift:                                0.000092      0.000056      0.000098


--------------------------------------------------------------------------------------------------------



  FREE ENERGIE OF THE ION-ELECTRON SYSTEM (eV)
  ---------------------------------------------------
  free  energy   TOTEN  =       -44.09857285 eV

  energy  without entropy=      -44.09857285  energy(sigma->0) =      -44.09857285
 


--------------------------------------------------------------------------------------------------------


    POTLOK:  cpu time   16.2653: real time   16.2957


--------------------------------------------------------------------------------------------------------


 writing wavefunctions
     LOOP+:  cpu time 1841.8694: real time 1846.3385
    4ORBIT:  cpu time    0.0000: real time    0.0000

 total amount of memory used by VASP MPI-rank0  4007897. kBytes
=======================================================================

   base      :      30000. kBytes
   nonl-proj :     344787. kBytes
   fftplans  :     676185. kBytes
   grid      :    2932288. kBytes
   one-center:          9. kBytes
   wavefun   :      24628. kBytes
 
  
  
 General timing and accounting informations for this job:
 ========================================================
  
                  Total CPU time used (sec):     3278.085
                            User time (sec):     3072.421
                          System time (sec):      205.663
                         Elapsed time (sec):     3299.078
  
                   Maximum memory used (kb):     5432404.
                   Average memory used (kb):           0.
  
                          Minor page faults:     84437572
                          Major page faults:          979
                 Voluntary context switches:        13336
