 vasp.6.1.2 22Jul20 (build Jan  6 2021 09:55:43) gamma-only                      
 executed on             LinuxPGI date 2023.10.20  03:46:36
 running on   32 total cores
 distrk:  each k-point on   32 cores,    1 groups
 distr:  one band on NCORE=   1 cores,   32 groups


--------------------------------------------------------------------------------------------------------


 INCAR:
 POTCAR:    PAW_PBE C_s 06Sep2000                 
 POTCAR:    PAW_PBE O_s 07Sep2000                 
 -----------------------------------------------------------------------------
|                                                                             |
|           W    W    AA    RRRRR   N    N  II  N    N   GGGG   !!!           |
|           W    W   A  A   R    R  NN   N  II  NN   N  G    G  !!!           |
|           W    W  A    A  R    R  N N  N  II  N N  N  G       !!!           |
|           W WW W  AAAAAA  RRRRR   N  N N  II  N  N N  G  GGG   !            |
|           WW  WW  A    A  R   R   N   NN  II  N   NN  G    G                |
|           W    W  A    A  R    R  N    N  II  N    N   GGGG   !!!           |
|                                                                             |
|     For optimal performance we recommend to set                             |
|       NCORE = 4 - approx SQRT(number of cores).                             |
|     NCORE specifies how many cores store one orbital (NPAR=cpu/NCORE).      |
|     This setting can greatly improve the performance of VASP for DFT.       |
|     The default, NCORE=1 might be grossly inefficient on modern             |
|     multi-core architectures or massively parallel machines. Do your        |
|     own testing!!!!                                                         |
|     Unfortunately you need to use the default for GW and RPA                |
|     calculations (for HF NCORE is supported but not extensively tested      |
|     yet).                                                                   |
|                                                                             |
 -----------------------------------------------------------------------------

 POTCAR:    PAW_PBE C_s 06Sep2000                 
   VRHFIN =C: s2p2                                                                                  
   LEXCH  = PE                                                                                      
   EATOM  =   147.1560 eV,   10.8157 Ry                                                             
                                                                                                    
   TITEL  = PAW_PBE C_s 06Sep2000                                                                   
   LULTRA =        F    use ultrasoft PP ?                                                          
   IUNSCR =        0    unscreen: 0-lin 1-nonlin 2-no                                               
   RPACOR =    0.000    partial core radius                                                         
   POMASS =   12.011; ZVAL   =    4.000    mass and valenz                                          
   RCORE  =    1.850    outmost cutoff radius                                                       
   RWIGS  =    1.890; RWIGS  =    1.000    wigner-seitz radius (au A)                               
   ENMAX  =  273.911; ENMIN  =  205.433 eV                                                          
   RCLOC  =    0.804    cutoff for local pot                                                        
   LCOR   =        T    correct aug charges                                                         
   LPAW   =        T    paw PP                                                                      
   EAUG   =  439.243                                                                                
   DEXC   =    0.000                                                                                
   RMAX   =    1.897    core radius for proj-oper                                                   
   RAUG   =    1.300    factor for augmentation sphere                                              
   RDEP   =    1.940    radius for radial grids                                                     
   RDEPT  =    1.573    core radius for aug-charge                                                  
                                                                                                    
   Atomic configuration                                                                             
    4 entries                                                                                       
     n  l   j            E        occ.                                                              
     1  0  0.50      -273.3789   2.0000                                                             
     2  0  0.50       -13.7508   2.0000                                                             
     2  1  0.50        -5.2854   2.0000                                                             
     3  2  1.50        -1.3606   0.0000                                                             
   Description                                                                                      
     l       E           TYP  RCUT    TYP  RCUT                                                     
     0    -13.7508457     23  1.500                                                                 
     0    -11.0934578     23  1.500                                                                 
     1     -5.2854381     23  1.850                                                                 
     1     -1.3099858     23  1.850                                                                 
  local pseudopotential read in
  atomic valenz-charges read in
  non local Contribution for L=            0  read in
    real space projection operators read in
  non local Contribution for L=            0  read in
    real space projection operators read in
  non local Contribution for L=            1  read in
    real space projection operators read in
  non local Contribution for L=            1  read in
    real space projection operators read in
    PAW grid and wavefunctions read in
 
   number of l-projection  operators is LMAX  =            4
   number of lm-projection operators is LMMAX =            8
 
 POTCAR:    PAW_PBE O_s 07Sep2000                 
   VRHFIN =O: s2p4                                                                                  
   LEXCH  = PE                                                                                      
   EATOM  =   432.3788 eV,   31.7789 Ry                                                             
                                                                                                    
   TITEL  = PAW_PBE O_s 07Sep2000                                                                   
   LULTRA =        F    use ultrasoft PP ?                                                          
   IUNSCR =        0    unscreen: 0-lin 1-nonlin 2-no                                               
   RPACOR =    0.000    partial core radius                                                         
   POMASS =   16.000; ZVAL   =    6.000    mass and valenz                                          
   RCORE  =    1.850    outmost cutoff radius                                                       
   RWIGS  =    1.700; RWIGS  =    0.900    wigner-seitz radius (au A)                               
   ENMAX  =  282.853; ENMIN  =  212.140 eV                                                          
   RCLOC  =    0.804    cutoff for local pot                                                        
   LCOR   =        T    correct aug charges                                                         
   LPAW   =        T    paw PP                                                                      
   EAUG   =  412.352                                                                                
   RMAX   =    1.897    core radius for proj-oper                                                   
   RAUG   =    1.300    factor for augmentation sphere                                              
   RDEP   =    1.878    radius for radial grids                                                     
   RDEPT  =    1.572    core radius for aug-charge                                                  
                                                                                                    
   Atomic configuration                                                                             
    4 entries                                                                                       
     n  l   j            E        occ.                                                              
     1  0  0.50      -514.6923   2.0000                                                             
     2  0  0.50       -23.9615   2.0000                                                             
     2  1  0.50        -9.0305   4.0000                                                             
     3  2  1.50        -1.3606   0.0000                                                             
   Description                                                                                      
     l       E           TYP  RCUT    TYP  RCUT                                                     
     0    -23.9615315     23  1.500                                                                 
     0    -25.3221141     23  1.500                                                                 
     1     -9.0304908     23  1.850                                                                 
     1     -7.3935399     23  1.850                                                                 
  local pseudopotential read in
  atomic valenz-charges read in
  non local Contribution for L=            0  read in
    real space projection operators read in
  non local Contribution for L=            0  read in
    real space projection operators read in
  non local Contribution for L=            1  read in
    real space projection operators read in
  non local Contribution for L=            1  read in
    real space projection operators read in
    PAW grid and wavefunctions read in
 
   number of l-projection  operators is LMAX  =            4
   number of lm-projection operators is LMMAX =            8
 
  PAW_PBE C_s 06Sep2000                 :
 energy of atom  1       EATOM= -147.1560
 kinetic energy error for atom=    0.0002 (will be added to EATOM!!)
  PAW_PBE O_s 07Sep2000                 :
 energy of atom  2       EATOM= -432.3788
 kinetic energy error for atom=    0.0004 (will be added to EATOM!!)
 
 
 POSCAR:  C  O
  positions in cartesian coordinates
  No initial velocities read in
 exchange correlation table for  LEXCH =        8
   RHO(1)=    0.500       N(1)  =     2000
   RHO(2)=  100.500       N(2)  =     4000
 


--------------------------------------------------------------------------------------------------------


 ion  position               nearest neighbor table
   1  0.000  0.002  0.000-   3 1.17   4 1.17
   2  1.000  0.124  0.000-   5 1.17   6 1.17
   3  0.000  0.035  0.000-   1 1.17
   4  0.000  0.968  0.000-   1 1.17
   5  1.000  0.123  0.034-   2 1.17
   6  0.000  0.124  0.967-   2 1.17
 
  LATTYP: Found a simple cubic cell.
 ALAT       =    35.0000000000
  
  Lattice vectors:
  
 A1 = (  35.0000000000,   0.0000000000,   0.0000000000)
 A2 = (   0.0000000000,  35.0000000000,   0.0000000000)
 A3 = (   0.0000000000,   0.0000000000,  35.0000000000)


Analysis of symmetry for initial positions (statically):
=====================================================================
 Subroutine PRICEL returns:
 Original cell was already a primitive cell.
 

 Routine SETGRP: Setting up the symmetry group for a 
 simple cubic supercell.


 Subroutine GETGRP returns: Found  1 space group operations
 (whereof  1 operations were pure point group operations)
 out of a pool of 48 trial point group operations.


The static configuration has the point symmetry C_1 .


Analysis of symmetry for dynamics (positions and initial velocities):
=====================================================================
 Subroutine PRICEL returns:
 Original cell was already a primitive cell.
 

 Routine SETGRP: Setting up the symmetry group for a 
 simple cubic supercell.


 Subroutine GETGRP returns: Found  1 space group operations
 (whereof  1 operations were pure point group operations)
 out of a pool of 48 trial point group operations.


The dynamic configuration has the point symmetry C_1 .


 Subroutine INISYM returns: Found  1 space group operations
 (whereof  1 operations are pure point group operations),
 and found     1 'primitive' translations


----------------------------------------------------------------------------------------

                                     Primitive cell                                     

  volume of cell :   42875.0000

  direct lattice vectors                    reciprocal lattice vectors
    35.000000000  0.000000000  0.000000000     0.028571429  0.000000000  0.000000000
     0.000000000 35.000000000  0.000000000     0.000000000  0.028571429  0.000000000
     0.000000000  0.000000000 35.000000000     0.000000000  0.000000000  0.028571429

  length of vectors
    35.000000000 35.000000000 35.000000000     0.028571429  0.028571429  0.028571429

  position of ions in fractional coordinates (direct lattice)
     0.000000000  0.001628171  0.000000000
     0.999957287  0.123633612  0.000215536
     0.000000000  0.035063029  0.000000000
     0.000000000  0.968193314  0.000000000
     0.999522117  0.123380758  0.033646605
     0.000392457  0.123886467  0.966784468

  ion indices of the primitive-cell ions
   primitive index   ion index
                 1           1
                 2           2
                 3           3
                 4           4
                 5           5
                 6           6

----------------------------------------------------------------------------------------

 
 
 KPOINTS: g                                       

Automatic generation of k-mesh.
Space group operators:
 irot       det(A)        alpha          n_x          n_y          n_z        tau_x        tau_y        tau_z
    1     1.000000     0.000000     1.000000     0.000000     0.000000     0.000000     0.000000     0.000000
 
 Subroutine IBZKPT returns following result:
 ===========================================
 
 Found      1 irreducible k-points:
 
 Following reciprocal coordinates:
            Coordinates               Weight
  0.000000  0.000000  0.000000      1.000000
 
 Following cartesian coordinates:
            Coordinates               Weight
  0.000000  0.000000  0.000000      1.000000
 


--------------------------------------------------------------------------------------------------------




 Dimension of arrays:
   k-points           NKPTS =      1   k-points in BZ     NKDIM =      1   number of bands    NBANDS=     32
   number of dos      NEDOS =    301   number of ions     NIONS =      6
   non local maximal  LDIM  =      4   non local SUM 2l+1 LMDIM =      8
   total plane-waves  NPLWV = ******
   max r-space proj   IRMAX =      1   max aug-charges    IRDMAX=  29269
   dimension x,y,z NGX =   378 NGY =  378 NGZ =  378
   dimension x,y,z NGXF=   756 NGYF=  756 NGZF=  756
   support grid    NGXF=   756 NGYF=  756 NGZF=  756
   ions per type =               2   4
   NGX,Y,Z   is equivalent  to a cutoff of  17.95, 17.95, 17.95 a.u.
   NGXF,Y,Z  is equivalent  to a cutoff of  35.91, 35.91, 35.91 a.u.

 SYSTEM =  C                                       
 POSCAR =   C  O                                   

 Startparameter for this run:
   NWRITE =      2    write-flag & timer
   PREC   = acc       normal or accurate (medium, high low for compatibility)
   ISTART =      0    job   : 0-new  1-cont  2-samecut
   ICHARG =      2    charge: 1-file 2-atom 10-const
   ISPIN  =      1    spin polarized calculation?
   LNONCOLLINEAR =      F non collinear calculations
   LSORBIT =      F    spin-orbit coupling
   INIWAV =      1    electr: 0-lowe 1-rand  2-diag
   LASPH  =      T    aspherical Exc in radial PAW
   METAGGA=      F    non-selfconsistent MetaGGA calc.

 Electronic Relaxation 1
   ENCUT  = 1000.0 eV  73.50 Ry    8.57 a.u.  90.25 90.25 90.25*2*pi/ulx,y,z
   ENINI  = 1000.0     initial cutoff
   ENAUG  =  439.2 eV  augmentation charge cutoff
   NELM   =     60;   NELMIN=  2; NELMDL= -5     # of ELM steps 
   EDIFF  = 0.1E-06   stopping-criterion for ELM
   LREAL  =      F    real-space projection
   NLSPLINE    = F    spline interpolate recip. space projectors
   LCOMPAT=      F    compatible to vasp.4.4
   GGA_COMPAT  = T    GGA compatible to vasp.4.4-vasp.4.6
   LMAXPAW     = -100 max onsite density
   LMAXMIX     =    2 max onsite mixed and CHGCAR
   VOSKOWN=      0    Vosko Wilk Nusair interpolation
   ROPT   =    0.00000   0.00000
 Ionic relaxation
   EDIFFG = 0.1E-05   stopping-criterion for IOM
   NSW    =      0    number of steps for IOM
   NBLOCK =      1;   KBLOCK =      1    inner block; outer block 
   IBRION =     -1    ionic relax: 0-MD 1-quasi-New 2-CG
   NFREE  =      0    steps in history (QN), initial steepest desc. (CG)
   ISIF   =      2    stress and relaxation
   IWAVPR =     10    prediction:  0-non 1-charg 2-wave 3-comb
   ISYM   =      2    0-nonsym 1-usesym 2-fastsym
   LCORR  =      T    Harris-Foulkes like correction to forces

   POTIM  = 0.5000    time-step for ionic-motion
   TEIN   =    0.0    initial temperature
   TEBEG  =    0.0;   TEEND  =   0.0 temperature during run
   SMASS  =  -3.00    Nose mass-parameter (am)
   estimated Nose-frequenzy (Omega)   =  0.10E-29 period in steps = 0.13E+47 mass=  -0.280E-25a.u.
   SCALEE = 1.0000    scale energy and forces
   NPACO  =    256;   APACO  = 16.0  distance and # of slots for P.C.
   PSTRESS=    0.0 pullay stress

  Mass of Ions in am
   POMASS =  12.01 16.00
  Ionic Valenz
   ZVAL   =   4.00  6.00
  Atomic Wigner-Seitz radii
   RWIGS  =  -1.00 -1.00
  virtual crystal weights 
   VCA    =   1.00  1.00
   NELECT =      32.0000    total number of electrons
   NUPDOWN=      -1.0000    fix difference up-down

 DOS related values:
   EMIN   =  10.00;   EMAX   =-10.00  energy-range for DOS
   EFERMI =   0.00
   ISMEAR =     0;   SIGMA  =   0.01  broadening in eV -4-tet -1-fermi 0-gaus

 Electronic relaxation 2 (details)
   IALGO  =     38    algorithm
   LDIAG  =      T    sub-space diagonalisation (order eigenvalues)
   LSUBROT=      F    optimize rotation matrix (better conditioning)
   TURBO    =      0    0=normal 1=particle mesh
   IRESTART =      0    0=no restart 2=restart with 2 vectors
   NREBOOT  =      0    no. of reboots
   NMIN     =      0    reboot dimension
   EREF     =   0.00    reference energy to select bands
   IMIX   =      4    mixing-type and parameters
     AMIX     =   0.40;   BMIX     =  1.00
     AMIX_MAG =   1.60;   BMIX_MAG =  1.00
     AMIN     =   0.10
     WC   =   100.;   INIMIX=   1;  MIXPRE=   1;  MAXMIX= -45

 Intra band minimization:
   WEIMIN = 0.0000     energy-eigenvalue tresh-hold
   EBREAK =  0.78E-09  absolut break condition
   DEPER  =   0.30     relativ break condition  

   TIME   =   0.40     timestep for ELM

  volume/ion in A,a.u.               =    7145.83     48222.46
  Fermi-wavevector in a.u.,A,eV,Ry     =   0.148499  0.280622  0.300035  0.022052
  Thomas-Fermi vector in A             =   0.821704
 
 Write flags
   LWAVE        =      T    write WAVECAR
   LDOWNSAMPLE  =      F    k-point downsampling of WAVECAR
   LCHARG       =      T    write CHGCAR
   LVTOT        =      F    write LOCPOT, total local potential
   LVHAR        =      F    write LOCPOT, Hartree potential only
   LELF         =      F    write electronic localiz. function (ELF)
   LORBIT       =      0    0 simple, 1 ext, 2 COOP (PROOUT), +10 PAW based schemes


 Dipole corrections
   LMONO  =      F    monopole corrections only (constant potential shift)
   LDIPOL =      F    correct potential (dipole corrections)
   IDIPOL =      4    1-x, 2-y, 3-z, 4-all directions 
   EPSILON=  1.0000000 bulk dielectric constant

 Exchange correlation treatment:
   GGA     =    --    GGA type
   LEXCH   =     8    internal setting for exchange type
   VOSKOWN=      0    Vosko Wilk Nusair interpolation
   LHFCALC =     F    Hartree Fock is set to
   LHFONE  =     F    Hartree Fock one center treatment
   AEXX    =    0.0000 exact exchange contribution

 Linear response parameters
   LEPSILON=     F    determine dielectric tensor
   LRPA    =     F    only Hartree local field effects (RPA)
   LNABLA  =     F    use nabla operator in PAW spheres
   LVEL    =     F    velocity operator in full k-point grid
   LINTERFAST=   F  fast interpolation
   KINTER  =     0    interpolate to denser k-point grid
   CSHIFT  =0.1000    complex shift for real part using Kramers Kronig
   OMEGAMAX=  -1.0    maximum frequency
   DEG_THRESHOLD= 0.2000000E-02 threshold for treating states as degnerate
   RTIME   =   -0.100 relaxation time in fs
  (WPLASMAI=    0.000 imaginary part of plasma frequency in eV, 0.658/RTIME)
   DFIELD  = 0.0000000 0.0000000 0.0000000 field for delta impulse in time
 
 Orbital magnetization related:
   ORBITALMAG=     F  switch on orbital magnetization
   LCHIMAG   =     F  perturbation theory with respect to B field
   DQ        =  0.001000  dq finite difference perturbation B field
   LLRAUG    =     F  two centre corrections for induced B field



--------------------------------------------------------------------------------------------------------


 Static calculation
 charge density and potential will be updated during run
 non-spin polarized calculation
 Variant of blocked Davidson
 Davidson routine will perform the subspace rotation
 perform sub-space diagonalisation
    after iterative eigenvector-optimisation
 modified Broyden-mixing scheme, WC =      100.0
 initial mixing is a Kerker type mixing with AMIX =  0.4000 and BMIX =      1.0000
 Hartree-type preconditioning will be used
 using additional bands            16
 reciprocal scheme for non local part
 calculate Harris-corrections to forces 
   (improved forces if not selfconsistent)
 use gradient corrections 
 use of overlap-Matrix (Vanderbilt PP)
 Gauss-broadening in eV      SIGMA  =   0.01


--------------------------------------------------------------------------------------------------------


  energy-cutoff  :     1000.00
  volume of cell :    42875.00
      direct lattice vectors                 reciprocal lattice vectors
    35.000000000  0.000000000  0.000000000     0.028571429  0.000000000  0.000000000
     0.000000000 35.000000000  0.000000000     0.000000000  0.028571429  0.000000000
     0.000000000  0.000000000 35.000000000     0.000000000  0.000000000  0.028571429

  length of vectors
    35.000000000 35.000000000 35.000000000     0.028571429  0.028571429  0.028571429


 
 k-points in units of 2pi/SCALE and weight: g                                       
   0.00000000  0.00000000  0.00000000       1.000
 
 k-points in reciprocal lattice and weights: g                                       
   0.00000000  0.00000000  0.00000000       1.000
 
 position of ions in fractional coordinates (direct lattice) 
   0.00000000  0.00162817  0.00000000
   0.99995729  0.12363361  0.00021554
   0.00000000  0.03506303  0.00000000
   0.00000000  0.96819331  0.00000000
   0.99952212  0.12338076  0.03364661
   0.00039246  0.12388647  0.96678447
 
 position of ions in cartesian coordinates  (Angst):
   0.00000000  0.05698600  0.00000000
  34.99850504  4.32717643  0.00754377
   0.00000000  1.22720600  0.00000000
   0.00000000 33.88676600  0.00000000
  34.98327409  4.31832652  1.17763118
   0.01373599  4.33602633 33.83745636
 


--------------------------------------------------------------------------------------------------------


 use serial FFT for orbitals x direction half grid
 k-point   1 :   0.0000 0.0000 0.0000  plane waves: 1539209

 maximum and minimum number of plane-waves per node :   1539209  1539209

 maximum number of plane-waves:   1539209
 maximum index in each direction: 
   IXMAX=   90   IYMAX=   90   IZMAX=   90
   IXMIN=    0   IYMIN=  -90   IZMIN=  -90


 serial   3D FFT for wavefunctions
 parallel 3D FFT for charge:
    minimum data exchange during FFTs selected (reduces bandwidth)


 total amount of memory used by VASP MPI-rank0  4007897. kBytes
=======================================================================

   base      :      30000. kBytes
   nonl-proj :     344787. kBytes
   fftplans  :     676185. kBytes
   grid      :    2932288. kBytes
   one-center:          9. kBytes
   wavefun   :      24628. kBytes
 
     INWAV:  cpu time    0.0000: real time    0.0000
 Broyden mixing: mesh for mixing (old mesh)
   NGX =181   NGY =181   NGZ =181
  (NGX  =756   NGY  =756   NGZ  =756)
  gives a total of ****** points

 initial charge density was supplied:
 charge density of overlapping atoms calculated
 number of electron      32.0000000 magnetization 
 keeping initial charge density in first step


--------------------------------------------------------------------------------------------------------


 Maximum index for augmentation-charges          1123 (set IRDMAX)


--------------------------------------------------------------------------------------------------------


 First call to EWALD:  gamma=   0.051
 Maximum number of real-space cells 3x 3x 3
 Maximum number of reciprocal cells 3x 3x 3

    FEWALD:  cpu time    0.0009: real time    0.0008


--------------------------------------- Iteration      1(   1)  ---------------------------------------


    POTLOK:  cpu time   12.9292: real time   12.9532
    SETDIJ:  cpu time    0.0409: real time    0.0413
     EDDAV:  cpu time   18.9728: real time   19.0216
       DOS:  cpu time    0.0234: real time    0.0234
    --------------------------------------------
      LOOP:  cpu time   31.9663: real time   32.0395

 eigenvalue-minimisations  :   128
 total energy-change (2. order) : 0.2329936E+03  (-0.6928548E+03)
 number of electron      32.0000000 magnetization 
 augmentation part       32.0000000 magnetization 

 Free energy of the ion-electron system (eV)
  ---------------------------------------------------
  alpha Z        PSCENC =         0.07205883
  Ewald energy   TEWEN  =      1915.00232419
  -Hartree energ DENC   =     -3516.04486105
  -exchange      EXHF   =         0.00000000
  -V(xc)+E(xc)   XCENC  =       136.01667697
  PAW double counting   =      1593.34061361    -1611.57548628
  entropy T*S    EENTRO =        -0.00333848
  eigenvalues    EBANDS =      -307.63946109
  atomic energy  EATOM  =      2023.82507259
  Solvation  Ediel_sol  =         0.00000000
  ---------------------------------------------------
  free energy    TOTEN  =       232.99359929 eV

  energy without entropy =      232.99693778  energy(sigma->0) =      232.99526854


--------------------------------------------------------------------------------------------------------




--------------------------------------- Iteration      1(   2)  ---------------------------------------


     EDDAV:  cpu time   18.9788: real time   19.0236
       DOS:  cpu time    0.0175: real time    0.0175
    --------------------------------------------
      LOOP:  cpu time   18.9962: real time   19.0411

 eigenvalue-minimisations  :   128
 total energy-change (2. order) :-0.2497486E+03  (-0.2489645E+03)
 number of electron      32.0000000 magnetization 
 augmentation part       32.0000000 magnetization 

 Free energy of the ion-electron system (eV)
  ---------------------------------------------------
  alpha Z        PSCENC =         0.07205883
  Ewald energy   TEWEN  =      1915.00232419
  -Hartree energ DENC   =     -3516.04486105
  -exchange      EXHF   =         0.00000000
  -V(xc)+E(xc)   XCENC  =       136.01667697
  PAW double counting   =      1593.34061361    -1611.57548628
  entropy T*S    EENTRO =        -0.00000000
  eigenvalues    EBANDS =      -557.39143076
  atomic energy  EATOM  =      2023.82507259
  Solvation  Ediel_sol  =         0.00000000
  ---------------------------------------------------
  free energy    TOTEN  =       -16.75503189 eV

  energy without entropy =      -16.75503189  energy(sigma->0) =      -16.75503189


--------------------------------------------------------------------------------------------------------




--------------------------------------- Iteration      1(   3)  ---------------------------------------


     EDDAV:  cpu time   11.5955: real time   11.6268
       DOS:  cpu time    0.0218: real time    0.0218
    --------------------------------------------
      LOOP:  cpu time   11.6172: real time   11.6486

 eigenvalue-minimisations  :    64
 total energy-change (2. order) :-0.3061077E+02  (-0.3061077E+02)
 number of electron      32.0000000 magnetization 
 augmentation part       32.0000000 magnetization 

 Free energy of the ion-electron system (eV)
  ---------------------------------------------------
  alpha Z        PSCENC =         0.07205883
  Ewald energy   TEWEN  =      1915.00232419
  -Hartree energ DENC   =     -3516.04486105
  -exchange      EXHF   =         0.00000000
  -V(xc)+E(xc)   XCENC  =       136.01667697
  PAW double counting   =      1593.34061361    -1611.57548628
  entropy T*S    EENTRO =        -0.00000000
  eigenvalues    EBANDS =      -588.00219649
  atomic energy  EATOM  =      2023.82507259
  Solvation  Ediel_sol  =         0.00000000
  ---------------------------------------------------
  free energy    TOTEN  =       -47.36579762 eV

  energy without entropy =      -47.36579762  energy(sigma->0) =      -47.36579762


--------------------------------------------------------------------------------------------------------




--------------------------------------- Iteration      1(   4)  ---------------------------------------


     EDDAV:  cpu time   19.0110: real time   19.0567
       DOS:  cpu time    0.0181: real time    0.0181
    --------------------------------------------
      LOOP:  cpu time   19.0291: real time   19.0748

 eigenvalue-minimisations  :   128
 total energy-change (2. order) :-0.4514482E+00  (-0.4514483E+00)
 number of electron      32.0000000 magnetization 
 augmentation part       32.0000000 magnetization 

 Free energy of the ion-electron system (eV)
  ---------------------------------------------------
  alpha Z        PSCENC =         0.07205883
  Ewald energy   TEWEN  =      1915.00232419
  -Hartree energ DENC   =     -3516.04486105
  -exchange      EXHF   =         0.00000000
  -V(xc)+E(xc)   XCENC  =       136.01667697
  PAW double counting   =      1593.34061361    -1611.57548628
  entropy T*S    EENTRO =        -0.00000000
  eigenvalues    EBANDS =      -588.45364472
  atomic energy  EATOM  =      2023.82507259
  Solvation  Ediel_sol  =         0.00000000
  ---------------------------------------------------
  free energy    TOTEN  =       -47.81724586 eV

  energy without entropy =      -47.81724586  energy(sigma->0) =      -47.81724586


--------------------------------------------------------------------------------------------------------




--------------------------------------- Iteration      1(   5)  ---------------------------------------


     EDDAV:  cpu time   15.2664: real time   15.2984
       DOS:  cpu time    0.0227: real time    0.0227
    CHARGE:  cpu time    5.4624: real time    5.4700
    MIXING:  cpu time    0.2493: real time    0.2498
    --------------------------------------------
      LOOP:  cpu time   21.0008: real time   21.0409

 eigenvalue-minimisations  :    96
 total energy-change (2. order) :-0.2160905E-03  (-0.2161065E-03)
 number of electron      31.9999999 magnetization 
 augmentation part        6.0052881 magnetization 

 Broyden mixing:
  rms(total) = 0.65529E+01    rms(broyden)= 0.65529E+01
  rms(prec ) = 0.65588E+01
  weight for this iteration     100.00

 Free energy of the ion-electron system (eV)
  ---------------------------------------------------
  alpha Z        PSCENC =         0.07205883
  Ewald energy   TEWEN  =      1915.00232419
  -Hartree energ DENC   =     -3516.04486105
  -exchange      EXHF   =         0.00000000
  -V(xc)+E(xc)   XCENC  =       136.01667697
  PAW double counting   =      1593.34061361    -1611.57548628
  entropy T*S    EENTRO =        -0.00000000
  eigenvalues    EBANDS =      -588.45386081
  atomic energy  EATOM  =      2023.82507259
  Solvation  Ediel_sol  =         0.00000000
  ---------------------------------------------------
  free energy    TOTEN  =       -47.81746195 eV

  energy without entropy =      -47.81746195  energy(sigma->0) =      -47.81746195


--------------------------------------------------------------------------------------------------------




--------------------------------------- Iteration      1(   6)  ---------------------------------------


    POTLOK:  cpu time   12.6698: real time   12.6919
    SETDIJ:  cpu time    0.0404: real time    0.0404
     EDDAV:  cpu time   15.2530: real time   15.2834
       DOS:  cpu time    0.0247: real time    0.0247
    CHARGE:  cpu time    5.3150: real time    5.3250
    MIXING:  cpu time    0.2542: real time    0.2573
    --------------------------------------------
      LOOP:  cpu time   33.5570: real time   33.6227

 eigenvalue-minimisations  :    96
 total energy-change (2. order) : 0.3299760E+01  (-0.2358575E+01)
 number of electron      32.0000000 magnetization 
 augmentation part        5.3267405 magnetization 

 Broyden mixing:
  rms(total) = 0.61934E+01    rms(broyden)= 0.61934E+01
  rms(prec ) = 0.61940E+01
  weight for this iteration     100.00

 eigenvalues of (default mixing * dielectric matrix)
  average eigenvalue GAMMA=   0.9609
  0.9609

 Free energy of the ion-electron system (eV)
  ---------------------------------------------------
  alpha Z        PSCENC =         0.07205883
  Ewald energy   TEWEN  =      1915.00232419
  -Hartree energ DENC   =     -3566.08547926
  -exchange      EXHF   =         0.00000000
  -V(xc)+E(xc)   XCENC  =       139.10987744
  PAW double counting   =      3422.26908802    -3443.43066536
  entropy T*S    EENTRO =        -0.00000000
  eigenvalues    EBANDS =      -535.27997806
  atomic energy  EATOM  =      2023.82507259
  Solvation  Ediel_sol  =         0.00000000
  ---------------------------------------------------
  free energy    TOTEN  =       -44.51770160 eV

  energy without entropy =      -44.51770160  energy(sigma->0) =      -44.51770160


--------------------------------------------------------------------------------------------------------




--------------------------------------- Iteration      1(   7)  ---------------------------------------


    POTLOK:  cpu time   12.7204: real time   12.7524
    SETDIJ:  cpu time    0.0403: real time    0.0403
     EDDAV:  cpu time   15.2548: real time   15.2905
       DOS:  cpu time    0.0307: real time    0.0307
    CHARGE:  cpu time    5.3259: real time    5.3333
    MIXING:  cpu time    0.2561: real time    0.2572
    --------------------------------------------
      LOOP:  cpu time   33.6281: real time   33.7043

 eigenvalue-minimisations  :    96
 total energy-change (2. order) : 0.2947434E+00  (-0.1063513E+00)
 number of electron      32.0000000 magnetization 
 augmentation part        5.3875644 magnetization 

 Broyden mixing:
  rms(total) = 0.34321E+01    rms(broyden)= 0.34321E+01
  rms(prec ) = 0.34324E+01
  weight for this iteration     100.00

 eigenvalues of (default mixing * dielectric matrix)
  average eigenvalue GAMMA=   1.6871
  0.8448  2.5295

 Free energy of the ion-electron system (eV)
  ---------------------------------------------------
  alpha Z        PSCENC =         0.07205883
  Ewald energy   TEWEN  =      1915.00232419
  -Hartree energ DENC   =     -3573.21432396
  -exchange      EXHF   =         0.00000000
  -V(xc)+E(xc)   XCENC  =       139.37670960
  PAW double counting   =      5322.58008674    -5343.32365208
  entropy T*S    EENTRO =        -0.00000000
  eigenvalues    EBANDS =      -528.54123417
  atomic energy  EATOM  =      2023.82507259
  Solvation  Ediel_sol  =         0.00000000
  ---------------------------------------------------
  free energy    TOTEN  =       -44.22295825 eV

  energy without entropy =      -44.22295825  energy(sigma->0) =      -44.22295825


--------------------------------------------------------------------------------------------------------




--------------------------------------- Iteration      1(   8)  ---------------------------------------


    POTLOK:  cpu time   12.7359: real time   12.7582
    SETDIJ:  cpu time    0.0403: real time    0.0403
     EDDAV:  cpu time   15.2226: real time   15.2531
       DOS:  cpu time    0.0273: real time    0.0273
    CHARGE:  cpu time    5.2822: real time    5.2896
    MIXING:  cpu time    0.2501: real time    0.2505
    --------------------------------------------
      LOOP:  cpu time   33.5583: real time   33.6189

 eigenvalue-minimisations  :    96
 total energy-change (2. order) : 0.1176848E+00  (-0.3876605E-01)
 number of electron      32.0000000 magnetization 
 augmentation part        5.3378667 magnetization 

 Broyden mixing:
  rms(total) = 0.22381E+00    rms(broyden)= 0.22381E+00
  rms(prec ) = 0.22438E+00
  weight for this iteration     100.00

 eigenvalues of (default mixing * dielectric matrix)
  average eigenvalue GAMMA=   1.5302
  2.5288  1.1691  0.8928

 Free energy of the ion-electron system (eV)
  ---------------------------------------------------
  alpha Z        PSCENC =         0.07205883
  Ewald energy   TEWEN  =      1915.00232419
  -Hartree energ DENC   =     -3590.08234953
  -exchange      EXHF   =         0.00000000
  -V(xc)+E(xc)   XCENC  =       140.25583014
  PAW double counting   =      9500.64690411    -9521.39192677
  entropy T*S    EENTRO =        -0.00000000
  eigenvalues    EBANDS =      -512.43318701
  atomic energy  EATOM  =      2023.82507259
  Solvation  Ediel_sol  =         0.00000000
  ---------------------------------------------------
  free energy    TOTEN  =       -44.10527344 eV

  energy without entropy =      -44.10527344  energy(sigma->0) =      -44.10527344


--------------------------------------------------------------------------------------------------------




--------------------------------------- Iteration      1(   9)  ---------------------------------------


    POTLOK:  cpu time   12.6843: real time   12.7064
    SETDIJ:  cpu time    0.0402: real time    0.0403
     EDDAV:  cpu time   18.9385: real time   18.9763
       DOS:  cpu time    0.0271: real time    0.0271
    CHARGE:  cpu time    5.3708: real time    5.3781
    MIXING:  cpu time    0.2598: real time    0.2603
    --------------------------------------------
      LOOP:  cpu time   37.3207: real time   37.3885

 eigenvalue-minimisations  :   128
 total energy-change (2. order) : 0.6400892E-02  (-0.3622865E-02)
 number of electron      32.0000000 magnetization 
 augmentation part        5.3345337 magnetization 

 Broyden mixing:
  rms(total) = 0.67517E-01    rms(broyden)= 0.67517E-01
  rms(prec ) = 0.67910E-01
  weight for this iteration     100.00

 eigenvalues of (default mixing * dielectric matrix)
  average eigenvalue GAMMA=   1.4759
  2.5237  0.8572  1.0024  1.5204

 Free energy of the ion-electron system (eV)
  ---------------------------------------------------
  alpha Z        PSCENC =         0.07205883
  Ewald energy   TEWEN  =      1915.00232419
  -Hartree energ DENC   =     -3588.82199327
  -exchange      EXHF   =         0.00000000
  -V(xc)+E(xc)   XCENC  =       140.17481972
  PAW double counting   =      9610.80552092    -9631.45230113
  entropy T*S    EENTRO =        -0.00000000
  eigenvalues    EBANDS =      -513.70437441
  atomic energy  EATOM  =      2023.82507259
  Solvation  Ediel_sol  =         0.00000000
  ---------------------------------------------------
  free energy    TOTEN  =       -44.09887255 eV

  energy without entropy =      -44.09887255  energy(sigma->0) =      -44.09887255


--------------------------------------------------------------------------------------------------------




--------------------------------------- Iteration      1(  10)  ---------------------------------------


    POTLOK:  cpu time   12.7553: real time   12.7774
    SETDIJ:  cpu time    0.0404: real time    0.0404
     EDDAV:  cpu time   18.9738: real time   19.0178
       DOS:  cpu time    0.0128: real time    0.0128
    CHARGE:  cpu time    5.2865: real time    5.2972
    MIXING:  cpu time    0.2865: real time    0.2870
    --------------------------------------------
      LOOP:  cpu time   37.3554: real time   37.4326

 eigenvalue-minimisations  :   128
 total energy-change (2. order) :-0.2774342E-02  (-0.3785260E-03)
 number of electron      32.0000000 magnetization 
 augmentation part        5.3402299 magnetization 

 Broyden mixing:
  rms(total) = 0.44807E-01    rms(broyden)= 0.44807E-01
  rms(prec ) = 0.45096E-01
  weight for this iteration     100.00

 eigenvalues of (default mixing * dielectric matrix)
  average eigenvalue GAMMA=   1.3948
  2.5132  1.6038  0.8794  0.8794  1.0985

 Free energy of the ion-electron system (eV)
  ---------------------------------------------------
  alpha Z        PSCENC =         0.07205883
  Ewald energy   TEWEN  =      1915.00232419
  -Hartree energ DENC   =     -3588.57240243
  -exchange      EXHF   =         0.00000000
  -V(xc)+E(xc)   XCENC  =       140.13703410
  PAW double counting   =      9644.03445511    -9664.60328863
  entropy T*S    EENTRO =        -0.00000000
  eigenvalues    EBANDS =      -513.99690066
  atomic energy  EATOM  =      2023.82507259
  Solvation  Ediel_sol  =         0.00000000
  ---------------------------------------------------
  free energy    TOTEN  =       -44.10164689 eV

  energy without entropy =      -44.10164689  energy(sigma->0) =      -44.10164689


--------------------------------------------------------------------------------------------------------




--------------------------------------- Iteration      1(  11)  ---------------------------------------


    POTLOK:  cpu time   12.6867: real time   12.7097
    SETDIJ:  cpu time    0.0402: real time    0.0403
     EDDAV:  cpu time   18.9809: real time   19.0229
       DOS:  cpu time    0.0138: real time    0.0138
    CHARGE:  cpu time    5.3407: real time    5.3479
    MIXING:  cpu time    0.2570: real time    0.2575
    --------------------------------------------
      LOOP:  cpu time   37.3193: real time   37.3919

 eigenvalue-minimisations  :   128
 total energy-change (2. order) :-0.2203402E-02  (-0.3712912E-04)
 number of electron      32.0000000 magnetization 
 augmentation part        5.3396937 magnetization 

 Broyden mixing:
  rms(total) = 0.25073E-01    rms(broyden)= 0.25073E-01
  rms(prec ) = 0.25412E-01
  weight for this iteration     100.00

 eigenvalues of (default mixing * dielectric matrix)
  average eigenvalue GAMMA=   1.4506
  2.5142  2.0638  1.5233  0.9564  0.9564  0.6897

 Free energy of the ion-electron system (eV)
  ---------------------------------------------------
  alpha Z        PSCENC =         0.07205883
  Ewald energy   TEWEN  =      1915.00232419
  -Hartree energ DENC   =     -3588.97126274
  -exchange      EXHF   =         0.00000000
  -V(xc)+E(xc)   XCENC  =       140.14366727
  PAW double counting   =      9639.41994341    -9659.97682153
  entropy T*S    EENTRO =        -0.00000000
  eigenvalues    EBANDS =      -513.61883232
  atomic energy  EATOM  =      2023.82507259
  Solvation  Ediel_sol  =         0.00000000
  ---------------------------------------------------
  free energy    TOTEN  =       -44.10385029 eV

  energy without entropy =      -44.10385029  energy(sigma->0) =      -44.10385029


--------------------------------------------------------------------------------------------------------




--------------------------------------- Iteration      1(  12)  ---------------------------------------


    POTLOK:  cpu time   12.7273: real time   12.7491
    SETDIJ:  cpu time    0.0406: real time    0.0406
     EDDAV:  cpu time   11.5575: real time   11.5866
       DOS:  cpu time    0.0239: real time    0.0239
    CHARGE:  cpu time    5.2657: real time    5.2812
    MIXING:  cpu time    0.2800: real time    0.2805
    --------------------------------------------
      LOOP:  cpu time   29.8949: real time   29.9620

 eigenvalue-minimisations  :    64
 total energy-change (2. order) :-0.3087624E-02  (-0.3457528E-04)
 number of electron      32.0000000 magnetization 
 augmentation part        5.3387586 magnetization 

 Broyden mixing:
  rms(total) = 0.62927E-02    rms(broyden)= 0.62927E-02
  rms(prec ) = 0.69386E-02
  weight for this iteration     100.00

 eigenvalues of (default mixing * dielectric matrix)
  average eigenvalue GAMMA=   1.4724
  2.7086  2.5081  1.6139  1.0095  0.8692  0.8692  0.7282

 Free energy of the ion-electron system (eV)
  ---------------------------------------------------
  alpha Z        PSCENC =         0.07205883
  Ewald energy   TEWEN  =      1915.00232419
  -Hartree energ DENC   =     -3589.59368280
  -exchange      EXHF   =         0.00000000
  -V(xc)+E(xc)   XCENC  =       140.15599297
  PAW double counting   =      9637.45319601    -9657.99916089
  entropy T*S    EENTRO =        -0.00000000
  eigenvalues    EBANDS =      -513.02273883
  atomic energy  EATOM  =      2023.82507259
  Solvation  Ediel_sol  =         0.00000000
  ---------------------------------------------------
  free energy    TOTEN  =       -44.10693791 eV

  energy without entropy =      -44.10693791  energy(sigma->0) =      -44.10693791


--------------------------------------------------------------------------------------------------------




--------------------------------------- Iteration      1(  13)  ---------------------------------------


    POTLOK:  cpu time   12.6835: real time   12.7056
    SETDIJ:  cpu time    0.0405: real time    0.0405
     EDDAV:  cpu time   19.0301: real time   19.0743
       DOS:  cpu time    0.0170: real time    0.0170
    CHARGE:  cpu time    5.3576: real time    5.3649
    MIXING:  cpu time    0.2984: real time    0.2991
    --------------------------------------------
      LOOP:  cpu time   37.4271: real time   37.5015

 eigenvalue-minimisations  :   128
 total energy-change (2. order) :-0.2228249E-02  (-0.1780426E-04)
 number of electron      32.0000000 magnetization 
 augmentation part        5.3384141 magnetization 

 Broyden mixing:
  rms(total) = 0.27592E-02    rms(broyden)= 0.27592E-02
  rms(prec ) = 0.34883E-02
  weight for this iteration     100.00

 eigenvalues of (default mixing * dielectric matrix)
  average eigenvalue GAMMA=   1.5144
  3.1000  2.4986  1.7349  1.1032  1.1032  0.9514  0.9119  0.7117

 Free energy of the ion-electron system (eV)
  ---------------------------------------------------
  alpha Z        PSCENC =         0.07205883
  Ewald energy   TEWEN  =      1915.00232419
  -Hartree energ DENC   =     -3589.99875503
  -exchange      EXHF   =         0.00000000
  -V(xc)+E(xc)   XCENC  =       140.16215600
  PAW double counting   =      9635.69983279    -9656.24073665
  entropy T*S    EENTRO =        -0.00000000
  eigenvalues    EBANDS =      -512.63111889
  atomic energy  EATOM  =      2023.82507259
  Solvation  Ediel_sol  =         0.00000000
  ---------------------------------------------------
  free energy    TOTEN  =       -44.10916616 eV

  energy without entropy =      -44.10916616  energy(sigma->0) =      -44.10916616


--------------------------------------------------------------------------------------------------------




--------------------------------------- Iteration      1(  14)  ---------------------------------------


    POTLOK:  cpu time   12.7375: real time   12.7661
    SETDIJ:  cpu time    0.0404: real time    0.0404
     EDDAV:  cpu time   15.2109: real time   15.2510
       DOS:  cpu time    0.0287: real time    0.0287
    CHARGE:  cpu time    5.2922: real time    5.2997
    MIXING:  cpu time    0.3083: real time    0.3089
    --------------------------------------------
      LOOP:  cpu time   33.6180: real time   33.6948

 eigenvalue-minimisations  :    96
 total energy-change (2. order) :-0.2445308E-02  (-0.2055890E-04)
 number of electron      32.0000000 magnetization 
 augmentation part        5.3383564 magnetization 

 Broyden mixing:
  rms(total) = 0.17965E-02    rms(broyden)= 0.17965E-02
  rms(prec ) = 0.22320E-02
  weight for this iteration     100.00

 eigenvalues of (default mixing * dielectric matrix)
  average eigenvalue GAMMA=   1.7125
  4.5449  2.5539  2.3324  1.5789  1.0842  0.8710  0.8710  0.7880  0.7880

 Free energy of the ion-electron system (eV)
  ---------------------------------------------------
  alpha Z        PSCENC =         0.07205883
  Ewald energy   TEWEN  =      1915.00232419
  -Hartree energ DENC   =     -3590.37969926
  -exchange      EXHF   =         0.00000000
  -V(xc)+E(xc)   XCENC  =       140.16535215
  PAW double counting   =      9634.79078401    -9655.32978278
  entropy T*S    EENTRO =        -0.00000000
  eigenvalues    EBANDS =      -512.25772120
  atomic energy  EATOM  =      2023.82507259
  Solvation  Ediel_sol  =         0.00000000
  ---------------------------------------------------
  free energy    TOTEN  =       -44.11161147 eV

  energy without entropy =      -44.11161147  energy(sigma->0) =      -44.11161147


--------------------------------------------------------------------------------------------------------




--------------------------------------- Iteration      1(  15)  ---------------------------------------


    POTLOK:  cpu time   12.7011: real time   12.7227
    SETDIJ:  cpu time    0.0407: real time    0.0407
     EDDAV:  cpu time   15.2590: real time   15.2905
       DOS:  cpu time    0.0224: real time    0.0224
    CHARGE:  cpu time    5.4224: real time    5.4311
    MIXING:  cpu time    0.3260: real time    0.3266
    --------------------------------------------
      LOOP:  cpu time   33.7715: real time   33.8340

 eigenvalue-minimisations  :    96
 total energy-change (2. order) :-0.1669189E-02  (-0.1924535E-04)
 number of electron      32.0000000 magnetization 
 augmentation part        5.3382419 magnetization 

 Broyden mixing:
  rms(total) = 0.10281E-02    rms(broyden)= 0.10281E-02
  rms(prec ) = 0.12523E-02
  weight for this iteration     100.00

 eigenvalues of (default mixing * dielectric matrix)
  average eigenvalue GAMMA=   1.6483
  4.9376  2.5345  2.4494  1.5712  1.1331  0.8688  0.8688  0.7752  0.7752  0.5698

 Free energy of the ion-electron system (eV)
  ---------------------------------------------------
  alpha Z        PSCENC =         0.07205883
  Ewald energy   TEWEN  =      1915.00232419
  -Hartree energ DENC   =     -3590.67754760
  -exchange      EXHF   =         0.00000000
  -V(xc)+E(xc)   XCENC  =       140.16707104
  PAW double counting   =      9633.68169021    -9654.22061823
  entropy T*S    EENTRO =        -0.00000000
  eigenvalues    EBANDS =      -511.96333170
  atomic energy  EATOM  =      2023.82507259
  Solvation  Ediel_sol  =         0.00000000
  ---------------------------------------------------
  free energy    TOTEN  =       -44.11328066 eV

  energy without entropy =      -44.11328066  energy(sigma->0) =      -44.11328066


--------------------------------------------------------------------------------------------------------




--------------------------------------- Iteration      1(  16)  ---------------------------------------


    POTLOK:  cpu time   12.7620: real time   12.7841
    SETDIJ:  cpu time    0.0402: real time    0.0403
     EDDAV:  cpu time   19.0053: real time   19.0484
       DOS:  cpu time    0.0176: real time    0.0176
    CHARGE:  cpu time    5.3470: real time    5.3565
    MIXING:  cpu time    0.3115: real time    0.3123
    --------------------------------------------
      LOOP:  cpu time   37.4837: real time   37.5592

 eigenvalue-minimisations  :   128
 total energy-change (2. order) :-0.4419893E-03  (-0.1391965E-05)
 number of electron      32.0000000 magnetization 
 augmentation part        5.3381618 magnetization 

 Broyden mixing:
  rms(total) = 0.11609E-02    rms(broyden)= 0.11609E-02
  rms(prec ) = 0.12957E-02
  weight for this iteration     100.00

 eigenvalues of (default mixing * dielectric matrix)
  average eigenvalue GAMMA=   1.5361
  5.0726  2.5367  2.4702  1.5750  1.1157  0.8651  0.8651  0.7656  0.7656  0.4325
  0.4325

 Free energy of the ion-electron system (eV)
  ---------------------------------------------------
  alpha Z        PSCENC =         0.07205883
  Ewald energy   TEWEN  =      1915.00232419
  -Hartree energ DENC   =     -3590.74346148
  -exchange      EXHF   =         0.00000000
  -V(xc)+E(xc)   XCENC  =       140.16742213
  PAW double counting   =      9634.24472080    -9654.78381599
  entropy T*S    EENTRO =        -0.00000000
  eigenvalues    EBANDS =      -511.89804373
  atomic energy  EATOM  =      2023.82507259
  Solvation  Ediel_sol  =         0.00000000
  ---------------------------------------------------
  free energy    TOTEN  =       -44.11372265 eV

  energy without entropy =      -44.11372265  energy(sigma->0) =      -44.11372265


--------------------------------------------------------------------------------------------------------




--------------------------------------- Iteration      1(  17)  ---------------------------------------


    POTLOK:  cpu time   12.6691: real time   12.6911
    SETDIJ:  cpu time    0.0403: real time    0.0403
     EDDAV:  cpu time   11.5134: real time   11.5420
       DOS:  cpu time    0.0287: real time    0.0287
    CHARGE:  cpu time    5.4439: real time    5.4592
    MIXING:  cpu time    0.3354: real time    0.3360
    --------------------------------------------
      LOOP:  cpu time   30.0308: real time   30.0972

 eigenvalue-minimisations  :    64
 total energy-change (2. order) :-0.2049294E-03  (-0.2644217E-06)
 number of electron      32.0000000 magnetization 
 augmentation part        5.3381698 magnetization 

 Broyden mixing:
  rms(total) = 0.91102E-03    rms(broyden)= 0.91102E-03
  rms(prec ) = 0.10432E-02
  weight for this iteration     100.00

 eigenvalues of (default mixing * dielectric matrix)
  average eigenvalue GAMMA=   1.8098
  6.4545  2.7684  2.5453  1.7686  1.7686  1.2722  0.9946  0.8877  0.8877  0.7106
  0.8295  0.8295

 Free energy of the ion-electron system (eV)
  ---------------------------------------------------
  alpha Z        PSCENC =         0.07205883
  Ewald energy   TEWEN  =      1915.00232419
  -Hartree energ DENC   =     -3590.77371967
  -exchange      EXHF   =         0.00000000
  -V(xc)+E(xc)   XCENC  =       140.16740384
  PAW double counting   =      9634.32905484    -9654.86804958
  entropy T*S    EENTRO =        -0.00000000
  eigenvalues    EBANDS =      -511.86807263
  atomic energy  EATOM  =      2023.82507259
  Solvation  Ediel_sol  =         0.00000000
  ---------------------------------------------------
  free energy    TOTEN  =       -44.11392758 eV

  energy without entropy =      -44.11392758  energy(sigma->0) =      -44.11392758


--------------------------------------------------------------------------------------------------------




--------------------------------------- Iteration      1(  18)  ---------------------------------------


    POTLOK:  cpu time   12.7394: real time   12.7610
    SETDIJ:  cpu time    0.0404: real time    0.0404
     EDDAV:  cpu time   15.3720: real time   15.4017
       DOS:  cpu time    0.0210: real time    0.0210
    CHARGE:  cpu time    5.3787: real time    5.3879
    MIXING:  cpu time    0.3645: real time    0.3651
    --------------------------------------------
      LOOP:  cpu time   33.9160: real time   33.9771

 eigenvalue-minimisations  :    96
 total energy-change (2. order) :-0.9359209E-03  (-0.4796055E-05)
 number of electron      32.0000000 magnetization 
 augmentation part        5.3380582 magnetization 

 Broyden mixing:
  rms(total) = 0.63754E-03    rms(broyden)= 0.63754E-03
  rms(prec ) = 0.67405E-03
  weight for this iteration     100.00

 eigenvalues of (default mixing * dielectric matrix)
  average eigenvalue GAMMA=   1.7602
  6.4635  3.2850  2.5164  2.2961  1.5675  1.1606  0.7893  0.7893  0.8930  0.8930
  0.8471  0.7394  0.6429

 Free energy of the ion-electron system (eV)
  ---------------------------------------------------
  alpha Z        PSCENC =         0.07205883
  Ewald energy   TEWEN  =      1915.00232419
  -Hartree energ DENC   =     -3590.86592216
  -exchange      EXHF   =         0.00000000
  -V(xc)+E(xc)   XCENC  =       140.16696343
  PAW double counting   =      9634.69935417    -9655.23811666
  entropy T*S    EENTRO =        -0.00000000
  eigenvalues    EBANDS =      -511.77659790
  atomic energy  EATOM  =      2023.82507259
  Solvation  Ediel_sol  =         0.00000000
  ---------------------------------------------------
  free energy    TOTEN  =       -44.11486350 eV

  energy without entropy =      -44.11486350  energy(sigma->0) =      -44.11486350


--------------------------------------------------------------------------------------------------------




--------------------------------------- Iteration      1(  19)  ---------------------------------------


    POTLOK:  cpu time   12.6851: real time   12.7072
    SETDIJ:  cpu time    0.0402: real time    0.0402
     EDDAV:  cpu time   18.9812: real time   19.0237
       DOS:  cpu time    0.0217: real time    0.0217
    CHARGE:  cpu time    5.3647: real time    5.3733
    MIXING:  cpu time    0.3596: real time    0.3603
    --------------------------------------------
      LOOP:  cpu time   37.4526: real time   37.5265

 eigenvalue-minimisations  :   128
 total energy-change (2. order) :-0.1496431E-03  (-0.3025143E-06)
 number of electron      32.0000000 magnetization 
 augmentation part        5.3380581 magnetization 

 Broyden mixing:
  rms(total) = 0.45218E-03    rms(broyden)= 0.45218E-03
  rms(prec ) = 0.48364E-03
  weight for this iteration     100.00

 eigenvalues of (default mixing * dielectric matrix)
  average eigenvalue GAMMA=   1.7744
  6.9835  3.4356  2.4882  2.3439  1.5447  1.0808  1.0808  1.1603  0.8578  0.8578
  0.8282  0.8282  0.6759  0.6759

 Free energy of the ion-electron system (eV)
  ---------------------------------------------------
  alpha Z        PSCENC =         0.07205883
  Ewald energy   TEWEN  =      1915.00232419
  -Hartree energ DENC   =     -3590.86295603
  -exchange      EXHF   =         0.00000000
  -V(xc)+E(xc)   XCENC  =       140.16646754
  PAW double counting   =      9634.74404746    -9655.28270269
  entropy T*S    EENTRO =        -0.00000000
  eigenvalues    EBANDS =      -511.77932503
  atomic energy  EATOM  =      2023.82507259
  Solvation  Ediel_sol  =         0.00000000
  ---------------------------------------------------
  free energy    TOTEN  =       -44.11501314 eV

  energy without entropy =      -44.11501314  energy(sigma->0) =      -44.11501314


--------------------------------------------------------------------------------------------------------




--------------------------------------- Iteration      1(  20)  ---------------------------------------


    POTLOK:  cpu time   12.7489: real time   12.7711
    SETDIJ:  cpu time    0.0402: real time    0.0402
     EDDAV:  cpu time   15.2340: real time   15.2646
       DOS:  cpu time    0.0229: real time    0.0229
    CHARGE:  cpu time    5.3296: real time    5.3384
    MIXING:  cpu time    0.3945: real time    0.3953
    --------------------------------------------
      LOOP:  cpu time   33.7700: real time   33.8325

 eigenvalue-minimisations  :    96
 total energy-change (2. order) :-0.1478653E-03  (-0.1588123E-06)
 number of electron      32.0000000 magnetization 
 augmentation part        5.3380805 magnetization 

 Broyden mixing:
  rms(total) = 0.24212E-03    rms(broyden)= 0.24212E-03
  rms(prec ) = 0.26948E-03
  weight for this iteration     100.00

 eigenvalues of (default mixing * dielectric matrix)
  average eigenvalue GAMMA=   1.9287
  7.7047  4.3657  2.8246  2.4929  2.1895  1.4442  1.3504  0.9429  0.9429  0.7872
  0.7872  0.8540  0.7819  0.7819  0.6807

 Free energy of the ion-electron system (eV)
  ---------------------------------------------------
  alpha Z        PSCENC =         0.07205883
  Ewald energy   TEWEN  =      1915.00232419
  -Hartree energ DENC   =     -3590.87069314
  -exchange      EXHF   =         0.00000000
  -V(xc)+E(xc)   XCENC  =       140.16606849
  PAW double counting   =      9634.50006180    -9655.03851704
  entropy T*S    EENTRO =        -0.00000000
  eigenvalues    EBANDS =      -511.77153673
  atomic energy  EATOM  =      2023.82507259
  Solvation  Ediel_sol  =         0.00000000
  ---------------------------------------------------
  free energy    TOTEN  =       -44.11516101 eV

  energy without entropy =      -44.11516101  energy(sigma->0) =      -44.11516101


--------------------------------------------------------------------------------------------------------




--------------------------------------- Iteration      1(  21)  ---------------------------------------


    POTLOK:  cpu time   12.6568: real time   12.6800
    SETDIJ:  cpu time    0.0403: real time    0.0403
     EDDAV:  cpu time   15.2213: real time   15.2596
       DOS:  cpu time    0.0220: real time    0.0221
    CHARGE:  cpu time    5.4386: real time    5.4503
    MIXING:  cpu time    0.3906: real time    0.3914
    --------------------------------------------
      LOOP:  cpu time   33.7695: real time   33.8435

 eigenvalue-minimisations  :    96
 total energy-change (2. order) :-0.1676616E-03  (-0.4219030E-06)
 number of electron      32.0000000 magnetization 
 augmentation part        5.3380917 magnetization 

 Broyden mixing:
  rms(total) = 0.28453E-03    rms(broyden)= 0.28453E-03
  rms(prec ) = 0.28927E-03
  weight for this iteration     100.00

 eigenvalues of (default mixing * dielectric matrix)
  average eigenvalue GAMMA=   1.9380
  8.1858  4.6978  2.9049  2.4778  2.2193  1.5140  1.0770  1.0770  1.1524  0.8645
  0.8645  0.8716  0.8716  0.7736  0.7736  0.6834

 Free energy of the ion-electron system (eV)
  ---------------------------------------------------
  alpha Z        PSCENC =         0.07205883
  Ewald energy   TEWEN  =      1915.00232419
  -Hartree energ DENC   =     -3590.87375943
  -exchange      EXHF   =         0.00000000
  -V(xc)+E(xc)   XCENC  =       140.16566546
  PAW double counting   =      9634.26946916    -9654.80786109
  entropy T*S    EENTRO =        -0.00000000
  eigenvalues    EBANDS =      -511.76829839
  atomic energy  EATOM  =      2023.82507259
  Solvation  Ediel_sol  =         0.00000000
  ---------------------------------------------------
  free energy    TOTEN  =       -44.11532867 eV

  energy without entropy =      -44.11532867  energy(sigma->0) =      -44.11532867


--------------------------------------------------------------------------------------------------------




--------------------------------------- Iteration      1(  22)  ---------------------------------------


    POTLOK:  cpu time   12.7295: real time   12.7523
    SETDIJ:  cpu time    0.0403: real time    0.0403
     EDDAV:  cpu time   18.9846: real time   19.0329
       DOS:  cpu time    0.0308: real time    0.0308
    CHARGE:  cpu time    5.4017: real time    5.4104
    MIXING:  cpu time    0.4124: real time    0.4133
    --------------------------------------------
      LOOP:  cpu time   37.5992: real time   37.6799

 eigenvalue-minimisations  :   128
 total energy-change (2. order) :-0.3315893E-04  (-0.1767402E-07)
 number of electron      32.0000000 magnetization 
 augmentation part        5.3380806 magnetization 

 Broyden mixing:
  rms(total) = 0.17453E-03    rms(broyden)= 0.17453E-03
  rms(prec ) = 0.17837E-03
  weight for this iteration     100.00

 eigenvalues of (default mixing * dielectric matrix)
  average eigenvalue GAMMA=   1.9392
  8.2194  4.9044  2.9244  2.4881  2.1654  1.6932  1.5466  1.5466  1.0155  0.8046
  0.8046  0.9111  0.9111  0.8757  0.7313  0.7313  0.6933

 Free energy of the ion-electron system (eV)
  ---------------------------------------------------
  alpha Z        PSCENC =         0.07205883
  Ewald energy   TEWEN  =      1915.00232419
  -Hartree energ DENC   =     -3590.87726485
  -exchange      EXHF   =         0.00000000
  -V(xc)+E(xc)   XCENC  =       140.16569755
  PAW double counting   =      9634.29954584    -9654.83802791
  entropy T*S    EENTRO =        -0.00000000
  eigenvalues    EBANDS =      -511.76476807
  atomic energy  EATOM  =      2023.82507259
  Solvation  Ediel_sol  =         0.00000000
  ---------------------------------------------------
  free energy    TOTEN  =       -44.11536183 eV

  energy without entropy =      -44.11536183  energy(sigma->0) =      -44.11536183


--------------------------------------------------------------------------------------------------------




--------------------------------------- Iteration      1(  23)  ---------------------------------------


    POTLOK:  cpu time   12.6741: real time   12.7060
    SETDIJ:  cpu time    0.0404: real time    0.0404
     EDDAV:  cpu time   15.2842: real time   15.3220
       DOS:  cpu time    0.0188: real time    0.0189
    CHARGE:  cpu time    5.3807: real time    5.3889
    MIXING:  cpu time    0.4391: real time    0.4401
    --------------------------------------------
      LOOP:  cpu time   33.8373: real time   33.9162

 eigenvalue-minimisations  :    96
 total energy-change (2. order) :-0.2916404E-04  (-0.1330484E-07)
 number of electron      32.0000000 magnetization 
 augmentation part        5.3380758 magnetization 

 Broyden mixing:
  rms(total) = 0.74548E-04    rms(broyden)= 0.74548E-04
  rms(prec ) = 0.77952E-04
  weight for this iteration     100.00

 eigenvalues of (default mixing * dielectric matrix)
  average eigenvalue GAMMA=   2.0053
  8.8971  5.1467  3.3081  2.5413  2.5413  2.0652  1.5132  1.2605  1.2605  0.8515
  0.8515  0.9686  0.9686  0.8674  0.8674  0.7485  0.7485  0.6890

 Free energy of the ion-electron system (eV)
  ---------------------------------------------------
  alpha Z        PSCENC =         0.07205883
  Ewald energy   TEWEN  =      1915.00232419
  -Hartree energ DENC   =     -3590.87916342
  -exchange      EXHF   =         0.00000000
  -V(xc)+E(xc)   XCENC  =       140.16572227
  PAW double counting   =      9634.34782557    -9654.88638482
  entropy T*S    EENTRO =        -0.00000000
  eigenvalues    EBANDS =      -511.76284621
  atomic energy  EATOM  =      2023.82507259
  Solvation  Ediel_sol  =         0.00000000
  ---------------------------------------------------
  free energy    TOTEN  =       -44.11539099 eV

  energy without entropy =      -44.11539099  energy(sigma->0) =      -44.11539099


--------------------------------------------------------------------------------------------------------




--------------------------------------- Iteration      1(  24)  ---------------------------------------


    POTLOK:  cpu time   12.6814: real time   12.7096
    SETDIJ:  cpu time    0.0402: real time    0.0403
     EDDAV:  cpu time   15.2239: real time   15.2643
       DOS:  cpu time    0.0205: real time    0.0205
    CHARGE:  cpu time    5.3788: real time    5.3874
    MIXING:  cpu time    0.4414: real time    0.4423
    --------------------------------------------
      LOOP:  cpu time   33.7863: real time   33.8644

 eigenvalue-minimisations  :    96
 total energy-change (2. order) :-0.1813716E-04  (-0.8702965E-08)
 number of electron      32.0000000 magnetization 
 augmentation part        5.3380757 magnetization 

 Broyden mixing:
  rms(total) = 0.75657E-04    rms(broyden)= 0.75657E-04
  rms(prec ) = 0.76664E-04
  weight for this iteration     100.00

 eigenvalues of (default mixing * dielectric matrix)
  average eigenvalue GAMMA=   2.0735
  9.0768  5.9477  3.9152  2.6828  2.4569  2.1993  1.6265  1.5266  1.5266  1.0422
  0.8286  0.8286  0.9235  0.9235  0.8698  0.7703  0.7703  0.7944  0.6873

 Free energy of the ion-electron system (eV)
  ---------------------------------------------------
  alpha Z        PSCENC =         0.07205883
  Ewald energy   TEWEN  =      1915.00232419
  -Hartree energ DENC   =     -3590.88128181
  -exchange      EXHF   =         0.00000000
  -V(xc)+E(xc)   XCENC  =       140.16572861
  PAW double counting   =      9634.36500222    -9654.90357141
  entropy T*S    EENTRO =        -0.00000000
  eigenvalues    EBANDS =      -511.76074235
  atomic energy  EATOM  =      2023.82507259
  Solvation  Ediel_sol  =         0.00000000
  ---------------------------------------------------
  free energy    TOTEN  =       -44.11540913 eV

  energy without entropy =      -44.11540913  energy(sigma->0) =      -44.11540913


--------------------------------------------------------------------------------------------------------




--------------------------------------- Iteration      1(  25)  ---------------------------------------


    POTLOK:  cpu time   12.6755: real time   12.6971
    SETDIJ:  cpu time    0.0402: real time    0.0403
     EDDAV:  cpu time   15.2354: real time   15.2679
       DOS:  cpu time    0.0261: real time    0.0261
    CHARGE:  cpu time    5.4153: real time    5.4238
    MIXING:  cpu time    0.4684: real time    0.4694
    --------------------------------------------
      LOOP:  cpu time   33.8609: real time   33.9245

 eigenvalue-minimisations  :    96
 total energy-change (2. order) :-0.8464124E-05  (-0.6759176E-08)
 number of electron      32.0000000 magnetization 
 augmentation part        5.3380791 magnetization 

 Broyden mixing:
  rms(total) = 0.33424E-04    rms(broyden)= 0.33424E-04
  rms(prec ) = 0.34076E-04
  weight for this iteration     100.00

 eigenvalues of (default mixing * dielectric matrix)
  average eigenvalue GAMMA=   2.0505
  9.2708  6.0177  4.0317  2.7623  2.4852  2.2119  1.6608  1.5301  1.5301  1.1663
  0.8459  0.8459  0.9304  0.9304  0.9601  0.7647  0.7647  0.8085  0.8085  0.6848

 Free energy of the ion-electron system (eV)
  ---------------------------------------------------
  alpha Z        PSCENC =         0.07205883
  Ewald energy   TEWEN  =      1915.00232419
  -Hartree energ DENC   =     -3590.88079694
  -exchange      EXHF   =         0.00000000
  -V(xc)+E(xc)   XCENC  =       140.16569093
  PAW double counting   =      9634.35509876    -9654.89363197
  entropy T*S    EENTRO =        -0.00000000
  eigenvalues    EBANDS =      -511.76123399
  atomic energy  EATOM  =      2023.82507259
  Solvation  Ediel_sol  =         0.00000000
  ---------------------------------------------------
  free energy    TOTEN  =       -44.11541759 eV

  energy without entropy =      -44.11541759  energy(sigma->0) =      -44.11541759


--------------------------------------------------------------------------------------------------------




--------------------------------------- Iteration      1(  26)  ---------------------------------------


    POTLOK:  cpu time   12.6453: real time   12.6676
    SETDIJ:  cpu time    0.0403: real time    0.0403
     EDDAV:  cpu time   18.9865: real time   19.0237
       DOS:  cpu time    0.0231: real time    0.0231
    CHARGE:  cpu time    5.3970: real time    5.4071
    MIXING:  cpu time    0.4609: real time    0.4619
    --------------------------------------------
      LOOP:  cpu time   37.5531: real time   37.6237

 eigenvalue-minimisations  :   128
 total energy-change (2. order) :-0.2689179E-05  (-0.3870582E-08)
 number of electron      32.0000000 magnetization 
 augmentation part        5.3380791 magnetization 

 Broyden mixing:
  rms(total) = 0.22734E-04    rms(broyden)= 0.22734E-04
  rms(prec ) = 0.23212E-04
  weight for this iteration     100.00

 eigenvalues of (default mixing * dielectric matrix)
  average eigenvalue GAMMA=   2.0969
  9.4541  6.2410  4.1434  3.1588  2.4870  2.4870  2.0003  1.6609  1.5461  1.5461
  0.8349  0.8349  0.9997  0.9997  0.8896  0.8896  0.8267  0.8267  0.7615  0.7615
  0.6864

 Free energy of the ion-electron system (eV)
  ---------------------------------------------------
  alpha Z        PSCENC =         0.07205883
  Ewald energy   TEWEN  =      1915.00232419
  -Hartree energ DENC   =     -3590.88098619
  -exchange      EXHF   =         0.00000000
  -V(xc)+E(xc)   XCENC  =       140.16568878
  PAW double counting   =      9634.35535705    -9654.89388197
  entropy T*S    EENTRO =        -0.00000000
  eigenvalues    EBANDS =      -511.76105357
  atomic energy  EATOM  =      2023.82507259
  Solvation  Ediel_sol  =         0.00000000
  ---------------------------------------------------
  free energy    TOTEN  =       -44.11542028 eV

  energy without entropy =      -44.11542028  energy(sigma->0) =      -44.11542028


--------------------------------------------------------------------------------------------------------




--------------------------------------- Iteration      1(  27)  ---------------------------------------


    POTLOK:  cpu time   12.6491: real time   12.6706
    SETDIJ:  cpu time    0.0404: real time    0.0404
     EDDAV:  cpu time   11.5613: real time   11.5840
       DOS:  cpu time    0.0234: real time    0.0234
    CHARGE:  cpu time    5.4051: real time    5.4139
    MIXING:  cpu time    0.4989: real time    0.4999
    --------------------------------------------
      LOOP:  cpu time   30.1781: real time   30.2323

 eigenvalue-minimisations  :    64
 total energy-change (2. order) :-0.2814267E-05  (-0.3282995E-08)
 number of electron      32.0000000 magnetization 
 augmentation part        5.3380792 magnetization 

 Broyden mixing:
  rms(total) = 0.13133E-04    rms(broyden)= 0.13133E-04
  rms(prec ) = 0.13344E-04
  weight for this iteration     100.00

 eigenvalues of (default mixing * dielectric matrix)
  average eigenvalue GAMMA=   2.0966
  9.5692  6.5337  4.5811  3.1828  2.5351  2.5351  2.1618  1.6848  1.5402  1.5402
  0.8404  0.8404  1.0214  1.0214  0.9268  0.9268  0.6858  0.7586  0.7586  0.8551
  0.8551  0.7713

 Free energy of the ion-electron system (eV)
  ---------------------------------------------------
  alpha Z        PSCENC =         0.07205883
  Ewald energy   TEWEN  =      1915.00232419
  -Hartree energ DENC   =     -3590.88095964
  -exchange      EXHF   =         0.00000000
  -V(xc)+E(xc)   XCENC  =       140.16568198
  PAW double counting   =      9634.35132797    -9654.88984278
  entropy T*S    EENTRO =        -0.00000000
  eigenvalues    EBANDS =      -511.76108625
  atomic energy  EATOM  =      2023.82507259
  Solvation  Ediel_sol  =         0.00000000
  ---------------------------------------------------
  free energy    TOTEN  =       -44.11542310 eV

  energy without entropy =      -44.11542310  energy(sigma->0) =      -44.11542310


--------------------------------------------------------------------------------------------------------




--------------------------------------- Iteration      1(  28)  ---------------------------------------


    POTLOK:  cpu time   12.6699: real time   12.6920
    SETDIJ:  cpu time    0.0404: real time    0.0404
     EDDAV:  cpu time   19.0219: real time   19.0612
       DOS:  cpu time    0.0289: real time    0.0289
    CHARGE:  cpu time    5.3576: real time    5.3714
    MIXING:  cpu time    0.5002: real time    0.5013
    --------------------------------------------
      LOOP:  cpu time   37.6188: real time   37.6952

 eigenvalue-minimisations  :   128
 total energy-change (2. order) :-0.6662594E-06  (-0.3026933E-08)
 number of electron      32.0000000 magnetization 
 augmentation part        5.3380790 magnetization 

 Broyden mixing:
  rms(total) = 0.76845E-05    rms(broyden)= 0.76845E-05
  rms(prec ) = 0.78587E-05
  weight for this iteration     100.00

 eigenvalues of (default mixing * dielectric matrix)
  average eigenvalue GAMMA=   2.1148
  9.6289  6.7316  4.7605  3.3856  2.6402  2.6402  2.4423  1.9098  1.4916  1.4916
  1.4701  0.8369  0.8369  1.0483  0.9518  0.9518  0.8709  0.8709  0.7683  0.7683
  0.7558  0.6934  0.6954

 Free energy of the ion-electron system (eV)
  ---------------------------------------------------
  alpha Z        PSCENC =         0.07205883
  Ewald energy   TEWEN  =      1915.00232419
  -Hartree energ DENC   =     -3590.88105330
  -exchange      EXHF   =         0.00000000
  -V(xc)+E(xc)   XCENC  =       140.16568550
  PAW double counting   =      9634.35356938    -9654.89208605
  entropy T*S    EENTRO =        -0.00000000
  eigenvalues    EBANDS =      -511.76099491
  atomic energy  EATOM  =      2023.82507259
  Solvation  Ediel_sol  =         0.00000000
  ---------------------------------------------------
  free energy    TOTEN  =       -44.11542376 eV

  energy without entropy =      -44.11542376  energy(sigma->0) =      -44.11542376


--------------------------------------------------------------------------------------------------------




--------------------------------------- Iteration      1(  29)  ---------------------------------------


    POTLOK:  cpu time   12.6378: real time   12.6591
    SETDIJ:  cpu time    0.0403: real time    0.0403
     EDDAV:  cpu time   11.5263: real time   11.5491
       DOS:  cpu time    0.0142: real time    0.0142
    CHARGE:  cpu time    5.4263: real time    5.4349
    MIXING:  cpu time    0.5361: real time    0.5372
    --------------------------------------------
      LOOP:  cpu time   30.1811: real time   30.2349

 eigenvalue-minimisations  :    64
 total energy-change (2. order) :-0.6252303E-06  (-0.2988330E-08)
 number of electron      32.0000000 magnetization 
 augmentation part        5.3380786 magnetization 

 Broyden mixing:
  rms(total) = 0.53786E-05    rms(broyden)= 0.53786E-05
  rms(prec ) = 0.54654E-05
  weight for this iteration     100.00

 eigenvalues of (default mixing * dielectric matrix)
  average eigenvalue GAMMA=   2.1369
  9.6424  7.0549  5.0712  3.7761  2.6717  2.6717  2.4787  2.0693  1.5451  1.5451
  1.6077  0.8374  0.8374  1.0233  1.0122  1.0122  0.9543  0.9543  0.7750  0.7750
  0.7932  0.6880  0.7600  0.7286

 Free energy of the ion-electron system (eV)
  ---------------------------------------------------
  alpha Z        PSCENC =         0.07205883
  Ewald energy   TEWEN  =      1915.00232419
  -Hartree energ DENC   =     -3590.88109457
  -exchange      EXHF   =         0.00000000
  -V(xc)+E(xc)   XCENC  =       140.16568860
  PAW double counting   =      9634.35374291    -9654.89226578
  entropy T*S    EENTRO =        -0.00000000
  eigenvalues    EBANDS =      -511.76095117
  atomic energy  EATOM  =      2023.82507259
  Solvation  Ediel_sol  =         0.00000000
  ---------------------------------------------------
  free energy    TOTEN  =       -44.11542439 eV

  energy without entropy =      -44.11542439  energy(sigma->0) =      -44.11542439


--------------------------------------------------------------------------------------------------------




--------------------------------------- Iteration      1(  30)  ---------------------------------------


    POTLOK:  cpu time   12.6838: real time   12.7054
    SETDIJ:  cpu time    0.0403: real time    0.0403
     EDDAV:  cpu time   18.9517: real time   19.0058
       DOS:  cpu time    0.0288: real time    0.0288
    CHARGE:  cpu time    5.3581: real time    5.3678
    MIXING:  cpu time    0.5560: real time    0.5572
    --------------------------------------------
      LOOP:  cpu time   37.6186: real time   37.7053

 eigenvalue-minimisations  :   128
 total energy-change (2. order) :-0.2752668E-06  (-0.2929223E-08)
 number of electron      32.0000000 magnetization 
 augmentation part        5.3380785 magnetization 

 Broyden mixing:
  rms(total) = 0.51987E-05    rms(broyden)= 0.51987E-05
  rms(prec ) = 0.52331E-05
  weight for this iteration     100.00

 eigenvalues of (default mixing * dielectric matrix)
  average eigenvalue GAMMA=   2.1016
  9.7144  7.1357  5.2524  3.7281  2.8273  2.4170  2.2225  2.2225  1.7241  1.5355
  1.5355  1.2003  1.2003  0.8399  0.8399  0.9362  0.9362  0.9478  0.6872  0.8137
  0.8137  0.7684  0.7684  0.7370  0.7370

 Free energy of the ion-electron system (eV)
  ---------------------------------------------------
  alpha Z        PSCENC =         0.07205883
  Ewald energy   TEWEN  =      1915.00232419
  -Hartree energ DENC   =     -3590.88107080
  -exchange      EXHF   =         0.00000000
  -V(xc)+E(xc)   XCENC  =       140.16568848
  PAW double counting   =      9634.35369416    -9654.89221791
  entropy T*S    EENTRO =        -0.00000000
  eigenvalues    EBANDS =      -511.76097422
  atomic energy  EATOM  =      2023.82507259
  Solvation  Ediel_sol  =         0.00000000
  ---------------------------------------------------
  free energy    TOTEN  =       -44.11542466 eV

  energy without entropy =      -44.11542466  energy(sigma->0) =      -44.11542466


--------------------------------------------------------------------------------------------------------




--------------------------------------- Iteration      1(  31)  ---------------------------------------


    POTLOK:  cpu time   12.6614: real time   12.6840
    SETDIJ:  cpu time    0.0403: real time    0.0403
     EDDAV:  cpu time   19.0224: real time   19.0655
       DOS:  cpu time    0.0289: real time    0.0289
    --------------------------------------------
      LOOP:  cpu time   31.7529: real time   31.8186

 eigenvalue-minimisations  :   128
 total energy-change (2. order) :-0.6861319E-07  (-0.2891422E-08)
 number of electron      32.0000000 magnetization 
 augmentation part        5.3380785 magnetization 

 Free energy of the ion-electron system (eV)
  ---------------------------------------------------
  alpha Z        PSCENC =         0.07205883
  Ewald energy   TEWEN  =      1915.00232419
  -Hartree energ DENC   =     -3590.88106234
  -exchange      EXHF   =         0.00000000
  -V(xc)+E(xc)   XCENC  =       140.16568792
  PAW double counting   =      9634.35410248    -9654.89262510
  entropy T*S    EENTRO =        -0.00000000
  eigenvalues    EBANDS =      -511.76098331
  atomic energy  EATOM  =      2023.82507259
  Solvation  Ediel_sol  =         0.00000000
  ---------------------------------------------------
  free energy    TOTEN  =       -44.11542473 eV

  energy without entropy =      -44.11542473  energy(sigma->0) =      -44.11542473


--------------------------------------------------------------------------------------------------------




 average (electrostatic) potential at core
  the test charge radii are     0.8471  0.8742
  (the norm of the test charge is              1.0000)
       1 -89.1563       2 -88.8413       3 -93.0850       4 -93.0403       5 -92.7458
       6 -92.7462
 
 
 
 E-fermi :  -8.8693     XC(G=0):  -0.0424     alpha+bet : -0.0126


 k-point     1 :       0.0000    0.0000    0.0000
  band No.  band energies     occupation 
      1     -29.6584      2.00000
      2     -29.3446      2.00000
      3     -28.5992      2.00000
      4     -28.2860      2.00000
      5     -13.9301      2.00000
      6     -13.5714      2.00000
      7     -12.9472      2.00000
      8     -12.9414      2.00000
      9     -12.7641      2.00000
     10     -12.6415      2.00000
     11     -12.4048      2.00000
     12     -12.2464      2.00000
     13      -9.3026      2.00000
     14      -9.2944      2.00000
     15      -8.9877      2.00000
     16      -8.9607      2.00000
     17      -1.2741      0.00000
     18      -0.8677      0.00000
     19      -0.8503      0.00000
     20      -0.6286      0.00000
     21      -0.5483      0.00000
     22      -0.4936      0.00000
     23       0.0054      0.00000
     24       0.1047      0.00000
     25       0.1122      0.00000
     26       0.1216      0.00000
     27       0.1226      0.00000
     28       0.1287      0.00000
     29       0.1462      0.00000
     30       0.1968      0.00000
     31       0.2107      0.00000
     32       0.2432      0.00000


--------------------------------------------------------------------------------------------------------


 soft charge-density along one line, spin component            1
         0         1         2         3         4         5         6         7         8         9
 total charge-density along one line
 
 pseudopotential strength for first ion, spin component:            1
 20.421  24.038   0.000   0.000   0.000  -0.000   0.000   0.000
 24.038  28.299   0.000   0.000   0.000  -0.000   0.000   0.000
  0.000   0.000  -3.800   0.000   0.000  -4.752   0.000   0.000
  0.000   0.000   0.000  -3.463  -0.000   0.000  -4.297  -0.000
  0.000   0.000   0.000  -0.000  -3.464   0.000  -0.000  -4.297
 -0.000  -0.000  -4.752   0.000   0.000  -5.874   0.000   0.000
  0.000   0.000   0.000  -4.297  -0.000   0.000  -5.261  -0.000
  0.000   0.000   0.000  -0.000  -4.297   0.000  -0.000  -5.261
 total augmentation occupancy for first ion, spin component:            1
 27.135 -19.346   0.006  -0.000   0.000   0.001   0.000   0.000
-19.346  14.410  -0.003   0.000  -0.000  -0.003  -0.000  -0.000
  0.006  -0.003  27.316  -0.000  -0.000 -16.546   0.000   0.000
 -0.000   0.000  -0.000   5.713   0.000   0.000  -2.570  -0.000
  0.000  -0.000  -0.000   0.000   5.715  -0.000  -0.000  -2.571
  0.001  -0.003 -16.546   0.000  -0.000  10.175  -0.000  -0.000
  0.000  -0.000   0.000  -2.570  -0.000  -0.000   1.156   0.000
  0.000  -0.000   0.000  -0.000  -2.571  -0.000   0.000   1.157


------------------------ aborting loop because EDIFF is reached ----------------------------------------



 DIPCOR: dipole corrections for dipol
 direction  1 min pos   351, direction  2 min pos   415, direction  3 min pos   383,
 dipolmoment          -0.000024      0.040930     -0.000042 electrons x Angstroem
 Tr[quadrupol]        17.229094

 energy correction for charged system         0.000000 eV
 dipol+quadrupol energy correction            0.000001 eV
 added-field ion interaction          0.000000 eV  (added to PSCEN)

 
  *************** adding dipol energy to TOTEN NOW **************** 
    CHARGE:  cpu time    5.3615: real time    5.3699
    FORLOC:  cpu time    0.4416: real time    0.4422
    FORNL :  cpu time    0.5635: real time    0.5647
    STRESS:  cpu time   10.0745: real time   10.1056
    FORHAR:  cpu time    3.2198: real time    3.2257
    MIXING:  cpu time    0.5918: real time    0.5930
    OFIELD:  cpu time    0.0000: real time    0.0000

  Hirshfeld charges:
            ion         q(e)     
   ------------------------------
      1     C           0.303
      2     C           0.291
      3     O          -0.144
      4     O          -0.145
      5     O          -0.153
      6     O          -0.153

  Hirshfeld-I charges:
            ion         q(e)        dq(e)    
   ------------------------------------------
      1     C           0.866     -0.405E-04
      2     C           0.867     -0.240E-04
      3     O          -0.444      0.215E-04
      4     O          -0.424      0.200E-04
      5     O          -0.432      0.115E-04
      6     O          -0.432      0.115E-04

   Hirshfeld-I converged in  15 cycles. Convergence criterion |dq|< 0.500E-04 e

  Atomic reference data used in the T-S method for vdW correction:
            C6at              R0at           ALPHAat      REFSTATE
            (au)              (au)            (au)                
   ---------------------------------------------------------------
   C          46.600          3.590         12.000         0
   O          15.600          3.194          5.400         0

  Tkatchenko/Scheffler method for vdW energy calculation
  ---------------------------------------------------------------------------------------------

  Parameters of vdW forcefield:
            C6ts              R0ts           ALPHAts        RELVOL
            (au)              (au)            (au)                
   ---------------------------------------------------------------
   C           8.733          2.716          5.195          0.43289932
   C           8.812          2.720          5.218          0.43486568
   O          19.917          3.326          6.102          1.12993497
   O          18.520          3.286          5.884          1.08957660
   O          19.037          3.301          5.965          1.10468998
   O          19.034          3.301          5.965          1.10459682

  vdW correction parametrized for the method pbe       

  IVDW =  21
  VDW_RADIUS =    50.000 A
  VDW_IDAMPF =  0
  VDW_S6 =     1.000
  VDW_SR =     0.950
  VDW_D =    20.000
  LVDW_ONECELL = F F F
  LVDW_SAMETYPE T T
  LVDW_EWALD = F

  Number of pair interactions contributing to vdW energy:     321
  Edisp (eV):   -0.01779
    FORVDW:  cpu time   79.4990: real time   79.5470

  FORCE on cell =-STRESS in cart. coord.  units (eV):
  Direction    XX          YY          ZZ          XY          YZ          ZX
  --------------------------------------------------------------------------------------
  Alpha Z     0.07206     0.07206     0.07206
  Ewald    -201.03034  1446.15897   669.87450    -0.24396    -4.11859   -11.31316
  Hartree   662.48366  1819.15761  1109.23969    -0.25802    -1.10576    -5.78958
  E(xc)    -148.95577  -146.75960  -146.78450     0.00020    -0.01627    -0.02827
  Local   -1153.55869 -3879.72547 -2393.60248     0.50985     4.63213    16.09224
  n-local   117.58691   105.59209   105.59902    -0.00120     0.09084     0.15607
  augment   182.09883   173.14790   173.15947    -0.00091     0.06862     0.11639
  Kinetic   541.30111   490.53916   490.63488    -0.00519     0.38892     0.65963
  Fock        0.00000     0.00000     0.00000     0.00000     0.00000     0.00000
  vdW        -0.00000     0.02330     0.00520    -0.00002     0.00034    -0.00007
  -------------------------------------------------------------------------------------
  Total      -0.00223     8.20601     8.19783     0.00076    -0.05977    -0.10674
  in kB      -0.00008     0.30665     0.30634     0.00003    -0.00223    -0.00399
  external pressure =        0.20 kB  Pullay stress =        0.00 kB


 VOLUME and BASIS-vectors are now :
 -----------------------------------------------------------------------------
  energy-cutoff  :     1000.00
  volume of cell :    42875.00
      direct lattice vectors                 reciprocal lattice vectors
    35.000000000  0.000000000  0.000000000     0.028571429  0.000000000  0.000000000
     0.000000000 35.000000000  0.000000000     0.000000000  0.028571429  0.000000000
     0.000000000  0.000000000 35.000000000     0.000000000  0.000000000  0.028571429

  length of vectors
    35.000000000 35.000000000 35.000000000     0.028571429  0.028571429  0.028571429


 FORCES acting on ions
    electron-ion (+dipol)            ewald-force                    non-local-force                 convergence-correction
 -----------------------------------------------------------------------------------------------
   -.168E-01 0.460E+02 0.122E+00   0.167E-01 -.462E+02 -.123E+00   0.245E-04 0.171E+00 0.777E-03   -.326E-08 0.668E-05 0.224E-07
   0.249E-01 -.599E+02 -.124E+00   -.248E-01 0.599E+02 0.125E+00   0.218E-05 0.155E-01 -.283E-03   -.667E-08 -.369E-06 -.415E-06
   -.617E-01 -.137E+03 0.477E+00   0.620E-01 0.223E+03 -.471E+00   -.257E-03 -.822E+02 -.648E-02   -.410E-08 0.641E-05 0.804E-08
   -.124E-01 0.304E+03 0.877E-01   0.124E-01 -.390E+03 -.874E-01   0.103E-04 0.832E+02 -.164E-03   -.115E-07 -.285E-07 0.723E-07
   0.375E+01 -.755E+02 -.286E+03   -.487E+01 0.745E+02 0.372E+03   0.108E+01 0.990E+00 -.827E+02   0.904E-07 -.953E-06 -.107E-04
   -.368E+01 -.791E+02 0.285E+03   0.480E+01 0.794E+02 -.371E+03   -.108E+01 -.270E+00 0.827E+02   -.122E-06 -.113E-05 0.104E-04
 -----------------------------------------------------------------------------------------------
   0.792E-03 -.187E+01 0.139E-03   0.000E+00 0.284E-13 0.000E+00   -.727E-03 0.187E+01 -.237E-04   -.572E-07 0.106E-04 -.641E-06
 
 
 POSITION                                       TOTAL-FORCE (eV/Angst)
 -----------------------------------------------------------------------------------
      0.00000      0.05699      0.00000        -0.000016     -0.087971     -0.000032
     34.99851      4.32718      0.00754         0.000015     -0.058871      0.001084
      0.00000      1.22721      0.00000         0.000008      3.507692     -0.000899
      0.00000     33.88677      0.00000        -0.000007     -3.438533      0.000075
     34.98327      4.31833      1.17763        -0.045672      0.013298      3.504646
      0.01374      4.33603     33.83746         0.045672      0.064386     -3.504873
 -----------------------------------------------------------------------------------
    total drift:                                0.000065      0.000076      0.000115


--------------------------------------------------------------------------------------------------------



  FREE ENERGIE OF THE ION-ELECTRON SYSTEM (eV)
  ---------------------------------------------------
  free  energy   TOTEN  =       -44.13321763 eV

  energy  without entropy=      -44.13321763  energy(sigma->0) =      -44.13321763
 


--------------------------------------------------------------------------------------------------------


    POTLOK:  cpu time   13.7766: real time   13.8002


--------------------------------------------------------------------------------------------------------


 writing wavefunctions
     LOOP+:  cpu time 1399.1535: real time 1401.4669
    4ORBIT:  cpu time    0.0000: real time    0.0000

 total amount of memory used by VASP MPI-rank0  4007897. kBytes
=======================================================================

   base      :      30000. kBytes
   nonl-proj :     344787. kBytes
   fftplans  :     676185. kBytes
   grid      :    2932288. kBytes
   one-center:          9. kBytes
   wavefun   :      24628. kBytes
 
  
  
 General timing and accounting informations for this job:
 ========================================================
  
                  Total CPU time used (sec):     2518.277
                            User time (sec):     2352.411
                          System time (sec):      165.866
                         Elapsed time (sec):     2523.215
  
                   Maximum memory used (kb):     5437984.
                   Average memory used (kb):           0.
  
                          Minor page faults:     81150016
                          Major page faults:          912
                 Voluntary context switches:        12306
