 vasp.6.1.2 22Jul20 (build Jan  6 2021 09:55:43) gamma-only                      
 executed on             LinuxPGI date 2023.10.20  03:53:40
 running on   32 total cores
 distrk:  each k-point on   32 cores,    1 groups
 distr:  one band on NCORE=   1 cores,   32 groups


--------------------------------------------------------------------------------------------------------


 INCAR:
 POTCAR:    PAW_PBE C_s 06Sep2000                 
 POTCAR:    PAW_PBE O_s 07Sep2000                 
 -----------------------------------------------------------------------------
|                                                                             |
|           W    W    AA    RRRRR   N    N  II  N    N   GGGG   !!!           |
|           W    W   A  A   R    R  NN   N  II  NN   N  G    G  !!!           |
|           W    W  A    A  R    R  N N  N  II  N N  N  G       !!!           |
|           W WW W  AAAAAA  RRRRR   N  N N  II  N  N N  G  GGG   !            |
|           WW  WW  A    A  R   R   N   NN  II  N   NN  G    G                |
|           W    W  A    A  R    R  N    N  II  N    N   GGGG   !!!           |
|                                                                             |
|     For optimal performance we recommend to set                             |
|       NCORE = 4 - approx SQRT(number of cores).                             |
|     NCORE specifies how many cores store one orbital (NPAR=cpu/NCORE).      |
|     This setting can greatly improve the performance of VASP for DFT.       |
|     The default, NCORE=1 might be grossly inefficient on modern             |
|     multi-core architectures or massively parallel machines. Do your        |
|     own testing!!!!                                                         |
|     Unfortunately you need to use the default for GW and RPA                |
|     calculations (for HF NCORE is supported but not extensively tested      |
|     yet).                                                                   |
|                                                                             |
 -----------------------------------------------------------------------------

 POTCAR:    PAW_PBE C_s 06Sep2000                 
   VRHFIN =C: s2p2                                                                                  
   LEXCH  = PE                                                                                      
   EATOM  =   147.1560 eV,   10.8157 Ry                                                             
                                                                                                    
   TITEL  = PAW_PBE C_s 06Sep2000                                                                   
   LULTRA =        F    use ultrasoft PP ?                                                          
   IUNSCR =        0    unscreen: 0-lin 1-nonlin 2-no                                               
   RPACOR =    0.000    partial core radius                                                         
   POMASS =   12.011; ZVAL   =    4.000    mass and valenz                                          
   RCORE  =    1.850    outmost cutoff radius                                                       
   RWIGS  =    1.890; RWIGS  =    1.000    wigner-seitz radius (au A)                               
   ENMAX  =  273.911; ENMIN  =  205.433 eV                                                          
   RCLOC  =    0.804    cutoff for local pot                                                        
   LCOR   =        T    correct aug charges                                                         
   LPAW   =        T    paw PP                                                                      
   EAUG   =  439.243                                                                                
   DEXC   =    0.000                                                                                
   RMAX   =    1.897    core radius for proj-oper                                                   
   RAUG   =    1.300    factor for augmentation sphere                                              
   RDEP   =    1.940    radius for radial grids                                                     
   RDEPT  =    1.573    core radius for aug-charge                                                  
                                                                                                    
   Atomic configuration                                                                             
    4 entries                                                                                       
     n  l   j            E        occ.                                                              
     1  0  0.50      -273.3789   2.0000                                                             
     2  0  0.50       -13.7508   2.0000                                                             
     2  1  0.50        -5.2854   2.0000                                                             
     3  2  1.50        -1.3606   0.0000                                                             
   Description                                                                                      
     l       E           TYP  RCUT    TYP  RCUT                                                     
     0    -13.7508457     23  1.500                                                                 
     0    -11.0934578     23  1.500                                                                 
     1     -5.2854381     23  1.850                                                                 
     1     -1.3099858     23  1.850                                                                 
  local pseudopotential read in
  atomic valenz-charges read in
  non local Contribution for L=            0  read in
    real space projection operators read in
  non local Contribution for L=            0  read in
    real space projection operators read in
  non local Contribution for L=            1  read in
    real space projection operators read in
  non local Contribution for L=            1  read in
    real space projection operators read in
    PAW grid and wavefunctions read in
 
   number of l-projection  operators is LMAX  =            4
   number of lm-projection operators is LMMAX =            8
 
 POTCAR:    PAW_PBE O_s 07Sep2000                 
   VRHFIN =O: s2p4                                                                                  
   LEXCH  = PE                                                                                      
   EATOM  =   432.3788 eV,   31.7789 Ry                                                             
                                                                                                    
   TITEL  = PAW_PBE O_s 07Sep2000                                                                   
   LULTRA =        F    use ultrasoft PP ?                                                          
   IUNSCR =        0    unscreen: 0-lin 1-nonlin 2-no                                               
   RPACOR =    0.000    partial core radius                                                         
   POMASS =   16.000; ZVAL   =    6.000    mass and valenz                                          
   RCORE  =    1.850    outmost cutoff radius                                                       
   RWIGS  =    1.700; RWIGS  =    0.900    wigner-seitz radius (au A)                               
   ENMAX  =  282.853; ENMIN  =  212.140 eV                                                          
   RCLOC  =    0.804    cutoff for local pot                                                        
   LCOR   =        T    correct aug charges                                                         
   LPAW   =        T    paw PP                                                                      
   EAUG   =  412.352                                                                                
   RMAX   =    1.897    core radius for proj-oper                                                   
   RAUG   =    1.300    factor for augmentation sphere                                              
   RDEP   =    1.878    radius for radial grids                                                     
   RDEPT  =    1.572    core radius for aug-charge                                                  
                                                                                                    
   Atomic configuration                                                                             
    4 entries                                                                                       
     n  l   j            E        occ.                                                              
     1  0  0.50      -514.6923   2.0000                                                             
     2  0  0.50       -23.9615   2.0000                                                             
     2  1  0.50        -9.0305   4.0000                                                             
     3  2  1.50        -1.3606   0.0000                                                             
   Description                                                                                      
     l       E           TYP  RCUT    TYP  RCUT                                                     
     0    -23.9615315     23  1.500                                                                 
     0    -25.3221141     23  1.500                                                                 
     1     -9.0304908     23  1.850                                                                 
     1     -7.3935399     23  1.850                                                                 
  local pseudopotential read in
  atomic valenz-charges read in
  non local Contribution for L=            0  read in
    real space projection operators read in
  non local Contribution for L=            0  read in
    real space projection operators read in
  non local Contribution for L=            1  read in
    real space projection operators read in
  non local Contribution for L=            1  read in
    real space projection operators read in
    PAW grid and wavefunctions read in
 
   number of l-projection  operators is LMAX  =            4
   number of lm-projection operators is LMMAX =            8
 
  PAW_PBE C_s 06Sep2000                 :
 energy of atom  1       EATOM= -147.1560
 kinetic energy error for atom=    0.0002 (will be added to EATOM!!)
  PAW_PBE O_s 07Sep2000                 :
 energy of atom  2       EATOM= -432.3788
 kinetic energy error for atom=    0.0004 (will be added to EATOM!!)
 
 
 POSCAR:  C  O
  positions in cartesian coordinates
  No initial velocities read in
 exchange correlation table for  LEXCH =        8
   RHO(1)=    0.500       N(1)  =     2000
   RHO(2)=  100.500       N(2)  =     4000
 


--------------------------------------------------------------------------------------------------------


 ion  position               nearest neighbor table
   1  0.000  0.002  0.000-   3 1.17   4 1.17
   2  1.000  0.129  0.000-   5 1.17   6 1.17
   3  0.000  0.035  0.000-   1 1.17
   4  0.000  0.968  0.000-   1 1.17
   5  1.000  0.129  0.034-   2 1.17
   6  0.000  0.130  0.967-   2 1.17
 
  LATTYP: Found a simple cubic cell.
 ALAT       =    35.0000000000
  
  Lattice vectors:
  
 A1 = (  35.0000000000,   0.0000000000,   0.0000000000)
 A2 = (   0.0000000000,  35.0000000000,   0.0000000000)
 A3 = (   0.0000000000,   0.0000000000,  35.0000000000)


Analysis of symmetry for initial positions (statically):
=====================================================================
 Subroutine PRICEL returns:
 Original cell was already a primitive cell.
 

 Routine SETGRP: Setting up the symmetry group for a 
 simple cubic supercell.


 Subroutine GETGRP returns: Found  1 space group operations
 (whereof  1 operations were pure point group operations)
 out of a pool of 48 trial point group operations.


The static configuration has the point symmetry C_1 .


Analysis of symmetry for dynamics (positions and initial velocities):
=====================================================================
 Subroutine PRICEL returns:
 Original cell was already a primitive cell.
 

 Routine SETGRP: Setting up the symmetry group for a 
 simple cubic supercell.


 Subroutine GETGRP returns: Found  1 space group operations
 (whereof  1 operations were pure point group operations)
 out of a pool of 48 trial point group operations.


The dynamic configuration has the point symmetry C_1 .


 Subroutine INISYM returns: Found  1 space group operations
 (whereof  1 operations are pure point group operations),
 and found     1 'primitive' translations


----------------------------------------------------------------------------------------

                                     Primitive cell                                     

  volume of cell :   42875.0000

  direct lattice vectors                    reciprocal lattice vectors
    35.000000000  0.000000000  0.000000000     0.028571429  0.000000000  0.000000000
     0.000000000 35.000000000  0.000000000     0.000000000  0.028571429  0.000000000
     0.000000000  0.000000000 35.000000000     0.000000000  0.000000000  0.028571429

  length of vectors
    35.000000000 35.000000000 35.000000000     0.028571429  0.028571429  0.028571429

  position of ions in fractional coordinates (direct lattice)
     0.000000000  0.001628171  0.000000000
     0.999957287  0.129347898  0.000215536
     0.000000000  0.035063029  0.000000000
     0.000000000  0.968193314  0.000000000
     0.999522117  0.129095043  0.033646605
     0.000392457  0.129600752  0.966784468

  ion indices of the primitive-cell ions
   primitive index   ion index
                 1           1
                 2           2
                 3           3
                 4           4
                 5           5
                 6           6

----------------------------------------------------------------------------------------

 
 
 KPOINTS: g                                       

Automatic generation of k-mesh.
Space group operators:
 irot       det(A)        alpha          n_x          n_y          n_z        tau_x        tau_y        tau_z
    1     1.000000     0.000000     1.000000     0.000000     0.000000     0.000000     0.000000     0.000000
 
 Subroutine IBZKPT returns following result:
 ===========================================
 
 Found      1 irreducible k-points:
 
 Following reciprocal coordinates:
            Coordinates               Weight
  0.000000  0.000000  0.000000      1.000000
 
 Following cartesian coordinates:
            Coordinates               Weight
  0.000000  0.000000  0.000000      1.000000
 


--------------------------------------------------------------------------------------------------------




 Dimension of arrays:
   k-points           NKPTS =      1   k-points in BZ     NKDIM =      1   number of bands    NBANDS=     32
   number of dos      NEDOS =    301   number of ions     NIONS =      6
   non local maximal  LDIM  =      4   non local SUM 2l+1 LMDIM =      8
   total plane-waves  NPLWV = ******
   max r-space proj   IRMAX =      1   max aug-charges    IRDMAX=  29269
   dimension x,y,z NGX =   378 NGY =  378 NGZ =  378
   dimension x,y,z NGXF=   756 NGYF=  756 NGZF=  756
   support grid    NGXF=   756 NGYF=  756 NGZF=  756
   ions per type =               2   4
   NGX,Y,Z   is equivalent  to a cutoff of  17.95, 17.95, 17.95 a.u.
   NGXF,Y,Z  is equivalent  to a cutoff of  35.91, 35.91, 35.91 a.u.

 SYSTEM =  C                                       
 POSCAR =   C  O                                   

 Startparameter for this run:
   NWRITE =      2    write-flag & timer
   PREC   = acc       normal or accurate (medium, high low for compatibility)
   ISTART =      0    job   : 0-new  1-cont  2-samecut
   ICHARG =      2    charge: 1-file 2-atom 10-const
   ISPIN  =      1    spin polarized calculation?
   LNONCOLLINEAR =      F non collinear calculations
   LSORBIT =      F    spin-orbit coupling
   INIWAV =      1    electr: 0-lowe 1-rand  2-diag
   LASPH  =      T    aspherical Exc in radial PAW
   METAGGA=      F    non-selfconsistent MetaGGA calc.

 Electronic Relaxation 1
   ENCUT  = 1000.0 eV  73.50 Ry    8.57 a.u.  90.25 90.25 90.25*2*pi/ulx,y,z
   ENINI  = 1000.0     initial cutoff
   ENAUG  =  439.2 eV  augmentation charge cutoff
   NELM   =     60;   NELMIN=  2; NELMDL= -5     # of ELM steps 
   EDIFF  = 0.1E-06   stopping-criterion for ELM
   LREAL  =      F    real-space projection
   NLSPLINE    = F    spline interpolate recip. space projectors
   LCOMPAT=      F    compatible to vasp.4.4
   GGA_COMPAT  = T    GGA compatible to vasp.4.4-vasp.4.6
   LMAXPAW     = -100 max onsite density
   LMAXMIX     =    2 max onsite mixed and CHGCAR
   VOSKOWN=      0    Vosko Wilk Nusair interpolation
   ROPT   =    0.00000   0.00000
 Ionic relaxation
   EDIFFG = 0.1E-05   stopping-criterion for IOM
   NSW    =      0    number of steps for IOM
   NBLOCK =      1;   KBLOCK =      1    inner block; outer block 
   IBRION =     -1    ionic relax: 0-MD 1-quasi-New 2-CG
   NFREE  =      0    steps in history (QN), initial steepest desc. (CG)
   ISIF   =      2    stress and relaxation
   IWAVPR =     10    prediction:  0-non 1-charg 2-wave 3-comb
   ISYM   =      2    0-nonsym 1-usesym 2-fastsym
   LCORR  =      T    Harris-Foulkes like correction to forces

   POTIM  = 0.5000    time-step for ionic-motion
   TEIN   =    0.0    initial temperature
   TEBEG  =    0.0;   TEEND  =   0.0 temperature during run
   SMASS  =  -3.00    Nose mass-parameter (am)
   estimated Nose-frequenzy (Omega)   =  0.10E-29 period in steps = 0.13E+47 mass=  -0.280E-25a.u.
   SCALEE = 1.0000    scale energy and forces
   NPACO  =    256;   APACO  = 16.0  distance and # of slots for P.C.
   PSTRESS=    0.0 pullay stress

  Mass of Ions in am
   POMASS =  12.01 16.00
  Ionic Valenz
   ZVAL   =   4.00  6.00
  Atomic Wigner-Seitz radii
   RWIGS  =  -1.00 -1.00
  virtual crystal weights 
   VCA    =   1.00  1.00
   NELECT =      32.0000    total number of electrons
   NUPDOWN=      -1.0000    fix difference up-down

 DOS related values:
   EMIN   =  10.00;   EMAX   =-10.00  energy-range for DOS
   EFERMI =   0.00
   ISMEAR =     0;   SIGMA  =   0.01  broadening in eV -4-tet -1-fermi 0-gaus

 Electronic relaxation 2 (details)
   IALGO  =     38    algorithm
   LDIAG  =      T    sub-space diagonalisation (order eigenvalues)
   LSUBROT=      F    optimize rotation matrix (better conditioning)
   TURBO    =      0    0=normal 1=particle mesh
   IRESTART =      0    0=no restart 2=restart with 2 vectors
   NREBOOT  =      0    no. of reboots
   NMIN     =      0    reboot dimension
   EREF     =   0.00    reference energy to select bands
   IMIX   =      4    mixing-type and parameters
     AMIX     =   0.40;   BMIX     =  1.00
     AMIX_MAG =   1.60;   BMIX_MAG =  1.00
     AMIN     =   0.10
     WC   =   100.;   INIMIX=   1;  MIXPRE=   1;  MAXMIX= -45

 Intra band minimization:
   WEIMIN = 0.0000     energy-eigenvalue tresh-hold
   EBREAK =  0.78E-09  absolut break condition
   DEPER  =   0.30     relativ break condition  

   TIME   =   0.40     timestep for ELM

  volume/ion in A,a.u.               =    7145.83     48222.46
  Fermi-wavevector in a.u.,A,eV,Ry     =   0.148499  0.280622  0.300035  0.022052
  Thomas-Fermi vector in A             =   0.821704
 
 Write flags
   LWAVE        =      T    write WAVECAR
   LDOWNSAMPLE  =      F    k-point downsampling of WAVECAR
   LCHARG       =      T    write CHGCAR
   LVTOT        =      F    write LOCPOT, total local potential
   LVHAR        =      F    write LOCPOT, Hartree potential only
   LELF         =      F    write electronic localiz. function (ELF)
   LORBIT       =      0    0 simple, 1 ext, 2 COOP (PROOUT), +10 PAW based schemes


 Dipole corrections
   LMONO  =      F    monopole corrections only (constant potential shift)
   LDIPOL =      F    correct potential (dipole corrections)
   IDIPOL =      4    1-x, 2-y, 3-z, 4-all directions 
   EPSILON=  1.0000000 bulk dielectric constant

 Exchange correlation treatment:
   GGA     =    --    GGA type
   LEXCH   =     8    internal setting for exchange type
   VOSKOWN=      0    Vosko Wilk Nusair interpolation
   LHFCALC =     F    Hartree Fock is set to
   LHFONE  =     F    Hartree Fock one center treatment
   AEXX    =    0.0000 exact exchange contribution

 Linear response parameters
   LEPSILON=     F    determine dielectric tensor
   LRPA    =     F    only Hartree local field effects (RPA)
   LNABLA  =     F    use nabla operator in PAW spheres
   LVEL    =     F    velocity operator in full k-point grid
   LINTERFAST=   F  fast interpolation
   KINTER  =     0    interpolate to denser k-point grid
   CSHIFT  =0.1000    complex shift for real part using Kramers Kronig
   OMEGAMAX=  -1.0    maximum frequency
   DEG_THRESHOLD= 0.2000000E-02 threshold for treating states as degnerate
   RTIME   =   -0.100 relaxation time in fs
  (WPLASMAI=    0.000 imaginary part of plasma frequency in eV, 0.658/RTIME)
   DFIELD  = 0.0000000 0.0000000 0.0000000 field for delta impulse in time
 
 Orbital magnetization related:
   ORBITALMAG=     F  switch on orbital magnetization
   LCHIMAG   =     F  perturbation theory with respect to B field
   DQ        =  0.001000  dq finite difference perturbation B field
   LLRAUG    =     F  two centre corrections for induced B field



--------------------------------------------------------------------------------------------------------


 Static calculation
 charge density and potential will be updated during run
 non-spin polarized calculation
 Variant of blocked Davidson
 Davidson routine will perform the subspace rotation
 perform sub-space diagonalisation
    after iterative eigenvector-optimisation
 modified Broyden-mixing scheme, WC =      100.0
 initial mixing is a Kerker type mixing with AMIX =  0.4000 and BMIX =      1.0000
 Hartree-type preconditioning will be used
 using additional bands            16
 reciprocal scheme for non local part
 calculate Harris-corrections to forces 
   (improved forces if not selfconsistent)
 use gradient corrections 
 use of overlap-Matrix (Vanderbilt PP)
 Gauss-broadening in eV      SIGMA  =   0.01


--------------------------------------------------------------------------------------------------------


  energy-cutoff  :     1000.00
  volume of cell :    42875.00
      direct lattice vectors                 reciprocal lattice vectors
    35.000000000  0.000000000  0.000000000     0.028571429  0.000000000  0.000000000
     0.000000000 35.000000000  0.000000000     0.000000000  0.028571429  0.000000000
     0.000000000  0.000000000 35.000000000     0.000000000  0.000000000  0.028571429

  length of vectors
    35.000000000 35.000000000 35.000000000     0.028571429  0.028571429  0.028571429


 
 k-points in units of 2pi/SCALE and weight: g                                       
   0.00000000  0.00000000  0.00000000       1.000
 
 k-points in reciprocal lattice and weights: g                                       
   0.00000000  0.00000000  0.00000000       1.000
 
 position of ions in fractional coordinates (direct lattice) 
   0.00000000  0.00162817  0.00000000
   0.99995729  0.12934790  0.00021554
   0.00000000  0.03506303  0.00000000
   0.00000000  0.96819331  0.00000000
   0.99952212  0.12909504  0.03364661
   0.00039246  0.12960075  0.96678447
 
 position of ions in cartesian coordinates  (Angst):
   0.00000000  0.05698600  0.00000000
  34.99850504  4.52717643  0.00754377
   0.00000000  1.22720600  0.00000000
   0.00000000 33.88676600  0.00000000
  34.98327409  4.51832652  1.17763118
   0.01373599  4.53602633 33.83745636
 


--------------------------------------------------------------------------------------------------------


 use serial FFT for orbitals x direction half grid
 k-point   1 :   0.0000 0.0000 0.0000  plane waves: 1539209

 maximum and minimum number of plane-waves per node :   1539209  1539209

 maximum number of plane-waves:   1539209
 maximum index in each direction: 
   IXMAX=   90   IYMAX=   90   IZMAX=   90
   IXMIN=    0   IYMIN=  -90   IZMIN=  -90


 serial   3D FFT for wavefunctions
 parallel 3D FFT for charge:
    minimum data exchange during FFTs selected (reduces bandwidth)


 total amount of memory used by VASP MPI-rank0  4007897. kBytes
=======================================================================

   base      :      30000. kBytes
   nonl-proj :     344787. kBytes
   fftplans  :     676185. kBytes
   grid      :    2932288. kBytes
   one-center:          9. kBytes
   wavefun   :      24628. kBytes
 
     INWAV:  cpu time    0.0000: real time    0.0000
 Broyden mixing: mesh for mixing (old mesh)
   NGX =181   NGY =181   NGZ =181
  (NGX  =756   NGY  =756   NGZ  =756)
  gives a total of ****** points

 initial charge density was supplied:
 charge density of overlapping atoms calculated
 number of electron      32.0000000 magnetization 
 keeping initial charge density in first step


--------------------------------------------------------------------------------------------------------


 Maximum index for augmentation-charges          1122 (set IRDMAX)


--------------------------------------------------------------------------------------------------------


 First call to EWALD:  gamma=   0.051
 Maximum number of real-space cells 3x 3x 3
 Maximum number of reciprocal cells 3x 3x 3

    FEWALD:  cpu time    0.0007: real time    0.0007


--------------------------------------- Iteration      1(   1)  ---------------------------------------


    POTLOK:  cpu time   13.4349: real time   13.4582
    SETDIJ:  cpu time    0.0493: real time    0.0498
     EDDAV:  cpu time   18.1416: real time   18.1876
       DOS:  cpu time    0.0077: real time    0.0077
    --------------------------------------------
      LOOP:  cpu time   31.6334: real time   31.7033

 eigenvalue-minimisations  :   128
 total energy-change (2. order) : 0.2324115E+03  (-0.6934165E+03)
 number of electron      32.0000000 magnetization 
 augmentation part       32.0000000 magnetization 

 Free energy of the ion-electron system (eV)
  ---------------------------------------------------
  alpha Z        PSCENC =         0.07205883
  Ewald energy   TEWEN  =      1874.26936382
  -Hartree energ DENC   =     -3475.35091726
  -exchange      EXHF   =         0.00000000
  -V(xc)+E(xc)   XCENC  =       136.00124913
  PAW double counting   =      1593.34061361    -1611.57548628
  entropy T*S    EENTRO =        -0.00212962
  eigenvalues    EBANDS =      -308.16828895
  atomic energy  EATOM  =      2023.82507259
  Solvation  Ediel_sol  =         0.00000000
  ---------------------------------------------------
  free energy    TOTEN  =       232.41153587 eV

  energy without entropy =      232.41366549  energy(sigma->0) =      232.41260068


--------------------------------------------------------------------------------------------------------




--------------------------------------- Iteration      1(   2)  ---------------------------------------


     EDDAV:  cpu time   18.1103: real time   18.1489
       DOS:  cpu time    0.0029: real time    0.0029
    --------------------------------------------
      LOOP:  cpu time   18.1132: real time   18.1517

 eigenvalue-minimisations  :   128
 total energy-change (2. order) :-0.2485971E+03  (-0.2481597E+03)
 number of electron      32.0000000 magnetization 
 augmentation part       32.0000000 magnetization 

 Free energy of the ion-electron system (eV)
  ---------------------------------------------------
  alpha Z        PSCENC =         0.07205883
  Ewald energy   TEWEN  =      1874.26936382
  -Hartree energ DENC   =     -3475.35091726
  -exchange      EXHF   =         0.00000000
  -V(xc)+E(xc)   XCENC  =       136.00124913
  PAW double counting   =      1593.34061361    -1611.57548628
  entropy T*S    EENTRO =        -0.00000000
  eigenvalues    EBANDS =      -556.76747493
  atomic energy  EATOM  =      2023.82507259
  Solvation  Ediel_sol  =         0.00000000
  ---------------------------------------------------
  free energy    TOTEN  =       -16.18552049 eV

  energy without entropy =      -16.18552049  energy(sigma->0) =      -16.18552049


--------------------------------------------------------------------------------------------------------




--------------------------------------- Iteration      1(   3)  ---------------------------------------


     EDDAV:  cpu time   10.9109: real time   10.9343
       DOS:  cpu time    0.0003: real time    0.0003
    --------------------------------------------
      LOOP:  cpu time   10.9112: real time   10.9345

 eigenvalue-minimisations  :    64
 total energy-change (2. order) :-0.3118364E+02  (-0.3118364E+02)
 number of electron      32.0000000 magnetization 
 augmentation part       32.0000000 magnetization 

 Free energy of the ion-electron system (eV)
  ---------------------------------------------------
  alpha Z        PSCENC =         0.07205883
  Ewald energy   TEWEN  =      1874.26936382
  -Hartree energ DENC   =     -3475.35091726
  -exchange      EXHF   =         0.00000000
  -V(xc)+E(xc)   XCENC  =       136.00124913
  PAW double counting   =      1593.34061361    -1611.57548628
  entropy T*S    EENTRO =        -0.00000000
  eigenvalues    EBANDS =      -587.95111044
  atomic energy  EATOM  =      2023.82507259
  Solvation  Ediel_sol  =         0.00000000
  ---------------------------------------------------
  free energy    TOTEN  =       -47.36915600 eV

  energy without entropy =      -47.36915600  energy(sigma->0) =      -47.36915600


--------------------------------------------------------------------------------------------------------




--------------------------------------- Iteration      1(   4)  ---------------------------------------


     EDDAV:  cpu time   18.1222: real time   18.1609
       DOS:  cpu time    0.0044: real time    0.0044
    --------------------------------------------
      LOOP:  cpu time   18.1266: real time   18.1653

 eigenvalue-minimisations  :   128
 total energy-change (2. order) :-0.4545166E+00  (-0.4545166E+00)
 number of electron      32.0000000 magnetization 
 augmentation part       32.0000000 magnetization 

 Free energy of the ion-electron system (eV)
  ---------------------------------------------------
  alpha Z        PSCENC =         0.07205883
  Ewald energy   TEWEN  =      1874.26936382
  -Hartree energ DENC   =     -3475.35091726
  -exchange      EXHF   =         0.00000000
  -V(xc)+E(xc)   XCENC  =       136.00124913
  PAW double counting   =      1593.34061361    -1611.57548628
  entropy T*S    EENTRO =        -0.00000000
  eigenvalues    EBANDS =      -588.40562706
  atomic energy  EATOM  =      2023.82507259
  Solvation  Ediel_sol  =         0.00000000
  ---------------------------------------------------
  free energy    TOTEN  =       -47.82367262 eV

  energy without entropy =      -47.82367262  energy(sigma->0) =      -47.82367262


--------------------------------------------------------------------------------------------------------




--------------------------------------- Iteration      1(   5)  ---------------------------------------


     EDDAV:  cpu time   10.8847: real time   10.9083
       DOS:  cpu time    0.0002: real time    0.0002
    CHARGE:  cpu time    5.3187: real time    5.3267
    MIXING:  cpu time    0.2182: real time    0.2186
    --------------------------------------------
      LOOP:  cpu time   16.4219: real time   16.4539

 eigenvalue-minimisations  :    64
 total energy-change (2. order) :-0.2041132E-03  (-0.2041281E-03)
 number of electron      31.9999999 magnetization 
 augmentation part        6.0052648 magnetization 

 Broyden mixing:
  rms(total) = 0.65530E+01    rms(broyden)= 0.65530E+01
  rms(prec ) = 0.65589E+01
  weight for this iteration     100.00

 Free energy of the ion-electron system (eV)
  ---------------------------------------------------
  alpha Z        PSCENC =         0.07205883
  Ewald energy   TEWEN  =      1874.26936382
  -Hartree energ DENC   =     -3475.35091726
  -exchange      EXHF   =         0.00000000
  -V(xc)+E(xc)   XCENC  =       136.00124913
  PAW double counting   =      1593.34061361    -1611.57548628
  entropy T*S    EENTRO =        -0.00000000
  eigenvalues    EBANDS =      -588.40583117
  atomic energy  EATOM  =      2023.82507259
  Solvation  Ediel_sol  =         0.00000000
  ---------------------------------------------------
  free energy    TOTEN  =       -47.82387673 eV

  energy without entropy =      -47.82387673  energy(sigma->0) =      -47.82387673


--------------------------------------------------------------------------------------------------------




--------------------------------------- Iteration      1(   6)  ---------------------------------------


    POTLOK:  cpu time   13.1116: real time   13.1346
    SETDIJ:  cpu time    0.0486: real time    0.0487
     EDDAV:  cpu time   14.5107: real time   14.5422
       DOS:  cpu time    0.0185: real time    0.0185
    CHARGE:  cpu time    5.2258: real time    5.2334
    MIXING:  cpu time    0.2262: real time    0.2293
    --------------------------------------------
      LOOP:  cpu time   33.1415: real time   33.2068

 eigenvalue-minimisations  :    96
 total energy-change (2. order) : 0.3314783E+01  (-0.2355813E+01)
 number of electron      31.9999999 magnetization 
 augmentation part        5.3278304 magnetization 

 Broyden mixing:
  rms(total) = 0.61897E+01    rms(broyden)= 0.61897E+01
  rms(prec ) = 0.61903E+01
  weight for this iteration     100.00

 eigenvalues of (default mixing * dielectric matrix)
  average eigenvalue GAMMA=   0.9667
  0.9667

 Free energy of the ion-electron system (eV)
  ---------------------------------------------------
  alpha Z        PSCENC =         0.07205883
  Ewald energy   TEWEN  =      1874.26936382
  -Hartree energ DENC   =     -3525.44786012
  -exchange      EXHF   =         0.00000000
  -V(xc)+E(xc)   XCENC  =       139.09960585
  PAW double counting   =      3422.16428880    -3443.32558018
  entropy T*S    EENTRO =        -0.00000000
  eigenvalues    EBANDS =      -535.16604372
  atomic energy  EATOM  =      2023.82507259
  Solvation  Ediel_sol  =         0.00000000
  ---------------------------------------------------
  free energy    TOTEN  =       -44.50909411 eV

  energy without entropy =      -44.50909411  energy(sigma->0) =      -44.50909411


--------------------------------------------------------------------------------------------------------




--------------------------------------- Iteration      1(   7)  ---------------------------------------


    POTLOK:  cpu time   13.1345: real time   13.1570
    SETDIJ:  cpu time    0.0486: real time    0.0487
     EDDAV:  cpu time   14.4812: real time   14.5128
       DOS:  cpu time    0.0046: real time    0.0046
    CHARGE:  cpu time    5.1474: real time    5.1549
    MIXING:  cpu time    0.2186: real time    0.2198
    --------------------------------------------
      LOOP:  cpu time   33.0350: real time   33.0978

 eigenvalue-minimisations  :    96
 total energy-change (2. order) : 0.2884500E+00  (-0.1105312E+00)
 number of electron      31.9999999 magnetization 
 augmentation part        5.3868358 magnetization 

 Broyden mixing:
  rms(total) = 0.34200E+01    rms(broyden)= 0.34200E+01
  rms(prec ) = 0.34203E+01
  weight for this iteration     100.00

 eigenvalues of (default mixing * dielectric matrix)
  average eigenvalue GAMMA=   1.6893
  0.8454  2.5332

 Free energy of the ion-electron system (eV)
  ---------------------------------------------------
  alpha Z        PSCENC =         0.07205883
  Ewald energy   TEWEN  =      1874.26936382
  -Hartree energ DENC   =     -3532.74809227
  -exchange      EXHF   =         0.00000000
  -V(xc)+E(xc)   XCENC  =       139.37614327
  PAW double counting   =      5333.36796844    -5354.11384576
  entropy T*S    EENTRO =        -0.00000000
  eigenvalues    EBANDS =      -528.26931305
  atomic energy  EATOM  =      2023.82507259
  Solvation  Ediel_sol  =         0.00000000
  ---------------------------------------------------
  free energy    TOTEN  =       -44.22064414 eV

  energy without entropy =      -44.22064414  energy(sigma->0) =      -44.22064414


--------------------------------------------------------------------------------------------------------




--------------------------------------- Iteration      1(   8)  ---------------------------------------


    POTLOK:  cpu time   13.1721: real time   13.1943
    SETDIJ:  cpu time    0.0492: real time    0.0492
     EDDAV:  cpu time   14.5241: real time   14.5558
       DOS:  cpu time    0.0069: real time    0.0069
    CHARGE:  cpu time    5.2700: real time    5.2792
    MIXING:  cpu time    0.2309: real time    0.2314
    --------------------------------------------
      LOOP:  cpu time   33.2530: real time   33.3167

 eigenvalue-minimisations  :    96
 total energy-change (2. order) : 0.1157320E+00  (-0.4005702E-01)
 number of electron      31.9999999 magnetization 
 augmentation part        5.3384724 magnetization 

 Broyden mixing:
  rms(total) = 0.23664E+00    rms(broyden)= 0.23664E+00
  rms(prec ) = 0.23722E+00
  weight for this iteration     100.00

 eigenvalues of (default mixing * dielectric matrix)
  average eigenvalue GAMMA=   1.5146
  2.5254  1.1134  0.9049

 Free energy of the ion-electron system (eV)
  ---------------------------------------------------
  alpha Z        PSCENC =         0.07205883
  Ewald energy   TEWEN  =      1874.26936382
  -Hartree energ DENC   =     -3549.47537381
  -exchange      EXHF   =         0.00000000
  -V(xc)+E(xc)   XCENC  =       140.24857375
  PAW double counting   =      9502.85467228    -9523.59368922
  entropy T*S    EENTRO =        -0.00000000
  eigenvalues    EBANDS =      -512.30559034
  atomic energy  EATOM  =      2023.82507259
  Solvation  Ediel_sol  =         0.00000000
  ---------------------------------------------------
  free energy    TOTEN  =       -44.10491210 eV

  energy without entropy =      -44.10491210  energy(sigma->0) =      -44.10491210


--------------------------------------------------------------------------------------------------------




--------------------------------------- Iteration      1(   9)  ---------------------------------------


    POTLOK:  cpu time   13.1750: real time   13.1974
    SETDIJ:  cpu time    0.0488: real time    0.0488
     EDDAV:  cpu time   18.1393: real time   18.1771
       DOS:  cpu time    0.0184: real time    0.0184
    CHARGE:  cpu time    5.2520: real time    5.2611
    MIXING:  cpu time    0.2261: real time    0.2266
    --------------------------------------------
      LOOP:  cpu time   36.8595: real time   36.9294

 eigenvalue-minimisations  :   128
 total energy-change (2. order) : 0.7270171E-02  (-0.3937702E-02)
 number of electron      31.9999999 magnetization 
 augmentation part        5.3331622 magnetization 

 Broyden mixing:
  rms(total) = 0.69236E-01    rms(broyden)= 0.69236E-01
  rms(prec ) = 0.69632E-01
  weight for this iteration     100.00

 eigenvalues of (default mixing * dielectric matrix)
  average eigenvalue GAMMA=   1.4800
  2.5219  0.8721  1.0056  1.5203

 Free energy of the ion-electron system (eV)
  ---------------------------------------------------
  alpha Z        PSCENC =         0.07205883
  Ewald energy   TEWEN  =      1874.26936382
  -Hartree energ DENC   =     -3548.22058515
  -exchange      EXHF   =         0.00000000
  -V(xc)+E(xc)   XCENC  =       140.17205100
  PAW double counting   =      9600.80952094    -9621.46041727
  entropy T*S    EENTRO =        -0.00000000
  eigenvalues    EBANDS =      -513.56470670
  atomic energy  EATOM  =      2023.82507259
  Solvation  Ediel_sol  =         0.00000000
  ---------------------------------------------------
  free energy    TOTEN  =       -44.09764193 eV

  energy without entropy =      -44.09764193  energy(sigma->0) =      -44.09764193


--------------------------------------------------------------------------------------------------------




--------------------------------------- Iteration      1(  10)  ---------------------------------------


    POTLOK:  cpu time   13.1563: real time   13.1786
    SETDIJ:  cpu time    0.0486: real time    0.0487
     EDDAV:  cpu time   18.1674: real time   18.2055
       DOS:  cpu time    0.0074: real time    0.0074
    CHARGE:  cpu time    5.1803: real time    5.1881
    MIXING:  cpu time    0.2607: real time    0.2612
    --------------------------------------------
      LOOP:  cpu time   36.8209: real time   36.8894

 eigenvalue-minimisations  :   128
 total energy-change (2. order) :-0.2897518E-02  (-0.4289254E-03)
 number of electron      31.9999999 magnetization 
 augmentation part        5.3396209 magnetization 

 Broyden mixing:
  rms(total) = 0.44356E-01    rms(broyden)= 0.44356E-01
  rms(prec ) = 0.44638E-01
  weight for this iteration     100.00

 eigenvalues of (default mixing * dielectric matrix)
  average eigenvalue GAMMA=   1.4342
  2.5075  1.6716  0.9347  0.9347  1.1226

 Free energy of the ion-electron system (eV)
  ---------------------------------------------------
  alpha Z        PSCENC =         0.07205883
  Ewald energy   TEWEN  =      1874.26936382
  -Hartree energ DENC   =     -3547.86256176
  -exchange      EXHF   =         0.00000000
  -V(xc)+E(xc)   XCENC  =       140.12795011
  PAW double counting   =      9642.93181191    -9663.49554309
  entropy T*S    EENTRO =        -0.00000000
  eigenvalues    EBANDS =      -513.96869186
  atomic energy  EATOM  =      2023.82507259
  Solvation  Ediel_sol  =         0.00000000
  ---------------------------------------------------
  free energy    TOTEN  =       -44.10053944 eV

  energy without entropy =      -44.10053944  energy(sigma->0) =      -44.10053944


--------------------------------------------------------------------------------------------------------




--------------------------------------- Iteration      1(  11)  ---------------------------------------


    POTLOK:  cpu time   13.0994: real time   13.1221
    SETDIJ:  cpu time    0.0487: real time    0.0487
     EDDAV:  cpu time   18.1221: real time   18.1601
       DOS:  cpu time    0.0090: real time    0.0090
    CHARGE:  cpu time    5.2160: real time    5.2237
    MIXING:  cpu time    0.3161: real time    0.3167
    --------------------------------------------
      LOOP:  cpu time   36.8113: real time   36.8803

 eigenvalue-minimisations  :   128
 total energy-change (2. order) :-0.2597046E-02  (-0.3553655E-04)
 number of electron      31.9999999 magnetization 
 augmentation part        5.3386633 magnetization 

 Broyden mixing:
  rms(total) = 0.20140E-01    rms(broyden)= 0.20140E-01
  rms(prec ) = 0.20519E-01
  weight for this iteration     100.00

 eigenvalues of (default mixing * dielectric matrix)
  average eigenvalue GAMMA=   1.4499
  2.5097  2.0708  1.4818  0.9617  0.9617  0.7134

 Free energy of the ion-electron system (eV)
  ---------------------------------------------------
  alpha Z        PSCENC =         0.07205883
  Ewald energy   TEWEN  =      1874.26936382
  -Hartree energ DENC   =     -3548.32774723
  -exchange      EXHF   =         0.00000000
  -V(xc)+E(xc)   XCENC  =       140.13651773
  PAW double counting   =      9638.12159953    -9658.67241946
  entropy T*S    EENTRO =        -0.00000000
  eigenvalues    EBANDS =      -513.52758231
  atomic energy  EATOM  =      2023.82507259
  Solvation  Ediel_sol  =         0.00000000
  ---------------------------------------------------
  free energy    TOTEN  =       -44.10313649 eV

  energy without entropy =      -44.10313649  energy(sigma->0) =      -44.10313649


--------------------------------------------------------------------------------------------------------




--------------------------------------- Iteration      1(  12)  ---------------------------------------


    POTLOK:  cpu time   13.1918: real time   13.2140
    SETDIJ:  cpu time    0.0486: real time    0.0486
     EDDAV:  cpu time   18.1393: real time   18.1788
       DOS:  cpu time    0.0045: real time    0.0045
    CHARGE:  cpu time    5.2268: real time    5.2344
    MIXING:  cpu time    0.2641: real time    0.2646
    --------------------------------------------
      LOOP:  cpu time   36.8751: real time   36.9450

 eigenvalue-minimisations  :   128
 total energy-change (2. order) :-0.2738700E-02  (-0.2700001E-04)
 number of electron      31.9999999 magnetization 
 augmentation part        5.3379418 magnetization 

 Broyden mixing:
  rms(total) = 0.61220E-02    rms(broyden)= 0.61220E-02
  rms(prec ) = 0.67733E-02
  weight for this iteration     100.00

 eigenvalues of (default mixing * dielectric matrix)
  average eigenvalue GAMMA=   1.5109
  2.8760  2.4884  1.6404  1.0460  0.9130  0.9130  0.6994

 Free energy of the ion-electron system (eV)
  ---------------------------------------------------
  alpha Z        PSCENC =         0.07205883
  Ewald energy   TEWEN  =      1874.26936382
  -Hartree energ DENC   =     -3548.85257754
  -exchange      EXHF   =         0.00000000
  -V(xc)+E(xc)   XCENC  =       140.14674643
  PAW double counting   =      9637.38261394    -9657.92397274
  entropy T*S    EENTRO =        -0.00000000
  eigenvalues    EBANDS =      -513.02518053
  atomic energy  EATOM  =      2023.82507259
  Solvation  Ediel_sol  =         0.00000000
  ---------------------------------------------------
  free energy    TOTEN  =       -44.10587519 eV

  energy without entropy =      -44.10587519  energy(sigma->0) =      -44.10587519


--------------------------------------------------------------------------------------------------------




--------------------------------------- Iteration      1(  13)  ---------------------------------------


    POTLOK:  cpu time   13.1265: real time   13.1489
    SETDIJ:  cpu time    0.0486: real time    0.0487
     EDDAV:  cpu time   14.5086: real time   14.5414
       DOS:  cpu time    0.0167: real time    0.0167
    CHARGE:  cpu time    5.1959: real time    5.2036
    MIXING:  cpu time    0.2814: real time    0.2819
    --------------------------------------------
      LOOP:  cpu time   33.1776: real time   33.2411

 eigenvalue-minimisations  :    96
 total energy-change (2. order) :-0.2594952E-02  (-0.2146674E-04)
 number of electron      31.9999999 magnetization 
 augmentation part        5.3377205 magnetization 

 Broyden mixing:
  rms(total) = 0.22907E-02    rms(broyden)= 0.22907E-02
  rms(prec ) = 0.30403E-02
  weight for this iteration     100.00

 eigenvalues of (default mixing * dielectric matrix)
  average eigenvalue GAMMA=   1.6282
  3.4348  2.5409  1.9378  1.5012  1.0883  0.9120  0.9120  0.6984

 Free energy of the ion-electron system (eV)
  ---------------------------------------------------
  alpha Z        PSCENC =         0.07205883
  Ewald energy   TEWEN  =      1874.26936382
  -Hartree energ DENC   =     -3549.31407778
  -exchange      EXHF   =         0.00000000
  -V(xc)+E(xc)   XCENC  =       140.15369443
  PAW double counting   =      9636.06705664    -9656.60237042
  entropy T*S    EENTRO =        -0.00000000
  eigenvalues    EBANDS =      -512.57926826
  atomic energy  EATOM  =      2023.82507259
  Solvation  Ediel_sol  =         0.00000000
  ---------------------------------------------------
  free energy    TOTEN  =       -44.10847014 eV

  energy without entropy =      -44.10847014  energy(sigma->0) =      -44.10847014


--------------------------------------------------------------------------------------------------------




--------------------------------------- Iteration      1(  14)  ---------------------------------------


    POTLOK:  cpu time   13.1528: real time   13.1767
    SETDIJ:  cpu time    0.0486: real time    0.0486
     EDDAV:  cpu time   14.4689: real time   14.4992
       DOS:  cpu time    0.0019: real time    0.0019
    CHARGE:  cpu time    5.1579: real time    5.1654
    MIXING:  cpu time    0.3438: real time    0.3444
    --------------------------------------------
      LOOP:  cpu time   33.1738: real time   33.2362

 eigenvalue-minimisations  :    96
 total energy-change (2. order) :-0.2683915E-02  (-0.2608236E-04)
 number of electron      31.9999999 magnetization 
 augmentation part        5.3375507 magnetization 

 Broyden mixing:
  rms(total) = 0.20714E-02    rms(broyden)= 0.20714E-02
  rms(prec ) = 0.23619E-02
  weight for this iteration     100.00

 eigenvalues of (default mixing * dielectric matrix)
  average eigenvalue GAMMA=   1.7362
  4.7796  2.5555  2.3722  1.5682  1.0933  0.8888  0.8888  0.7399  0.7399

 Free energy of the ion-electron system (eV)
  ---------------------------------------------------
  alpha Z        PSCENC =         0.07205883
  Ewald energy   TEWEN  =      1874.26936382
  -Hartree energ DENC   =     -3549.70584920
  -exchange      EXHF   =         0.00000000
  -V(xc)+E(xc)   XCENC  =       140.15629999
  PAW double counting   =      9633.54736380    -9654.08220212
  entropy T*S    EENTRO =        -0.00000000
  eigenvalues    EBANDS =      -512.19326178
  atomic energy  EATOM  =      2023.82507259
  Solvation  Ediel_sol  =         0.00000000
  ---------------------------------------------------
  free energy    TOTEN  =       -44.11115406 eV

  energy without entropy =      -44.11115406  energy(sigma->0) =      -44.11115406


--------------------------------------------------------------------------------------------------------




--------------------------------------- Iteration      1(  15)  ---------------------------------------


    POTLOK:  cpu time   13.1070: real time   13.1297
    SETDIJ:  cpu time    0.0486: real time    0.0486
     EDDAV:  cpu time   14.4692: real time   14.5006
       DOS:  cpu time    0.0020: real time    0.0020
    CHARGE:  cpu time    5.2076: real time    5.2154
    MIXING:  cpu time    0.3096: real time    0.3102
    --------------------------------------------
      LOOP:  cpu time   33.1440: real time   33.2065

 eigenvalue-minimisations  :    96
 total energy-change (2. order) :-0.1275574E-02  (-0.1448438E-04)
 number of electron      31.9999999 magnetization 
 augmentation part        5.3374811 magnetization 

 Broyden mixing:
  rms(total) = 0.11524E-02    rms(broyden)= 0.11524E-02
  rms(prec ) = 0.13256E-02
  weight for this iteration     100.00

 eigenvalues of (default mixing * dielectric matrix)
  average eigenvalue GAMMA=   1.6923
  5.0145  2.4941  2.4586  1.5433  1.1250  0.8845  0.8845  0.7291  0.8949  0.8949

 Free energy of the ion-electron system (eV)
  ---------------------------------------------------
  alpha Z        PSCENC =         0.07205883
  Ewald energy   TEWEN  =      1874.26936382
  -Hartree energ DENC   =     -3549.95337929
  -exchange      EXHF   =         0.00000000
  -V(xc)+E(xc)   XCENC  =       140.15787368
  PAW double counting   =      9633.91190598    -9654.44653052
  entropy T*S    EENTRO =        -0.00000000
  eigenvalues    EBANDS =      -511.94879472
  atomic energy  EATOM  =      2023.82507259
  Solvation  Ediel_sol  =         0.00000000
  ---------------------------------------------------
  free energy    TOTEN  =       -44.11242963 eV

  energy without entropy =      -44.11242963  energy(sigma->0) =      -44.11242963


--------------------------------------------------------------------------------------------------------




--------------------------------------- Iteration      1(  16)  ---------------------------------------


    POTLOK:  cpu time   13.1616: real time   13.1844
    SETDIJ:  cpu time    0.0486: real time    0.0486
     EDDAV:  cpu time   18.1331: real time   18.1731
       DOS:  cpu time    0.0017: real time    0.0018
    CHARGE:  cpu time    5.1622: real time    5.1698
    MIXING:  cpu time    0.3157: real time    0.3164
    --------------------------------------------
      LOOP:  cpu time   36.8230: real time   36.8940

 eigenvalue-minimisations  :   128
 total energy-change (2. order) :-0.4220062E-03  (-0.8700108E-06)
 number of electron      31.9999999 magnetization 
 augmentation part        5.3374139 magnetization 

 Broyden mixing:
  rms(total) = 0.11513E-02    rms(broyden)= 0.11513E-02
  rms(prec ) = 0.12700E-02
  weight for this iteration     100.00

 eigenvalues of (default mixing * dielectric matrix)
  average eigenvalue GAMMA=   1.6673
  5.2341  2.4963  2.4963  1.5088  1.2466  1.2466  1.1062  0.8930  0.8930  0.7308
  0.4893

 Free energy of the ion-electron system (eV)
  ---------------------------------------------------
  alpha Z        PSCENC =         0.07205883
  Ewald energy   TEWEN  =      1874.26936382
  -Hartree energ DENC   =     -3549.99973299
  -exchange      EXHF   =         0.00000000
  -V(xc)+E(xc)   XCENC  =       140.15796052
  PAW double counting   =      9634.61397627    -9655.14854705
  entropy T*S    EENTRO =        -0.00000000
  eigenvalues    EBANDS =      -511.90300363
  atomic energy  EATOM  =      2023.82507259
  Solvation  Ediel_sol  =         0.00000000
  ---------------------------------------------------
  free energy    TOTEN  =       -44.11285164 eV

  energy without entropy =      -44.11285164  energy(sigma->0) =      -44.11285164


--------------------------------------------------------------------------------------------------------




--------------------------------------- Iteration      1(  17)  ---------------------------------------


    POTLOK:  cpu time   13.1270: real time   13.1491
    SETDIJ:  cpu time    0.0487: real time    0.0487
     EDDAV:  cpu time   10.8806: real time   10.9036
       DOS:  cpu time    0.0061: real time    0.0061
    CHARGE:  cpu time    5.2229: real time    5.2305
    MIXING:  cpu time    0.3266: real time    0.3273
    --------------------------------------------
      LOOP:  cpu time   29.6119: real time   29.6653

 eigenvalue-minimisations  :    64
 total energy-change (2. order) :-0.7073578E-03  (-0.2209665E-05)
 number of electron      31.9999999 magnetization 
 augmentation part        5.3373693 magnetization 

 Broyden mixing:
  rms(total) = 0.52826E-03    rms(broyden)= 0.52826E-03
  rms(prec ) = 0.61930E-03
  weight for this iteration     100.00

 eigenvalues of (default mixing * dielectric matrix)
  average eigenvalue GAMMA=   1.8088
  6.0661  3.1392  2.5017  2.2825  1.5559  1.1268  0.8967  0.8967  0.8835  0.8835
  0.7113  0.7620

 Free energy of the ion-electron system (eV)
  ---------------------------------------------------
  alpha Z        PSCENC =         0.07205883
  Ewald energy   TEWEN  =      1874.26936382
  -Hartree energ DENC   =     -3550.06639677
  -exchange      EXHF   =         0.00000000
  -V(xc)+E(xc)   XCENC  =       140.15755982
  PAW double counting   =      9635.18135938    -9655.71568647
  entropy T*S    EENTRO =        -0.00000000
  eigenvalues    EBANDS =      -511.83689020
  atomic energy  EATOM  =      2023.82507259
  Solvation  Ediel_sol  =         0.00000000
  ---------------------------------------------------
  free energy    TOTEN  =       -44.11355900 eV

  energy without entropy =      -44.11355900  energy(sigma->0) =      -44.11355900


--------------------------------------------------------------------------------------------------------




--------------------------------------- Iteration      1(  18)  ---------------------------------------


    POTLOK:  cpu time   13.1565: real time   13.1785
    SETDIJ:  cpu time    0.0486: real time    0.0487
     EDDAV:  cpu time   14.5207: real time   14.5513
       DOS:  cpu time    0.0065: real time    0.0065
    CHARGE:  cpu time    5.1541: real time    5.1615
    MIXING:  cpu time    0.3517: real time    0.3525
    --------------------------------------------
      LOOP:  cpu time   33.2381: real time   33.2990

 eigenvalue-minimisations  :    96
 total energy-change (2. order) :-0.3674987E-03  (-0.1158142E-05)
 number of electron      31.9999999 magnetization 
 augmentation part        5.3373269 magnetization 

 Broyden mixing:
  rms(total) = 0.50369E-03    rms(broyden)= 0.50369E-03
  rms(prec ) = 0.54238E-03
  weight for this iteration     100.00

 eigenvalues of (default mixing * dielectric matrix)
  average eigenvalue GAMMA=   1.7668
  6.4989  3.2178  2.5151  2.2249  1.5508  1.1321  0.9485  0.9485  0.8909  0.8909
  0.7847  0.7847  0.5811

 Free energy of the ion-electron system (eV)
  ---------------------------------------------------
  alpha Z        PSCENC =         0.07205883
  Ewald energy   TEWEN  =      1874.26936382
  -Hartree energ DENC   =     -3550.09712422
  -exchange      EXHF   =         0.00000000
  -V(xc)+E(xc)   XCENC  =       140.15705703
  PAW double counting   =      9635.04905375    -9655.58321709
  entropy T*S    EENTRO =        -0.00000000
  eigenvalues    EBANDS =      -511.80619121
  atomic energy  EATOM  =      2023.82507259
  Solvation  Ediel_sol  =         0.00000000
  ---------------------------------------------------
  free energy    TOTEN  =       -44.11392649 eV

  energy without entropy =      -44.11392649  energy(sigma->0) =      -44.11392649


--------------------------------------------------------------------------------------------------------




--------------------------------------- Iteration      1(  19)  ---------------------------------------


    POTLOK:  cpu time   13.1303: real time   13.1522
    SETDIJ:  cpu time    0.0487: real time    0.0487
     EDDAV:  cpu time   18.0933: real time   18.1312
       DOS:  cpu time    0.0162: real time    0.0162
    CHARGE:  cpu time    5.2472: real time    5.2567
    MIXING:  cpu time    0.3491: real time    0.3500
    --------------------------------------------
      LOOP:  cpu time   36.8847: real time   36.9549

 eigenvalue-minimisations  :   128
 total energy-change (2. order) :-0.8062881E-04  (-0.5007286E-07)
 number of electron      31.9999999 magnetization 
 augmentation part        5.3373432 magnetization 

 Broyden mixing:
  rms(total) = 0.40029E-03    rms(broyden)= 0.40029E-03
  rms(prec ) = 0.43562E-03
  weight for this iteration     100.00

 eigenvalues of (default mixing * dielectric matrix)
  average eigenvalue GAMMA=   1.9011
  7.4996  3.2538  2.4958  2.4958  2.2136  1.5024  1.0314  1.0314  1.0558  0.8837
  0.8837  0.8000  0.8000  0.6681

 Free energy of the ion-electron system (eV)
  ---------------------------------------------------
  alpha Z        PSCENC =         0.07205883
  Ewald energy   TEWEN  =      1874.26936382
  -Hartree energ DENC   =     -3550.10429836
  -exchange      EXHF   =         0.00000000
  -V(xc)+E(xc)   XCENC  =       140.15686571
  PAW double counting   =      9634.94230319    -9655.47638775
  entropy T*S    EENTRO =        -0.00000000
  eigenvalues    EBANDS =      -511.79898515
  atomic energy  EATOM  =      2023.82507259
  Solvation  Ediel_sol  =         0.00000000
  ---------------------------------------------------
  free energy    TOTEN  =       -44.11400712 eV

  energy without entropy =      -44.11400712  energy(sigma->0) =      -44.11400712


--------------------------------------------------------------------------------------------------------




--------------------------------------- Iteration      1(  20)  ---------------------------------------


    POTLOK:  cpu time   13.1332: real time   13.1554
    SETDIJ:  cpu time    0.0487: real time    0.0487
     EDDAV:  cpu time   14.5340: real time   14.5654
       DOS:  cpu time    0.0034: real time    0.0034
    CHARGE:  cpu time    5.1925: real time    5.2000
    MIXING:  cpu time    0.3746: real time    0.3754
    --------------------------------------------
      LOOP:  cpu time   33.2865: real time   33.3483

 eigenvalue-minimisations  :    96
 total energy-change (2. order) :-0.2506223E-03  (-0.5022560E-06)
 number of electron      31.9999999 magnetization 
 augmentation part        5.3373682 magnetization 

 Broyden mixing:
  rms(total) = 0.14185E-03    rms(broyden)= 0.14185E-03
  rms(prec ) = 0.16381E-03
  weight for this iteration     100.00

 eigenvalues of (default mixing * dielectric matrix)
  average eigenvalue GAMMA=   1.9410
  7.8392  4.4194  2.8163  2.4705  2.1459  1.4788  1.1989  0.9359  0.9359  0.9050
  0.9050  0.8337  0.7777  0.7777  0.6743

 Free energy of the ion-electron system (eV)
  ---------------------------------------------------
  alpha Z        PSCENC =         0.07205883
  Ewald energy   TEWEN  =      1874.26936382
  -Hartree energ DENC   =     -3550.11493591
  -exchange      EXHF   =         0.00000000
  -V(xc)+E(xc)   XCENC  =       140.15629956
  PAW double counting   =      9634.32508933    -9654.85903194
  entropy T*S    EENTRO =        -0.00000000
  eigenvalues    EBANDS =      -511.78817403
  atomic energy  EATOM  =      2023.82507259
  Solvation  Ediel_sol  =         0.00000000
  ---------------------------------------------------
  free energy    TOTEN  =       -44.11425775 eV

  energy without entropy =      -44.11425775  energy(sigma->0) =      -44.11425775


--------------------------------------------------------------------------------------------------------




--------------------------------------- Iteration      1(  21)  ---------------------------------------


    POTLOK:  cpu time   13.0668: real time   13.0891
    SETDIJ:  cpu time    0.0486: real time    0.0486
     EDDAV:  cpu time   18.1229: real time   18.1613
       DOS:  cpu time    0.0072: real time    0.0072
    CHARGE:  cpu time    5.1798: real time    5.1874
    MIXING:  cpu time    0.4354: real time    0.4362
    --------------------------------------------
      LOOP:  cpu time   36.8607: real time   36.9298

 eigenvalue-minimisations  :   128
 total energy-change (2. order) :-0.7247358E-04  (-0.1536016E-06)
 number of electron      31.9999999 magnetization 
 augmentation part        5.3373632 magnetization 

 Broyden mixing:
  rms(total) = 0.13064E-03    rms(broyden)= 0.13064E-03
  rms(prec ) = 0.14045E-03
  weight for this iteration     100.00

 eigenvalues of (default mixing * dielectric matrix)
  average eigenvalue GAMMA=   1.9096
  7.9863  4.5819  2.7854  2.4953  2.1046  1.5070  1.1062  1.1062  1.1564  0.9065
  0.9065  0.8130  0.8130  0.8477  0.7828  0.6542

 Free energy of the ion-electron system (eV)
  ---------------------------------------------------
  alpha Z        PSCENC =         0.07205883
  Ewald energy   TEWEN  =      1874.26936382
  -Hartree energ DENC   =     -3550.11322696
  -exchange      EXHF   =         0.00000000
  -V(xc)+E(xc)   XCENC  =       140.15610201
  PAW double counting   =      9634.37333669    -9654.90732158
  entropy T*S    EENTRO =        -0.00000000
  eigenvalues    EBANDS =      -511.78971563
  atomic energy  EATOM  =      2023.82507259
  Solvation  Ediel_sol  =         0.00000000
  ---------------------------------------------------
  free energy    TOTEN  =       -44.11433022 eV

  energy without entropy =      -44.11433022  energy(sigma->0) =      -44.11433022


--------------------------------------------------------------------------------------------------------




--------------------------------------- Iteration      1(  22)  ---------------------------------------


    POTLOK:  cpu time   13.1422: real time   13.1643
    SETDIJ:  cpu time    0.0486: real time    0.0487
     EDDAV:  cpu time   18.7756: real time   18.8134
       DOS:  cpu time    0.0113: real time    0.0113
    CHARGE:  cpu time    5.1880: real time    5.1955
    MIXING:  cpu time    0.3892: real time    0.3900
    --------------------------------------------
      LOOP:  cpu time   37.5549: real time   37.6232

 eigenvalue-minimisations  :   128
 total energy-change (2. order) :-0.2760781E-04  (-0.1027835E-07)
 number of electron      31.9999999 magnetization 
 augmentation part        5.3373586 magnetization 

 Broyden mixing:
  rms(total) = 0.78220E-04    rms(broyden)= 0.78220E-04
  rms(prec ) = 0.87591E-04
  weight for this iteration     100.00

 eigenvalues of (default mixing * dielectric matrix)
  average eigenvalue GAMMA=   2.0118
  8.4347  5.1241  3.1296  2.5790  2.3325  2.1094  1.3691  1.3691  0.8982  0.8982
  0.9883  0.9883  0.8936  0.8936  0.7633  0.7633  0.6655

 Free energy of the ion-electron system (eV)
  ---------------------------------------------------
  alpha Z        PSCENC =         0.07205883
  Ewald energy   TEWEN  =      1874.26936382
  -Hartree energ DENC   =     -3550.11472094
  -exchange      EXHF   =         0.00000000
  -V(xc)+E(xc)   XCENC  =       140.15609295
  PAW double counting   =      9634.40856685    -9654.94256099
  entropy T*S    EENTRO =        -0.00000000
  eigenvalues    EBANDS =      -511.78823093
  atomic energy  EATOM  =      2023.82507259
  Solvation  Ediel_sol  =         0.00000000
  ---------------------------------------------------
  free energy    TOTEN  =       -44.11435783 eV

  energy without entropy =      -44.11435783  energy(sigma->0) =      -44.11435783


--------------------------------------------------------------------------------------------------------




--------------------------------------- Iteration      1(  23)  ---------------------------------------


    POTLOK:  cpu time   13.0582: real time   13.0806
    SETDIJ:  cpu time    0.0486: real time    0.0487
     EDDAV:  cpu time   10.8866: real time   10.9108
       DOS:  cpu time    0.0071: real time    0.0071
    CHARGE:  cpu time    5.1985: real time    5.2062
    MIXING:  cpu time    0.4320: real time    0.4329
    --------------------------------------------
      LOOP:  cpu time   29.6310: real time   29.6862

 eigenvalue-minimisations  :    64
 total energy-change (2. order) :-0.4523743E-04  (-0.3542904E-07)
 number of electron      31.9999999 magnetization 
 augmentation part        5.3373519 magnetization 

 Broyden mixing:
  rms(total) = 0.55296E-04    rms(broyden)= 0.55296E-04
  rms(prec ) = 0.57711E-04
  weight for this iteration     100.00

 eigenvalues of (default mixing * dielectric matrix)
  average eigenvalue GAMMA=   2.0137
  8.8587  5.5313  3.4725  2.6208  2.4728  2.0760  1.4626  1.1838  0.9967  0.9967
  0.9418  0.9418  0.8440  0.8440  0.8072  0.8072  0.6597  0.7284

 Free energy of the ion-electron system (eV)
  ---------------------------------------------------
  alpha Z        PSCENC =         0.07205883
  Ewald energy   TEWEN  =      1874.26936382
  -Hartree energ DENC   =     -3550.11837462
  -exchange      EXHF   =         0.00000000
  -V(xc)+E(xc)   XCENC  =       140.15611574
  PAW double counting   =      9634.51166686    -9655.04567840
  entropy T*S    EENTRO =        -0.00000000
  eigenvalues    EBANDS =      -511.78462789
  atomic energy  EATOM  =      2023.82507259
  Solvation  Ediel_sol  =         0.00000000
  ---------------------------------------------------
  free energy    TOTEN  =       -44.11440306 eV

  energy without entropy =      -44.11440306  energy(sigma->0) =      -44.11440306


--------------------------------------------------------------------------------------------------------




--------------------------------------- Iteration      1(  24)  ---------------------------------------


    POTLOK:  cpu time   13.0892: real time   13.1116
    SETDIJ:  cpu time    0.0486: real time    0.0486
     EDDAV:  cpu time   18.1040: real time   18.1427
       DOS:  cpu time    0.0080: real time    0.0081
    CHARGE:  cpu time    5.1485: real time    5.1562
    MIXING:  cpu time    0.4639: real time    0.4648
    --------------------------------------------
      LOOP:  cpu time   36.8623: real time   36.9320

 eigenvalue-minimisations  :   128
 total energy-change (2. order) :-0.7065500E-05  (-0.5320135E-08)
 number of electron      31.9999999 magnetization 
 augmentation part        5.3373520 magnetization 

 Broyden mixing:
  rms(total) = 0.46136E-04    rms(broyden)= 0.46136E-04
  rms(prec ) = 0.47721E-04
  weight for this iteration     100.00

 eigenvalues of (default mixing * dielectric matrix)
  average eigenvalue GAMMA=   1.9980
  9.1413  5.5256  3.6595  2.5217  2.5217  1.9917  1.5016  1.2797  1.2797  1.1262
  0.8669  0.8669  0.9719  0.9270  0.9270  0.7658  0.7658  0.6614  0.6614

 Free energy of the ion-electron system (eV)
  ---------------------------------------------------
  alpha Z        PSCENC =         0.07205883
  Ewald energy   TEWEN  =      1874.26936382
  -Hartree energ DENC   =     -3550.11911882
  -exchange      EXHF   =         0.00000000
  -V(xc)+E(xc)   XCENC  =       140.15611645
  PAW double counting   =      9634.51903444    -9655.05305142
  entropy T*S    EENTRO =        -0.00000000
  eigenvalues    EBANDS =      -511.78388603
  atomic energy  EATOM  =      2023.82507259
  Solvation  Ediel_sol  =         0.00000000
  ---------------------------------------------------
  free energy    TOTEN  =       -44.11441013 eV

  energy without entropy =      -44.11441013  energy(sigma->0) =      -44.11441013


--------------------------------------------------------------------------------------------------------




--------------------------------------- Iteration      1(  25)  ---------------------------------------


    POTLOK:  cpu time   13.0453: real time   13.0675
    SETDIJ:  cpu time    0.0487: real time    0.0487
     EDDAV:  cpu time   18.7873: real time   18.8258
       DOS:  cpu time    0.0075: real time    0.0075
    CHARGE:  cpu time    5.2156: real time    5.2242
    MIXING:  cpu time    0.5109: real time    0.5119
    --------------------------------------------
      LOOP:  cpu time   37.6153: real time   37.6856

 eigenvalue-minimisations  :   128
 total energy-change (2. order) :-0.5882332E-05  (-0.4137288E-08)
 number of electron      31.9999999 magnetization 
 augmentation part        5.3373535 magnetization 

 Broyden mixing:
  rms(total) = 0.15049E-04    rms(broyden)= 0.15049E-04
  rms(prec ) = 0.17305E-04
  weight for this iteration     100.00

 eigenvalues of (default mixing * dielectric matrix)
  average eigenvalue GAMMA=   2.0868
  9.4397  6.1158  4.2150  2.7575  2.5376  2.3115  2.1387  1.3521  1.3521  1.0244
  1.0244  0.9723  0.9723  0.8635  0.8635  0.8954  0.7748  0.7748  0.6638  0.6876

 Free energy of the ion-electron system (eV)
  ---------------------------------------------------
  alpha Z        PSCENC =         0.07205883
  Ewald energy   TEWEN  =      1874.26936382
  -Hartree energ DENC   =     -3550.11970741
  -exchange      EXHF   =         0.00000000
  -V(xc)+E(xc)   XCENC  =       140.15611304
  PAW double counting   =      9634.50104888    -9655.03506557
  entropy T*S    EENTRO =        -0.00000000
  eigenvalues    EBANDS =      -511.78330020
  atomic energy  EATOM  =      2023.82507259
  Solvation  Ediel_sol  =         0.00000000
  ---------------------------------------------------
  free energy    TOTEN  =       -44.11441601 eV

  energy without entropy =      -44.11441601  energy(sigma->0) =      -44.11441601


--------------------------------------------------------------------------------------------------------




--------------------------------------- Iteration      1(  26)  ---------------------------------------


    POTLOK:  cpu time   13.1330: real time   13.1559
    SETDIJ:  cpu time    0.0494: real time    0.0494
     EDDAV:  cpu time   14.5142: real time   14.5449
       DOS:  cpu time    0.0011: real time    0.0010
    CHARGE:  cpu time    5.1931: real time    5.2007
    MIXING:  cpu time    0.5199: real time    0.5209
    --------------------------------------------
      LOOP:  cpu time   33.4107: real time   33.4729

 eigenvalue-minimisations  :    96
 total energy-change (2. order) :-0.6385152E-05  (-0.5071787E-08)
 number of electron      31.9999999 magnetization 
 augmentation part        5.3373554 magnetization 

 Broyden mixing:
  rms(total) = 0.21932E-04    rms(broyden)= 0.21932E-04
  rms(prec ) = 0.22275E-04
  weight for this iteration     100.00

 eigenvalues of (default mixing * dielectric matrix)
  average eigenvalue GAMMA=   2.1076
  9.4943  6.4881  4.4979  3.1317  2.4753  2.4753  1.9554  1.4676  1.3233  1.3233
  1.1638  0.8835  0.8835  1.0293  0.9640  0.9063  0.9063  0.7605  0.7605  0.6599
  0.7105

 Free energy of the ion-electron system (eV)
  ---------------------------------------------------
  alpha Z        PSCENC =         0.07205883
  Ewald energy   TEWEN  =      1874.26936382
  -Hartree energ DENC   =     -3550.11957265
  -exchange      EXHF   =         0.00000000
  -V(xc)+E(xc)   XCENC  =       140.15609391
  PAW double counting   =      9634.48518181    -9655.01919986
  entropy T*S    EENTRO =        -0.00000000
  eigenvalues    EBANDS =      -511.78342086
  atomic energy  EATOM  =      2023.82507259
  Solvation  Ediel_sol  =         0.00000000
  ---------------------------------------------------
  free energy    TOTEN  =       -44.11442240 eV

  energy without entropy =      -44.11442240  energy(sigma->0) =      -44.11442240


--------------------------------------------------------------------------------------------------------




--------------------------------------- Iteration      1(  27)  ---------------------------------------


    POTLOK:  cpu time   13.0052: real time   13.0275
    SETDIJ:  cpu time    0.0486: real time    0.0486
     EDDAV:  cpu time   18.1047: real time   18.1441
       DOS:  cpu time    0.0022: real time    0.0022
    CHARGE:  cpu time    5.2284: real time    5.2362
    MIXING:  cpu time    0.4900: real time    0.4909
    --------------------------------------------
      LOOP:  cpu time   36.8792: real time   36.9496

 eigenvalue-minimisations  :   128
 total energy-change (2. order) :-0.1667643E-05  (-0.3327866E-08)
 number of electron      31.9999999 magnetization 
 augmentation part        5.3373548 magnetization 

 Broyden mixing:
  rms(total) = 0.88164E-05    rms(broyden)= 0.88164E-05
  rms(prec ) = 0.91379E-05
  weight for this iteration     100.00

 eigenvalues of (default mixing * dielectric matrix)
  average eigenvalue GAMMA=   2.1141
  9.5299  6.6399  4.7350  3.3313  2.4720  2.4720  1.7529  1.7529  1.5232  1.5232
  1.1725  1.1725  0.9889  0.9889  0.8810  0.8810  0.9013  0.9013  0.7547  0.7547
  0.6606  0.7201

 Free energy of the ion-electron system (eV)
  ---------------------------------------------------
  alpha Z        PSCENC =         0.07205883
  Ewald energy   TEWEN  =      1874.26936382
  -Hartree energ DENC   =     -3550.11960687
  -exchange      EXHF   =         0.00000000
  -V(xc)+E(xc)   XCENC  =       140.15609544
  PAW double counting   =      9634.48989163    -9655.02390512
  entropy T*S    EENTRO =        -0.00000000
  eigenvalues    EBANDS =      -511.78339440
  atomic energy  EATOM  =      2023.82507259
  Solvation  Ediel_sol  =         0.00000000
  ---------------------------------------------------
  free energy    TOTEN  =       -44.11442406 eV

  energy without entropy =      -44.11442406  energy(sigma->0) =      -44.11442406


--------------------------------------------------------------------------------------------------------




--------------------------------------- Iteration      1(  28)  ---------------------------------------


    POTLOK:  cpu time   13.1130: real time   13.1357
    SETDIJ:  cpu time    0.0488: real time    0.0488
     EDDAV:  cpu time   10.9149: real time   10.9397
       DOS:  cpu time    0.0109: real time    0.0109
    CHARGE:  cpu time    5.1656: real time    5.1736
    MIXING:  cpu time    0.5773: real time    0.5784
    --------------------------------------------
      LOOP:  cpu time   29.8304: real time   29.8871

 eigenvalue-minimisations  :    64
 total energy-change (2. order) :-0.1061875E-05  (-0.3127653E-08)
 number of electron      31.9999999 magnetization 
 augmentation part        5.3373539 magnetization 

 Broyden mixing:
  rms(total) = 0.58003E-05    rms(broyden)= 0.58003E-05
  rms(prec ) = 0.59669E-05
  weight for this iteration     100.00

 eigenvalues of (default mixing * dielectric matrix)
  average eigenvalue GAMMA=   2.1238
  9.6181  6.8983  4.9395  3.4369  2.7141  2.3588  2.3588  1.9514  1.3776  1.3776
  1.2508  1.2508  1.0056  1.0056  0.8842  0.8842  0.8929  0.8929  0.8584  0.6607
  0.7479  0.7479  0.7345

 Free energy of the ion-electron system (eV)
  ---------------------------------------------------
  alpha Z        PSCENC =         0.07205883
  Ewald energy   TEWEN  =      1874.26936382
  -Hartree energ DENC   =     -3550.11970997
  -exchange      EXHF   =         0.00000000
  -V(xc)+E(xc)   XCENC  =       140.15610030
  PAW double counting   =      9634.49399951    -9655.02801189
  entropy T*S    EENTRO =        -0.00000000
  eigenvalues    EBANDS =      -511.78329832
  atomic energy  EATOM  =      2023.82507259
  Solvation  Ediel_sol  =         0.00000000
  ---------------------------------------------------
  free energy    TOTEN  =       -44.11442513 eV

  energy without entropy =      -44.11442513  energy(sigma->0) =      -44.11442513


--------------------------------------------------------------------------------------------------------




--------------------------------------- Iteration      1(  29)  ---------------------------------------


    POTLOK:  cpu time   13.0608: real time   13.0836
    SETDIJ:  cpu time    0.0487: real time    0.0487
     EDDAV:  cpu time   18.0929: real time   18.1325
       DOS:  cpu time    0.0017: real time    0.0017
    CHARGE:  cpu time    5.2348: real time    5.2427
    MIXING:  cpu time    0.5763: real time    0.5774
    --------------------------------------------
      LOOP:  cpu time   37.0152: real time   37.0867

 eigenvalue-minimisations  :   128
 total energy-change (2. order) :-0.4145190E-06  (-0.3024880E-08)
 number of electron      31.9999999 magnetization 
 augmentation part        5.3373540 magnetization 

 Broyden mixing:
  rms(total) = 0.50297E-05    rms(broyden)= 0.50297E-05
  rms(prec ) = 0.51162E-05
  weight for this iteration     100.00

 eigenvalues of (default mixing * dielectric matrix)
  average eigenvalue GAMMA=   2.1364
  9.7176  7.0359  5.1688  3.7737  2.8653  2.4987  2.3988  1.9152  1.4552  1.4552
  1.4102  1.1844  1.0773  0.9459  0.9459  0.8850  0.8850  0.9675  0.8980  0.8980
  0.6607  0.7496  0.7496  0.7313

 Free energy of the ion-electron system (eV)
  ---------------------------------------------------
  alpha Z        PSCENC =         0.07205883
  Ewald energy   TEWEN  =      1874.26936382
  -Hartree energ DENC   =     -3550.11969599
  -exchange      EXHF   =         0.00000000
  -V(xc)+E(xc)   XCENC  =       140.15610006
  PAW double counting   =      9634.49478585    -9655.02879808
  entropy T*S    EENTRO =        -0.00000000
  eigenvalues    EBANDS =      -511.78331262
  atomic energy  EATOM  =      2023.82507259
  Solvation  Ediel_sol  =         0.00000000
  ---------------------------------------------------
  free energy    TOTEN  =       -44.11442554 eV

  energy without entropy =      -44.11442554  energy(sigma->0) =      -44.11442554


--------------------------------------------------------------------------------------------------------




--------------------------------------- Iteration      1(  30)  ---------------------------------------


    POTLOK:  cpu time   13.1276: real time   13.1500
    SETDIJ:  cpu time    0.0486: real time    0.0486
     EDDAV:  cpu time   18.1126: real time   18.1509
       DOS:  cpu time    0.0101: real time    0.0101
    CHARGE:  cpu time    5.1569: real time    5.1643
    MIXING:  cpu time    0.5557: real time    0.5568
    --------------------------------------------
      LOOP:  cpu time   37.0114: real time   37.0809

 eigenvalue-minimisations  :   128
 total energy-change (2. order) :-0.2513843E-06  (-0.2925969E-08)
 number of electron      31.9999999 magnetization 
 augmentation part        5.3373542 magnetization 

 Broyden mixing:
  rms(total) = 0.20755E-05    rms(broyden)= 0.20755E-05
  rms(prec ) = 0.21596E-05
  weight for this iteration     100.00

 eigenvalues of (default mixing * dielectric matrix)
  average eigenvalue GAMMA=   2.1629
  9.7657  7.2134  5.4911  4.0610  2.9701  2.5269  2.3784  2.1249  1.6484  1.6484
  1.4955  1.1518  1.1518  1.0983  1.0983  0.8831  0.8831  0.9041  0.9041  0.8910
  0.8910  0.6607  0.7504  0.7504  0.7310

 Free energy of the ion-electron system (eV)
  ---------------------------------------------------
  alpha Z        PSCENC =         0.07205883
  Ewald energy   TEWEN  =      1874.26936382
  -Hartree energ DENC   =     -3550.11964059
  -exchange      EXHF   =         0.00000000
  -V(xc)+E(xc)   XCENC  =       140.15609746
  PAW double counting   =      9634.49235970    -9655.02637284
  entropy T*S    EENTRO =        -0.00000000
  eigenvalues    EBANDS =      -511.78336477
  atomic energy  EATOM  =      2023.82507259
  Solvation  Ediel_sol  =         0.00000000
  ---------------------------------------------------
  free energy    TOTEN  =       -44.11442579 eV

  energy without entropy =      -44.11442579  energy(sigma->0) =      -44.11442579


--------------------------------------------------------------------------------------------------------




--------------------------------------- Iteration      1(  31)  ---------------------------------------


    POTLOK:  cpu time   13.1214: real time   13.1437
    SETDIJ:  cpu time    0.0486: real time    0.0486
     EDDAV:  cpu time   14.5134: real time   14.5444
       DOS:  cpu time    0.0060: real time    0.0060
    CHARGE:  cpu time    5.2138: real time    5.2220
    MIXING:  cpu time    0.5876: real time    0.5888
    --------------------------------------------
      LOOP:  cpu time   33.4908: real time   33.5536

 eigenvalue-minimisations  :    96
 total energy-change (2. order) :-0.1686276E-06  (-0.2795986E-08)
 number of electron      31.9999999 magnetization 
 augmentation part        5.3373543 magnetization 

 Broyden mixing:
  rms(total) = 0.66551E-06    rms(broyden)= 0.66551E-06
  rms(prec ) = 0.74295E-06
  weight for this iteration     100.00

 eigenvalues of (default mixing * dielectric matrix)
  average eigenvalue GAMMA=   2.1913
  9.7721  7.4703  5.7431  4.2586  3.1980  2.5766  2.5766  2.1897  1.8396  1.6088
  1.6088  1.3240  1.3240  1.0567  1.0567  1.0515  0.8838  0.8838  0.9301  0.9301
  0.8997  0.8997  0.6607  0.7503  0.7503  0.7306

 Free energy of the ion-electron system (eV)
  ---------------------------------------------------
  alpha Z        PSCENC =         0.07205883
  Ewald energy   TEWEN  =      1874.26936382
  -Hartree energ DENC   =     -3550.11958785
  -exchange      EXHF   =         0.00000000
  -V(xc)+E(xc)   XCENC  =       140.15609574
  PAW double counting   =      9634.49260749    -9655.02662090
  entropy T*S    EENTRO =        -0.00000000
  eigenvalues    EBANDS =      -511.78341569
  atomic energy  EATOM  =      2023.82507259
  Solvation  Ediel_sol  =         0.00000000
  ---------------------------------------------------
  free energy    TOTEN  =       -44.11442596 eV

  energy without entropy =      -44.11442596  energy(sigma->0) =      -44.11442596


--------------------------------------------------------------------------------------------------------




--------------------------------------- Iteration      1(  32)  ---------------------------------------


    POTLOK:  cpu time   13.1699: real time   13.1920
    SETDIJ:  cpu time    0.0488: real time    0.0488
     EDDAV:  cpu time   18.1432: real time   18.1813
       DOS:  cpu time    0.0142: real time    0.0142
    --------------------------------------------
      LOOP:  cpu time   31.3760: real time   31.4362

 eigenvalue-minimisations  :   128
 total energy-change (2. order) :-0.8045708E-07  (-0.2663732E-08)
 number of electron      31.9999999 magnetization 
 augmentation part        5.3373543 magnetization 

 Free energy of the ion-electron system (eV)
  ---------------------------------------------------
  alpha Z        PSCENC =         0.07205883
  Ewald energy   TEWEN  =      1874.26936382
  -Hartree energ DENC   =     -3550.11956602
  -exchange      EXHF   =         0.00000000
  -V(xc)+E(xc)   XCENC  =       140.15609538
  PAW double counting   =      9634.49272298    -9655.02673672
  entropy T*S    EENTRO =        -0.00000000
  eigenvalues    EBANDS =      -511.78343691
  atomic energy  EATOM  =      2023.82507259
  Solvation  Ediel_sol  =         0.00000000
  ---------------------------------------------------
  free energy    TOTEN  =       -44.11442604 eV

  energy without entropy =      -44.11442604  energy(sigma->0) =      -44.11442604


--------------------------------------------------------------------------------------------------------




 average (electrostatic) potential at core
  the test charge radii are     0.8471  0.8742
  (the norm of the test charge is              1.0000)
       1 -89.1349       2 -88.8663       3 -93.0589       4 -93.0221       5 -92.7710
       6 -92.7713
 
 
 
 E-fermi :  -8.9431     XC(G=0):  -0.0398     alpha+bet : -0.0126


 k-point     1 :       0.0000    0.0000    0.0000
  band No.  band energies     occupation 
      1     -29.6376      2.00000
      2     -29.3702      2.00000
      3     -28.5784      2.00000
      4     -28.3114      2.00000
      5     -13.8868      2.00000
      6     -13.5938      2.00000
      7     -12.9259      2.00000
      8     -12.9216      2.00000
      9     -12.7242      2.00000
     10     -12.6652      2.00000
     11     -12.4586      2.00000
     12     -12.2681      2.00000
     13      -9.2753      2.00000
     14      -9.2721      2.00000
     15      -9.0103      2.00000
     16      -8.9921      2.00000
     17      -1.2699      0.00000
     18      -0.8437      0.00000
     19      -0.8314      0.00000
     20      -0.6635      0.00000
     21      -0.5727      0.00000
     22      -0.5361      0.00000
     23       0.0084      0.00000
     24       0.1079      0.00000
     25       0.1147      0.00000
     26       0.1244      0.00000
     27       0.1256      0.00000
     28       0.1316      0.00000
     29       0.1489      0.00000
     30       0.2000      0.00000
     31       0.2126      0.00000
     32       0.2461      0.00000


--------------------------------------------------------------------------------------------------------


 soft charge-density along one line, spin component            1
         0         1         2         3         4         5         6         7         8         9
 total charge-density along one line
 
 pseudopotential strength for first ion, spin component:            1
 20.418  24.035   0.000   0.000   0.000  -0.000   0.000   0.000
 24.035  28.295   0.000   0.000   0.000  -0.000   0.000   0.000
  0.000   0.000  -3.797   0.000   0.000  -4.748   0.000   0.000
  0.000   0.000   0.000  -3.461  -0.000   0.000  -4.293  -0.000
  0.000   0.000   0.000  -0.000  -3.461   0.000  -0.000  -4.294
 -0.000  -0.000  -4.748   0.000   0.000  -5.869   0.000   0.000
  0.000   0.000   0.000  -4.293  -0.000   0.000  -5.256  -0.000
  0.000   0.000   0.000  -0.000  -4.294   0.000  -0.000  -5.256
 total augmentation occupancy for first ion, spin component:            1
 27.142 -19.351   0.005  -0.000   0.000   0.001   0.000   0.000
-19.351  14.415  -0.003   0.000  -0.000  -0.003  -0.000  -0.000
  0.005  -0.003  27.318  -0.000  -0.000 -16.548   0.000   0.000
 -0.000   0.000  -0.000   5.716   0.000   0.000  -2.571  -0.000
  0.000  -0.000  -0.000   0.000   5.717  -0.000  -0.000  -2.572
  0.001  -0.003 -16.548   0.000  -0.000  10.177  -0.000  -0.000
  0.000  -0.000   0.000  -2.571  -0.000  -0.000   1.157   0.000
  0.000  -0.000   0.000  -0.000  -2.572  -0.000   0.000   1.157


------------------------ aborting loop because EDIFF is reached ----------------------------------------



 DIPCOR: dipole corrections for dipol
 direction  1 min pos   354, direction  2 min pos   392, direction  3 min pos   429,
 dipolmoment          -0.000008      0.033497     -0.000047 electrons x Angstroem
 Tr[quadrupol]        17.295858

 energy correction for charged system         0.000000 eV
 dipol+quadrupol energy correction            0.000001 eV
 added-field ion interaction          0.000000 eV  (added to PSCEN)

 
  *************** adding dipol energy to TOTEN NOW **************** 
    CHARGE:  cpu time    5.2008: real time    5.2084
    FORLOC:  cpu time    0.5233: real time    0.5240
    FORNL :  cpu time    0.5125: real time    0.5134
    STRESS:  cpu time   11.1704: real time   11.1916
    FORHAR:  cpu time    3.2511: real time    3.2570
    MIXING:  cpu time    0.6211: real time    0.6224
    OFIELD:  cpu time    0.0000: real time    0.0000

  Hirshfeld charges:
            ion         q(e)     
   ------------------------------
      1     C           0.302
      2     C           0.293
      3     O          -0.147
      4     O          -0.145
      5     O          -0.152
      6     O          -0.152

  Hirshfeld-I charges:
            ion         q(e)        dq(e)    
   ------------------------------------------
      1     C           0.864     -0.429E-04
      2     C           0.864     -0.302E-04
      3     O          -0.441      0.224E-04
      4     O          -0.425      0.213E-04
      5     O          -0.431      0.147E-04
      6     O          -0.431      0.147E-04

   Hirshfeld-I converged in  15 cycles. Convergence criterion |dq|< 0.500E-04 e

  Atomic reference data used in the T-S method for vdW correction:
            C6at              R0at           ALPHAat      REFSTATE
            (au)              (au)            (au)                
   ---------------------------------------------------------------
   C          46.600          3.590         12.000         0
   O          15.600          3.194          5.400         0

  Tkatchenko/Scheffler method for vdW energy calculation
  ---------------------------------------------------------------------------------------------

  Parameters of vdW forcefield:
            C6ts              R0ts           ALPHAts        RELVOL
            (au)              (au)            (au)                
   ---------------------------------------------------------------
   C           8.766          2.718          5.205          0.43371910
   C           8.830          2.721          5.223          0.43528953
   O          19.722          3.321          6.072          1.12438815
   O          18.540          3.287          5.887          1.09017681
   O          18.960          3.299          5.953          1.10245365
   O          18.958          3.299          5.953          1.10238697

  vdW correction parametrized for the method pbe       

  IVDW =  21
  VDW_RADIUS =    50.000 A
  VDW_IDAMPF =  0
  VDW_S6 =     1.000
  VDW_SR =     0.950
  VDW_D =    20.000
  LVDW_ONECELL = F F F
  LVDW_SAMETYPE T T
  LVDW_EWALD = F

  Number of pair interactions contributing to vdW energy:     321
  Edisp (eV):   -0.01777
    FORVDW:  cpu time   96.2618: real time   96.3194

  FORCE on cell =-STRESS in cart. coord.  units (eV):
  Direction    XX          YY          ZZ          XY          YZ          ZX
  --------------------------------------------------------------------------------------
  Alpha Z     0.07206     0.07206     0.07206
  Ewald    -201.17449  1413.78545   661.65920    -0.21409    -4.29767   -11.20799
  Hartree   659.08105  1792.75953  1098.27896    -0.23346    -1.24580    -5.69111
  E(xc)    -148.94204  -146.76223  -146.77247     0.00021    -0.01636    -0.02825
  Local   -1150.03995 -3820.95893 -2374.38479     0.45538     4.95189    15.88769
  n-local   117.60474   105.60587   105.61032    -0.00119     0.09087     0.15616
  augment   182.08619   173.12336   173.13607    -0.00091     0.06841     0.11653
  Kinetic   541.31023   490.49178   490.60704    -0.00512     0.38748     0.66011
  Fock        0.00000     0.00000     0.00000     0.00000     0.00000     0.00000
  vdW        -0.00000    -0.03380     0.00032     0.00001     0.00028    -0.00000
  -------------------------------------------------------------------------------------
  Total      -0.00221     8.08308     8.20671     0.00082    -0.06091    -0.10686
  in kB      -0.00008     0.30205     0.30667     0.00003    -0.00228    -0.00399
  external pressure =        0.20 kB  Pullay stress =        0.00 kB


 VOLUME and BASIS-vectors are now :
 -----------------------------------------------------------------------------
  energy-cutoff  :     1000.00
  volume of cell :    42875.00
      direct lattice vectors                 reciprocal lattice vectors
    35.000000000  0.000000000  0.000000000     0.028571429  0.000000000  0.000000000
     0.000000000 35.000000000  0.000000000     0.000000000  0.028571429  0.000000000
     0.000000000  0.000000000 35.000000000     0.000000000  0.000000000  0.028571429

  length of vectors
    35.000000000 35.000000000 35.000000000     0.028571429  0.028571429  0.028571429


 FORCES acting on ions
    electron-ion (+dipol)            ewald-force                    non-local-force                 convergence-correction
 -----------------------------------------------------------------------------------------------
   -.147E-01 0.422E+02 0.107E+00   0.147E-01 -.424E+02 -.107E+00   0.219E-04 0.142E+00 0.533E-03   -.602E-08 0.193E-05 -.294E-07
   0.210E-01 -.538E+02 -.105E+00   -.210E-01 0.537E+02 0.106E+00   0.618E-05 0.258E-02 -.293E-03   0.922E-08 0.496E-06 -.101E-05
   -.519E-01 -.150E+03 0.399E+00   0.521E-01 0.236E+03 -.395E+00   -.206E-03 -.823E+02 -.498E-02   0.109E-08 0.647E-06 -.712E-07
   -.111E-01 0.301E+03 0.783E-01   0.111E-01 -.387E+03 -.781E-01   0.958E-05 0.831E+02 -.239E-03   -.112E-07 0.703E-05 -.652E-08
   0.370E+01 -.686E+02 -.282E+03   -.482E+01 0.677E+02 0.368E+03   0.108E+01 0.916E+00 -.828E+02   -.247E-07 0.319E-06 0.940E-06
   -.364E+01 -.722E+02 0.282E+03   0.476E+01 0.726E+02 -.368E+03   -.108E+01 -.343E+00 0.828E+02   0.354E-07 0.440E-06 -.221E-05
 -----------------------------------------------------------------------------------------------
   0.605E-03 -.153E+01 0.669E-03   -.888E-15 -.142E-13 -.568E-13   -.474E-03 0.153E+01 -.563E-03   0.383E-08 0.109E-04 -.238E-05
 
 
 POSITION                                       TOTAL-FORCE (eV/Angst)
 -----------------------------------------------------------------------------------
      0.00000      0.05699      0.00000        -0.000027     -0.074102      0.000030
     34.99851      4.52718      0.00754         0.000008     -0.068031      0.000731
      0.00000      1.22721      0.00000        -0.000026      3.551237     -0.000536
      0.00000     33.88677      0.00000        -0.000019     -3.452551      0.000038
     34.98327      4.51833      1.17763        -0.045726     -0.004224      3.508417
      0.01374      4.53603     33.83746         0.045789      0.047672     -3.508681
 -----------------------------------------------------------------------------------
    total drift:                                0.000131      0.000104      0.000103


--------------------------------------------------------------------------------------------------------



  FREE ENERGIE OF THE ION-ELECTRON SYSTEM (eV)
  ---------------------------------------------------
  free  energy   TOTEN  =       -44.13219111 eV

  energy  without entropy=      -44.13219111  energy(sigma->0) =      -44.13219111
 


--------------------------------------------------------------------------------------------------------


    POTLOK:  cpu time   14.6602: real time   14.6829


--------------------------------------------------------------------------------------------------------


 writing wavefunctions
     LOOP+:  cpu time 1527.5696: real time 1529.8525
    4ORBIT:  cpu time    0.0000: real time    0.0000

 total amount of memory used by VASP MPI-rank0  4007897. kBytes
=======================================================================

   base      :      30000. kBytes
   nonl-proj :     344787. kBytes
   fftplans  :     676185. kBytes
   grid      :    2932288. kBytes
   one-center:          9. kBytes
   wavefun   :      24628. kBytes
 
  
  
 General timing and accounting informations for this job:
 ========================================================
  
                  Total CPU time used (sec):     2956.524
                            User time (sec):     2815.405
                          System time (sec):      141.119
                         Elapsed time (sec):     2963.844
  
                   Maximum memory used (kb):     5442952.
                   Average memory used (kb):           0.
  
                          Minor page faults:     85168558
                          Major page faults:          848
                 Voluntary context switches:        20146
