 vasp.6.1.2 22Jul20 (build Jan  6 2021 09:55:43) gamma-only                      
 executed on             LinuxPGI date 2023.10.20  04:20:06
 running on   32 total cores
 distrk:  each k-point on   32 cores,    1 groups
 distr:  one band on NCORE=   1 cores,   32 groups


--------------------------------------------------------------------------------------------------------


 INCAR:
 POTCAR:    PAW_PBE C_s 06Sep2000                 
 POTCAR:    PAW_PBE O_s 07Sep2000                 
 -----------------------------------------------------------------------------
|                                                                             |
|           W    W    AA    RRRRR   N    N  II  N    N   GGGG   !!!           |
|           W    W   A  A   R    R  NN   N  II  NN   N  G    G  !!!           |
|           W    W  A    A  R    R  N N  N  II  N N  N  G       !!!           |
|           W WW W  AAAAAA  RRRRR   N  N N  II  N  N N  G  GGG   !            |
|           WW  WW  A    A  R   R   N   NN  II  N   NN  G    G                |
|           W    W  A    A  R    R  N    N  II  N    N   GGGG   !!!           |
|                                                                             |
|     For optimal performance we recommend to set                             |
|       NCORE = 4 - approx SQRT(number of cores).                             |
|     NCORE specifies how many cores store one orbital (NPAR=cpu/NCORE).      |
|     This setting can greatly improve the performance of VASP for DFT.       |
|     The default, NCORE=1 might be grossly inefficient on modern             |
|     multi-core architectures or massively parallel machines. Do your        |
|     own testing!!!!                                                         |
|     Unfortunately you need to use the default for GW and RPA                |
|     calculations (for HF NCORE is supported but not extensively tested      |
|     yet).                                                                   |
|                                                                             |
 -----------------------------------------------------------------------------

 POTCAR:    PAW_PBE C_s 06Sep2000                 
   VRHFIN =C: s2p2                                                                                  
   LEXCH  = PE                                                                                      
   EATOM  =   147.1560 eV,   10.8157 Ry                                                             
                                                                                                    
   TITEL  = PAW_PBE C_s 06Sep2000                                                                   
   LULTRA =        F    use ultrasoft PP ?                                                          
   IUNSCR =        0    unscreen: 0-lin 1-nonlin 2-no                                               
   RPACOR =    0.000    partial core radius                                                         
   POMASS =   12.011; ZVAL   =    4.000    mass and valenz                                          
   RCORE  =    1.850    outmost cutoff radius                                                       
   RWIGS  =    1.890; RWIGS  =    1.000    wigner-seitz radius (au A)                               
   ENMAX  =  273.911; ENMIN  =  205.433 eV                                                          
   RCLOC  =    0.804    cutoff for local pot                                                        
   LCOR   =        T    correct aug charges                                                         
   LPAW   =        T    paw PP                                                                      
   EAUG   =  439.243                                                                                
   DEXC   =    0.000                                                                                
   RMAX   =    1.897    core radius for proj-oper                                                   
   RAUG   =    1.300    factor for augmentation sphere                                              
   RDEP   =    1.940    radius for radial grids                                                     
   RDEPT  =    1.573    core radius for aug-charge                                                  
                                                                                                    
   Atomic configuration                                                                             
    4 entries                                                                                       
     n  l   j            E        occ.                                                              
     1  0  0.50      -273.3789   2.0000                                                             
     2  0  0.50       -13.7508   2.0000                                                             
     2  1  0.50        -5.2854   2.0000                                                             
     3  2  1.50        -1.3606   0.0000                                                             
   Description                                                                                      
     l       E           TYP  RCUT    TYP  RCUT                                                     
     0    -13.7508457     23  1.500                                                                 
     0    -11.0934578     23  1.500                                                                 
     1     -5.2854381     23  1.850                                                                 
     1     -1.3099858     23  1.850                                                                 
  local pseudopotential read in
  atomic valenz-charges read in
  non local Contribution for L=            0  read in
    real space projection operators read in
  non local Contribution for L=            0  read in
    real space projection operators read in
  non local Contribution for L=            1  read in
    real space projection operators read in
  non local Contribution for L=            1  read in
    real space projection operators read in
    PAW grid and wavefunctions read in
 
   number of l-projection  operators is LMAX  =            4
   number of lm-projection operators is LMMAX =            8
 
 POTCAR:    PAW_PBE O_s 07Sep2000                 
   VRHFIN =O: s2p4                                                                                  
   LEXCH  = PE                                                                                      
   EATOM  =   432.3788 eV,   31.7789 Ry                                                             
                                                                                                    
   TITEL  = PAW_PBE O_s 07Sep2000                                                                   
   LULTRA =        F    use ultrasoft PP ?                                                          
   IUNSCR =        0    unscreen: 0-lin 1-nonlin 2-no                                               
   RPACOR =    0.000    partial core radius                                                         
   POMASS =   16.000; ZVAL   =    6.000    mass and valenz                                          
   RCORE  =    1.850    outmost cutoff radius                                                       
   RWIGS  =    1.700; RWIGS  =    0.900    wigner-seitz radius (au A)                               
   ENMAX  =  282.853; ENMIN  =  212.140 eV                                                          
   RCLOC  =    0.804    cutoff for local pot                                                        
   LCOR   =        T    correct aug charges                                                         
   LPAW   =        T    paw PP                                                                      
   EAUG   =  412.352                                                                                
   RMAX   =    1.897    core radius for proj-oper                                                   
   RAUG   =    1.300    factor for augmentation sphere                                              
   RDEP   =    1.878    radius for radial grids                                                     
   RDEPT  =    1.572    core radius for aug-charge                                                  
                                                                                                    
   Atomic configuration                                                                             
    4 entries                                                                                       
     n  l   j            E        occ.                                                              
     1  0  0.50      -514.6923   2.0000                                                             
     2  0  0.50       -23.9615   2.0000                                                             
     2  1  0.50        -9.0305   4.0000                                                             
     3  2  1.50        -1.3606   0.0000                                                             
   Description                                                                                      
     l       E           TYP  RCUT    TYP  RCUT                                                     
     0    -23.9615315     23  1.500                                                                 
     0    -25.3221141     23  1.500                                                                 
     1     -9.0304908     23  1.850                                                                 
     1     -7.3935399     23  1.850                                                                 
  local pseudopotential read in
  atomic valenz-charges read in
  non local Contribution for L=            0  read in
    real space projection operators read in
  non local Contribution for L=            0  read in
    real space projection operators read in
  non local Contribution for L=            1  read in
    real space projection operators read in
  non local Contribution for L=            1  read in
    real space projection operators read in
    PAW grid and wavefunctions read in
 
   number of l-projection  operators is LMAX  =            4
   number of lm-projection operators is LMMAX =            8
 
  PAW_PBE C_s 06Sep2000                 :
 energy of atom  1       EATOM= -147.1560
 kinetic energy error for atom=    0.0002 (will be added to EATOM!!)
  PAW_PBE O_s 07Sep2000                 :
 energy of atom  2       EATOM= -432.3788
 kinetic energy error for atom=    0.0004 (will be added to EATOM!!)
 
 
 POSCAR:  C  O
  positions in cartesian coordinates
  No initial velocities read in
 exchange correlation table for  LEXCH =        8
   RHO(1)=    0.500       N(1)  =     2000
   RHO(2)=  100.500       N(2)  =     4000
 


--------------------------------------------------------------------------------------------------------


 ion  position               nearest neighbor table
   1  0.000  0.002  0.000-   3 1.17   4 1.17
   2  1.000  0.141  0.000-   5 1.17   6 1.17
   3  0.000  0.035  0.000-   1 1.17
   4  0.000  0.968  0.000-   1 1.17
   5  1.000  0.141  0.034-   2 1.17
   6  0.000  0.141  0.967-   2 1.17
 
  LATTYP: Found a simple cubic cell.
 ALAT       =    35.0000000000
  
  Lattice vectors:
  
 A1 = (  35.0000000000,   0.0000000000,   0.0000000000)
 A2 = (   0.0000000000,  35.0000000000,   0.0000000000)
 A3 = (   0.0000000000,   0.0000000000,  35.0000000000)


Analysis of symmetry for initial positions (statically):
=====================================================================
 Subroutine PRICEL returns:
 Original cell was already a primitive cell.
 

 Routine SETGRP: Setting up the symmetry group for a 
 simple cubic supercell.


 Subroutine GETGRP returns: Found  1 space group operations
 (whereof  1 operations were pure point group operations)
 out of a pool of 48 trial point group operations.


The static configuration has the point symmetry C_1 .


Analysis of symmetry for dynamics (positions and initial velocities):
=====================================================================
 Subroutine PRICEL returns:
 Original cell was already a primitive cell.
 

 Routine SETGRP: Setting up the symmetry group for a 
 simple cubic supercell.


 Subroutine GETGRP returns: Found  1 space group operations
 (whereof  1 operations were pure point group operations)
 out of a pool of 48 trial point group operations.


The dynamic configuration has the point symmetry C_1 .


 Subroutine INISYM returns: Found  1 space group operations
 (whereof  1 operations are pure point group operations),
 and found     1 'primitive' translations


----------------------------------------------------------------------------------------

                                     Primitive cell                                     

  volume of cell :   42875.0000

  direct lattice vectors                    reciprocal lattice vectors
    35.000000000  0.000000000  0.000000000     0.028571429  0.000000000  0.000000000
     0.000000000 35.000000000  0.000000000     0.000000000  0.028571429  0.000000000
     0.000000000  0.000000000 35.000000000     0.000000000  0.000000000  0.028571429

  length of vectors
    35.000000000 35.000000000 35.000000000     0.028571429  0.028571429  0.028571429

  position of ions in fractional coordinates (direct lattice)
     0.000000000  0.001628171  0.000000000
     0.999957287  0.140776469  0.000215536
     0.000000000  0.035063029  0.000000000
     0.000000000  0.968193314  0.000000000
     0.999522117  0.140523615  0.033646605
     0.000392457  0.141029324  0.966784468

  ion indices of the primitive-cell ions
   primitive index   ion index
                 1           1
                 2           2
                 3           3
                 4           4
                 5           5
                 6           6

----------------------------------------------------------------------------------------

 
 
 KPOINTS: g                                       

Automatic generation of k-mesh.
Space group operators:
 irot       det(A)        alpha          n_x          n_y          n_z        tau_x        tau_y        tau_z
    1     1.000000     0.000000     1.000000     0.000000     0.000000     0.000000     0.000000     0.000000
 
 Subroutine IBZKPT returns following result:
 ===========================================
 
 Found      1 irreducible k-points:
 
 Following reciprocal coordinates:
            Coordinates               Weight
  0.000000  0.000000  0.000000      1.000000
 
 Following cartesian coordinates:
            Coordinates               Weight
  0.000000  0.000000  0.000000      1.000000
 


--------------------------------------------------------------------------------------------------------




 Dimension of arrays:
   k-points           NKPTS =      1   k-points in BZ     NKDIM =      1   number of bands    NBANDS=     32
   number of dos      NEDOS =    301   number of ions     NIONS =      6
   non local maximal  LDIM  =      4   non local SUM 2l+1 LMDIM =      8
   total plane-waves  NPLWV = ******
   max r-space proj   IRMAX =      1   max aug-charges    IRDMAX=  29269
   dimension x,y,z NGX =   378 NGY =  378 NGZ =  378
   dimension x,y,z NGXF=   756 NGYF=  756 NGZF=  756
   support grid    NGXF=   756 NGYF=  756 NGZF=  756
   ions per type =               2   4
   NGX,Y,Z   is equivalent  to a cutoff of  17.95, 17.95, 17.95 a.u.
   NGXF,Y,Z  is equivalent  to a cutoff of  35.91, 35.91, 35.91 a.u.

 SYSTEM =  C                                       
 POSCAR =   C  O                                   

 Startparameter for this run:
   NWRITE =      2    write-flag & timer
   PREC   = acc       normal or accurate (medium, high low for compatibility)
   ISTART =      0    job   : 0-new  1-cont  2-samecut
   ICHARG =      2    charge: 1-file 2-atom 10-const
   ISPIN  =      1    spin polarized calculation?
   LNONCOLLINEAR =      F non collinear calculations
   LSORBIT =      F    spin-orbit coupling
   INIWAV =      1    electr: 0-lowe 1-rand  2-diag
   LASPH  =      T    aspherical Exc in radial PAW
   METAGGA=      F    non-selfconsistent MetaGGA calc.

 Electronic Relaxation 1
   ENCUT  = 1000.0 eV  73.50 Ry    8.57 a.u.  90.25 90.25 90.25*2*pi/ulx,y,z
   ENINI  = 1000.0     initial cutoff
   ENAUG  =  439.2 eV  augmentation charge cutoff
   NELM   =     60;   NELMIN=  2; NELMDL= -5     # of ELM steps 
   EDIFF  = 0.1E-06   stopping-criterion for ELM
   LREAL  =      F    real-space projection
   NLSPLINE    = F    spline interpolate recip. space projectors
   LCOMPAT=      F    compatible to vasp.4.4
   GGA_COMPAT  = T    GGA compatible to vasp.4.4-vasp.4.6
   LMAXPAW     = -100 max onsite density
   LMAXMIX     =    2 max onsite mixed and CHGCAR
   VOSKOWN=      0    Vosko Wilk Nusair interpolation
   ROPT   =    0.00000   0.00000
 Ionic relaxation
   EDIFFG = 0.1E-05   stopping-criterion for IOM
   NSW    =      0    number of steps for IOM
   NBLOCK =      1;   KBLOCK =      1    inner block; outer block 
   IBRION =     -1    ionic relax: 0-MD 1-quasi-New 2-CG
   NFREE  =      0    steps in history (QN), initial steepest desc. (CG)
   ISIF   =      2    stress and relaxation
   IWAVPR =     10    prediction:  0-non 1-charg 2-wave 3-comb
   ISYM   =      2    0-nonsym 1-usesym 2-fastsym
   LCORR  =      T    Harris-Foulkes like correction to forces

   POTIM  = 0.5000    time-step for ionic-motion
   TEIN   =    0.0    initial temperature
   TEBEG  =    0.0;   TEEND  =   0.0 temperature during run
   SMASS  =  -3.00    Nose mass-parameter (am)
   estimated Nose-frequenzy (Omega)   =  0.10E-29 period in steps = 0.13E+47 mass=  -0.280E-25a.u.
   SCALEE = 1.0000    scale energy and forces
   NPACO  =    256;   APACO  = 16.0  distance and # of slots for P.C.
   PSTRESS=    0.0 pullay stress

  Mass of Ions in am
   POMASS =  12.01 16.00
  Ionic Valenz
   ZVAL   =   4.00  6.00
  Atomic Wigner-Seitz radii
   RWIGS  =  -1.00 -1.00
  virtual crystal weights 
   VCA    =   1.00  1.00
   NELECT =      32.0000    total number of electrons
   NUPDOWN=      -1.0000    fix difference up-down

 DOS related values:
   EMIN   =  10.00;   EMAX   =-10.00  energy-range for DOS
   EFERMI =   0.00
   ISMEAR =     0;   SIGMA  =   0.01  broadening in eV -4-tet -1-fermi 0-gaus

 Electronic relaxation 2 (details)
   IALGO  =     38    algorithm
   LDIAG  =      T    sub-space diagonalisation (order eigenvalues)
   LSUBROT=      F    optimize rotation matrix (better conditioning)
   TURBO    =      0    0=normal 1=particle mesh
   IRESTART =      0    0=no restart 2=restart with 2 vectors
   NREBOOT  =      0    no. of reboots
   NMIN     =      0    reboot dimension
   EREF     =   0.00    reference energy to select bands
   IMIX   =      4    mixing-type and parameters
     AMIX     =   0.40;   BMIX     =  1.00
     AMIX_MAG =   1.60;   BMIX_MAG =  1.00
     AMIN     =   0.10
     WC   =   100.;   INIMIX=   1;  MIXPRE=   1;  MAXMIX= -45

 Intra band minimization:
   WEIMIN = 0.0000     energy-eigenvalue tresh-hold
   EBREAK =  0.78E-09  absolut break condition
   DEPER  =   0.30     relativ break condition  

   TIME   =   0.40     timestep for ELM

  volume/ion in A,a.u.               =    7145.83     48222.46
  Fermi-wavevector in a.u.,A,eV,Ry     =   0.148499  0.280622  0.300035  0.022052
  Thomas-Fermi vector in A             =   0.821704
 
 Write flags
   LWAVE        =      T    write WAVECAR
   LDOWNSAMPLE  =      F    k-point downsampling of WAVECAR
   LCHARG       =      T    write CHGCAR
   LVTOT        =      F    write LOCPOT, total local potential
   LVHAR        =      F    write LOCPOT, Hartree potential only
   LELF         =      F    write electronic localiz. function (ELF)
   LORBIT       =      0    0 simple, 1 ext, 2 COOP (PROOUT), +10 PAW based schemes


 Dipole corrections
   LMONO  =      F    monopole corrections only (constant potential shift)
   LDIPOL =      F    correct potential (dipole corrections)
   IDIPOL =      4    1-x, 2-y, 3-z, 4-all directions 
   EPSILON=  1.0000000 bulk dielectric constant

 Exchange correlation treatment:
   GGA     =    --    GGA type
   LEXCH   =     8    internal setting for exchange type
   VOSKOWN=      0    Vosko Wilk Nusair interpolation
   LHFCALC =     F    Hartree Fock is set to
   LHFONE  =     F    Hartree Fock one center treatment
   AEXX    =    0.0000 exact exchange contribution

 Linear response parameters
   LEPSILON=     F    determine dielectric tensor
   LRPA    =     F    only Hartree local field effects (RPA)
   LNABLA  =     F    use nabla operator in PAW spheres
   LVEL    =     F    velocity operator in full k-point grid
   LINTERFAST=   F  fast interpolation
   KINTER  =     0    interpolate to denser k-point grid
   CSHIFT  =0.1000    complex shift for real part using Kramers Kronig
   OMEGAMAX=  -1.0    maximum frequency
   DEG_THRESHOLD= 0.2000000E-02 threshold for treating states as degnerate
   RTIME   =   -0.100 relaxation time in fs
  (WPLASMAI=    0.000 imaginary part of plasma frequency in eV, 0.658/RTIME)
   DFIELD  = 0.0000000 0.0000000 0.0000000 field for delta impulse in time
 
 Orbital magnetization related:
   ORBITALMAG=     F  switch on orbital magnetization
   LCHIMAG   =     F  perturbation theory with respect to B field
   DQ        =  0.001000  dq finite difference perturbation B field
   LLRAUG    =     F  two centre corrections for induced B field



--------------------------------------------------------------------------------------------------------


 Static calculation
 charge density and potential will be updated during run
 non-spin polarized calculation
 Variant of blocked Davidson
 Davidson routine will perform the subspace rotation
 perform sub-space diagonalisation
    after iterative eigenvector-optimisation
 modified Broyden-mixing scheme, WC =      100.0
 initial mixing is a Kerker type mixing with AMIX =  0.4000 and BMIX =      1.0000
 Hartree-type preconditioning will be used
 using additional bands            16
 reciprocal scheme for non local part
 calculate Harris-corrections to forces 
   (improved forces if not selfconsistent)
 use gradient corrections 
 use of overlap-Matrix (Vanderbilt PP)
 Gauss-broadening in eV      SIGMA  =   0.01


--------------------------------------------------------------------------------------------------------


  energy-cutoff  :     1000.00
  volume of cell :    42875.00
      direct lattice vectors                 reciprocal lattice vectors
    35.000000000  0.000000000  0.000000000     0.028571429  0.000000000  0.000000000
     0.000000000 35.000000000  0.000000000     0.000000000  0.028571429  0.000000000
     0.000000000  0.000000000 35.000000000     0.000000000  0.000000000  0.028571429

  length of vectors
    35.000000000 35.000000000 35.000000000     0.028571429  0.028571429  0.028571429


 
 k-points in units of 2pi/SCALE and weight: g                                       
   0.00000000  0.00000000  0.00000000       1.000
 
 k-points in reciprocal lattice and weights: g                                       
   0.00000000  0.00000000  0.00000000       1.000
 
 position of ions in fractional coordinates (direct lattice) 
   0.00000000  0.00162817  0.00000000
   0.99995729  0.14077647  0.00021554
   0.00000000  0.03506303  0.00000000
   0.00000000  0.96819331  0.00000000
   0.99952212  0.14052361  0.03364661
   0.00039246  0.14102932  0.96678447
 
 position of ions in cartesian coordinates  (Angst):
   0.00000000  0.05698600  0.00000000
  34.99850504  4.92717643  0.00754377
   0.00000000  1.22720600  0.00000000
   0.00000000 33.88676600  0.00000000
  34.98327409  4.91832652  1.17763118
   0.01373599  4.93602633 33.83745636
 


--------------------------------------------------------------------------------------------------------


 use serial FFT for orbitals x direction half grid
 k-point   1 :   0.0000 0.0000 0.0000  plane waves: 1539209

 maximum and minimum number of plane-waves per node :   1539209  1539209

 maximum number of plane-waves:   1539209
 maximum index in each direction: 
   IXMAX=   90   IYMAX=   90   IZMAX=   90
   IXMIN=    0   IYMIN=  -90   IZMIN=  -90


 serial   3D FFT for wavefunctions
 parallel 3D FFT for charge:
    minimum data exchange during FFTs selected (reduces bandwidth)


 total amount of memory used by VASP MPI-rank0  4007897. kBytes
=======================================================================

   base      :      30000. kBytes
   nonl-proj :     344787. kBytes
   fftplans  :     676185. kBytes
   grid      :    2932288. kBytes
   one-center:          9. kBytes
   wavefun   :      24628. kBytes
 
     INWAV:  cpu time    0.0001: real time    0.0000
 Broyden mixing: mesh for mixing (old mesh)
   NGX =181   NGY =181   NGZ =181
  (NGX  =756   NGY  =756   NGZ  =756)
  gives a total of ****** points

 initial charge density was supplied:
 charge density of overlapping atoms calculated
 number of electron      32.0000000 magnetization 
 keeping initial charge density in first step


--------------------------------------------------------------------------------------------------------


 Maximum index for augmentation-charges          1123 (set IRDMAX)


--------------------------------------------------------------------------------------------------------


 First call to EWALD:  gamma=   0.051
 Maximum number of real-space cells 3x 3x 3
 Maximum number of reciprocal cells 3x 3x 3

    FEWALD:  cpu time    0.0007: real time    0.0007


--------------------------------------- Iteration      1(   1)  ---------------------------------------


    POTLOK:  cpu time   13.5950: real time   13.6187
    SETDIJ:  cpu time    0.0493: real time    0.0497
     EDDAV:  cpu time   18.1056: real time   18.1513
       DOS:  cpu time    0.0070: real time    0.0070
    --------------------------------------------
      LOOP:  cpu time   31.7570: real time   31.8268

 eigenvalue-minimisations  :   128
 total energy-change (2. order) : 0.2302536E+03  (-0.6955778E+03)
 number of electron      32.0000000 magnetization 
 augmentation part       32.0000000 magnetization 

 Free energy of the ion-electron system (eV)
  ---------------------------------------------------
  alpha Z        PSCENC =         0.07205883
  Ewald energy   TEWEN  =      1803.36600580
  -Hartree energ DENC   =     -3404.48023653
  -exchange      EXHF   =         0.00000000
  -V(xc)+E(xc)   XCENC  =       135.98748558
  PAW double counting   =      1593.34061361    -1611.57548628
  entropy T*S    EENTRO =        -0.00592517
  eigenvalues    EBANDS =      -310.27602142
  atomic energy  EATOM  =      2023.82507259
  Solvation  Ediel_sol  =         0.00000000
  ---------------------------------------------------
  free energy    TOTEN  =       230.25356701 eV

  energy without entropy =      230.25949218  energy(sigma->0) =      230.25652960


--------------------------------------------------------------------------------------------------------




--------------------------------------- Iteration      1(   2)  ---------------------------------------


     EDDAV:  cpu time   18.0872: real time   18.1248
       DOS:  cpu time    0.0068: real time    0.0068
    --------------------------------------------
      LOOP:  cpu time   18.0940: real time   18.1316

 eigenvalue-minimisations  :   128
 total energy-change (2. order) :-0.2468647E+03  (-0.2451922E+03)
 number of electron      32.0000000 magnetization 
 augmentation part       32.0000000 magnetization 

 Free energy of the ion-electron system (eV)
  ---------------------------------------------------
  alpha Z        PSCENC =         0.07205883
  Ewald energy   TEWEN  =      1803.36600580
  -Hartree energ DENC   =     -3404.48023653
  -exchange      EXHF   =         0.00000000
  -V(xc)+E(xc)   XCENC  =       135.98748558
  PAW double counting   =      1593.34061361    -1611.57548628
  entropy T*S    EENTRO =        -0.00000000
  eigenvalues    EBANDS =      -557.14664551
  atomic energy  EATOM  =      2023.82507259
  Solvation  Ediel_sol  =         0.00000000
  ---------------------------------------------------
  free energy    TOTEN  =       -16.61113191 eV

  energy without entropy =      -16.61113191  energy(sigma->0) =      -16.61113191


--------------------------------------------------------------------------------------------------------




--------------------------------------- Iteration      1(   3)  ---------------------------------------


     EDDAV:  cpu time   10.8992: real time   10.9218
       DOS:  cpu time    0.0055: real time    0.0056
    --------------------------------------------
      LOOP:  cpu time   10.9048: real time   10.9274

 eigenvalue-minimisations  :    64
 total energy-change (2. order) :-0.3076345E+02  (-0.3076345E+02)
 number of electron      32.0000000 magnetization 
 augmentation part       32.0000000 magnetization 

 Free energy of the ion-electron system (eV)
  ---------------------------------------------------
  alpha Z        PSCENC =         0.07205883
  Ewald energy   TEWEN  =      1803.36600580
  -Hartree energ DENC   =     -3404.48023653
  -exchange      EXHF   =         0.00000000
  -V(xc)+E(xc)   XCENC  =       135.98748558
  PAW double counting   =      1593.34061361    -1611.57548628
  entropy T*S    EENTRO =        -0.00000000
  eigenvalues    EBANDS =      -587.91009656
  atomic energy  EATOM  =      2023.82507259
  Solvation  Ediel_sol  =         0.00000000
  ---------------------------------------------------
  free energy    TOTEN  =       -47.37458296 eV

  energy without entropy =      -47.37458296  energy(sigma->0) =      -47.37458296


--------------------------------------------------------------------------------------------------------




--------------------------------------- Iteration      1(   4)  ---------------------------------------


     EDDAV:  cpu time   18.1131: real time   18.1502
       DOS:  cpu time    0.0053: real time    0.0053
    --------------------------------------------
      LOOP:  cpu time   18.1184: real time   18.1556

 eigenvalue-minimisations  :   128
 total energy-change (2. order) :-0.4518762E+00  (-0.4518762E+00)
 number of electron      32.0000000 magnetization 
 augmentation part       32.0000000 magnetization 

 Free energy of the ion-electron system (eV)
  ---------------------------------------------------
  alpha Z        PSCENC =         0.07205883
  Ewald energy   TEWEN  =      1803.36600580
  -Hartree energ DENC   =     -3404.48023653
  -exchange      EXHF   =         0.00000000
  -V(xc)+E(xc)   XCENC  =       135.98748558
  PAW double counting   =      1593.34061361    -1611.57548628
  entropy T*S    EENTRO =        -0.00000000
  eigenvalues    EBANDS =      -588.36197272
  atomic energy  EATOM  =      2023.82507259
  Solvation  Ediel_sol  =         0.00000000
  ---------------------------------------------------
  free energy    TOTEN  =       -47.82645912 eV

  energy without entropy =      -47.82645912  energy(sigma->0) =      -47.82645912


--------------------------------------------------------------------------------------------------------




--------------------------------------- Iteration      1(   5)  ---------------------------------------


     EDDAV:  cpu time   14.4962: real time   14.5268
       DOS:  cpu time    0.0002: real time    0.0002
    CHARGE:  cpu time    5.3114: real time    5.3201
    MIXING:  cpu time    0.2185: real time    0.2189
    --------------------------------------------
      LOOP:  cpu time   20.0264: real time   20.0660

 eigenvalue-minimisations  :    96
 total energy-change (2. order) :-0.1931065E-03  (-0.1931222E-03)
 number of electron      31.9999999 magnetization 
 augmentation part        6.0055222 magnetization 

 Broyden mixing:
  rms(total) = 0.65531E+01    rms(broyden)= 0.65531E+01
  rms(prec ) = 0.65590E+01
  weight for this iteration     100.00

 Free energy of the ion-electron system (eV)
  ---------------------------------------------------
  alpha Z        PSCENC =         0.07205883
  Ewald energy   TEWEN  =      1803.36600580
  -Hartree energ DENC   =     -3404.48023653
  -exchange      EXHF   =         0.00000000
  -V(xc)+E(xc)   XCENC  =       135.98748558
  PAW double counting   =      1593.34061361    -1611.57548628
  entropy T*S    EENTRO =        -0.00000000
  eigenvalues    EBANDS =      -588.36216583
  atomic energy  EATOM  =      2023.82507259
  Solvation  Ediel_sol  =         0.00000000
  ---------------------------------------------------
  free energy    TOTEN  =       -47.82665223 eV

  energy without entropy =      -47.82665223  energy(sigma->0) =      -47.82665223


--------------------------------------------------------------------------------------------------------




--------------------------------------- Iteration      1(   6)  ---------------------------------------


    POTLOK:  cpu time   13.0562: real time   13.0785
    SETDIJ:  cpu time    0.0487: real time    0.0488
     EDDAV:  cpu time   14.4996: real time   14.5312
       DOS:  cpu time    0.0095: real time    0.0095
    CHARGE:  cpu time    5.1893: real time    5.1974
    MIXING:  cpu time    0.2252: real time    0.2282
    --------------------------------------------
      LOOP:  cpu time   33.0285: real time   33.0935

 eigenvalue-minimisations  :    96
 total energy-change (2. order) : 0.3317903E+01  (-0.2370574E+01)
 number of electron      32.0000000 magnetization 
 augmentation part        5.3244101 magnetization 

 Broyden mixing:
  rms(total) = 0.61931E+01    rms(broyden)= 0.61931E+01
  rms(prec ) = 0.61937E+01
  weight for this iteration     100.00

 eigenvalues of (default mixing * dielectric matrix)
  average eigenvalue GAMMA=   0.9602
  0.9602

 Free energy of the ion-electron system (eV)
  ---------------------------------------------------
  alpha Z        PSCENC =         0.07205883
  Ewald energy   TEWEN  =      1803.36600580
  -Hartree energ DENC   =     -3454.66651430
  -exchange      EXHF   =         0.00000000
  -V(xc)+E(xc)   XCENC  =       139.09162145
  PAW double counting   =      3422.07608796    -3443.23812834
  entropy T*S    EENTRO =        -0.00000000
  eigenvalues    EBANDS =      -535.03495339
  atomic energy  EATOM  =      2023.82507259
  Solvation  Ediel_sol  =         0.00000000
  ---------------------------------------------------
  free energy    TOTEN  =       -44.50874939 eV

  energy without entropy =      -44.50874939  energy(sigma->0) =      -44.50874939


--------------------------------------------------------------------------------------------------------




--------------------------------------- Iteration      1(   7)  ---------------------------------------


    POTLOK:  cpu time   13.0828: real time   13.1052
    SETDIJ:  cpu time    0.0485: real time    0.0486
     EDDAV:  cpu time   14.4878: real time   14.5181
       DOS:  cpu time    0.0071: real time    0.0071
    CHARGE:  cpu time    5.1976: real time    5.2059
    MIXING:  cpu time    0.2343: real time    0.2355
    --------------------------------------------
      LOOP:  cpu time   33.0581: real time   33.1204

 eigenvalue-minimisations  :    96
 total energy-change (2. order) : 0.2953775E+00  (-0.1056977E+00)
 number of electron      32.0000000 magnetization 
 augmentation part        5.3858424 magnetization 

 Broyden mixing:
  rms(total) = 0.34388E+01    rms(broyden)= 0.34388E+01
  rms(prec ) = 0.34391E+01
  weight for this iteration     100.00

 eigenvalues of (default mixing * dielectric matrix)
  average eigenvalue GAMMA=   1.6903
  0.8442  2.5363

 Free energy of the ion-electron system (eV)
  ---------------------------------------------------
  alpha Z        PSCENC =         0.07205883
  Ewald energy   TEWEN  =      1803.36600580
  -Hartree energ DENC   =     -3461.73610223
  -exchange      EXHF   =         0.00000000
  -V(xc)+E(xc)   XCENC  =       139.35747940
  PAW double counting   =      5321.10622277    -5341.84518150
  entropy T*S    EENTRO =        -0.00000000
  eigenvalues    EBANDS =      -528.35892756
  atomic energy  EATOM  =      2023.82507259
  Solvation  Ediel_sol  =         0.00000000
  ---------------------------------------------------
  free energy    TOTEN  =       -44.21337189 eV

  energy without entropy =      -44.21337189  energy(sigma->0) =      -44.21337189


--------------------------------------------------------------------------------------------------------




--------------------------------------- Iteration      1(   8)  ---------------------------------------


    POTLOK:  cpu time   13.0917: real time   13.1138
    SETDIJ:  cpu time    0.0488: real time    0.0488
     EDDAV:  cpu time   18.0746: real time   18.1147
       DOS:  cpu time    0.0133: real time    0.0133
    CHARGE:  cpu time    5.2338: real time    5.2419
    MIXING:  cpu time    0.2940: real time    0.2945
    --------------------------------------------
      LOOP:  cpu time   36.7561: real time   36.8270

 eigenvalue-minimisations  :   128
 total energy-change (2. order) : 0.1181319E+00  (-0.3999885E-01)
 number of electron      32.0000000 magnetization 
 augmentation part        5.3365936 magnetization 

 Broyden mixing:
  rms(total) = 0.23614E+00    rms(broyden)= 0.23614E+00
  rms(prec ) = 0.23669E+00
  weight for this iteration     100.00

 eigenvalues of (default mixing * dielectric matrix)
  average eigenvalue GAMMA=   1.5180
  2.5243  1.1295  0.9002

 Free energy of the ion-electron system (eV)
  ---------------------------------------------------
  alpha Z        PSCENC =         0.07205883
  Ewald energy   TEWEN  =      1803.36600580
  -Hartree energ DENC   =     -3478.64589741
  -exchange      EXHF   =         0.00000000
  -V(xc)+E(xc)   XCENC  =       140.24369580
  PAW double counting   =      9515.58932629    -9536.32073959
  entropy T*S    EENTRO =        -0.00000000
  eigenvalues    EBANDS =      -512.22476231
  atomic energy  EATOM  =      2023.82507259
  Solvation  Ediel_sol  =         0.00000000
  ---------------------------------------------------
  free energy    TOTEN  =       -44.09524000 eV

  energy without entropy =      -44.09524000  energy(sigma->0) =      -44.09524000


--------------------------------------------------------------------------------------------------------




--------------------------------------- Iteration      1(   9)  ---------------------------------------


    POTLOK:  cpu time   13.1361: real time   13.1579
    SETDIJ:  cpu time    0.0486: real time    0.0486
     EDDAV:  cpu time   14.5045: real time   14.5348
       DOS:  cpu time    0.0109: real time    0.0109
    CHARGE:  cpu time    5.1594: real time    5.1673
    MIXING:  cpu time    0.2496: real time    0.2500
    --------------------------------------------
      LOOP:  cpu time   33.1091: real time   33.1695

 eigenvalue-minimisations  :    96
 total energy-change (2. order) : 0.6699154E-02  (-0.3673147E-02)
 number of electron      32.0000000 magnetization 
 augmentation part        5.3326500 magnetization 

 Broyden mixing:
  rms(total) = 0.68794E-01    rms(broyden)= 0.68793E-01
  rms(prec ) = 0.69174E-01
  weight for this iteration     100.00

 eigenvalues of (default mixing * dielectric matrix)
  average eigenvalue GAMMA=   1.4738
  2.5262  0.8587  1.0211  1.4893

 Free energy of the ion-electron system (eV)
  ---------------------------------------------------
  alpha Z        PSCENC =         0.07205883
  Ewald energy   TEWEN  =      1803.36600580
  -Hartree energ DENC   =     -3477.31598995
  -exchange      EXHF   =         0.00000000
  -V(xc)+E(xc)   XCENC  =       140.16395225
  PAW double counting   =      9604.71376159    -9625.35225210
  entropy T*S    EENTRO =        -0.00000000
  eigenvalues    EBANDS =      -513.56114985
  atomic energy  EATOM  =      2023.82507259
  Solvation  Ediel_sol  =         0.00000000
  ---------------------------------------------------
  free energy    TOTEN  =       -44.08854085 eV

  energy without entropy =      -44.08854085  energy(sigma->0) =      -44.08854085


--------------------------------------------------------------------------------------------------------




--------------------------------------- Iteration      1(  10)  ---------------------------------------


    POTLOK:  cpu time   13.0792: real time   13.1009
    SETDIJ:  cpu time    0.0589: real time    0.0590
     EDDAV:  cpu time   18.0998: real time   18.1370
       DOS:  cpu time    0.0064: real time    0.0064
    CHARGE:  cpu time    5.2271: real time    5.2351
    MIXING:  cpu time    0.2601: real time    0.2606
    --------------------------------------------
      LOOP:  cpu time   36.7315: real time   36.7990

 eigenvalue-minimisations  :   128
 total energy-change (2. order) :-0.3011603E-02  (-0.3919269E-03)
 number of electron      32.0000000 magnetization 
 augmentation part        5.3386431 magnetization 

 Broyden mixing:
  rms(total) = 0.46192E-01    rms(broyden)= 0.46192E-01
  rms(prec ) = 0.46455E-01
  weight for this iteration     100.00

 eigenvalues of (default mixing * dielectric matrix)
  average eigenvalue GAMMA=   1.4355
  2.5122  1.6680  0.9484  0.9484  1.1005

 Free energy of the ion-electron system (eV)
  ---------------------------------------------------
  alpha Z        PSCENC =         0.07205883
  Ewald energy   TEWEN  =      1803.36600580
  -Hartree energ DENC   =     -3476.98874869
  -exchange      EXHF   =         0.00000000
  -V(xc)+E(xc)   XCENC  =       140.12351530
  PAW double counting   =      9646.23444989    -9666.79168606
  entropy T*S    EENTRO =        -0.00000000
  eigenvalues    EBANDS =      -513.93222011
  atomic energy  EATOM  =      2023.82507259
  Solvation  Ediel_sol  =         0.00000000
  ---------------------------------------------------
  free energy    TOTEN  =       -44.09155245 eV

  energy without entropy =      -44.09155245  energy(sigma->0) =      -44.09155245


--------------------------------------------------------------------------------------------------------




--------------------------------------- Iteration      1(  11)  ---------------------------------------


    POTLOK:  cpu time   13.1266: real time   13.1482
    SETDIJ:  cpu time    0.0486: real time    0.0486
     EDDAV:  cpu time   14.4802: real time   14.5097
       DOS:  cpu time    0.0069: real time    0.0068
    CHARGE:  cpu time    5.1609: real time    5.1690
    MIXING:  cpu time    0.2671: real time    0.2677
    --------------------------------------------
      LOOP:  cpu time   33.0902: real time   33.1500

 eigenvalue-minimisations  :    96
 total energy-change (2. order) :-0.2743953E-02  (-0.2769951E-04)
 number of electron      32.0000000 magnetization 
 augmentation part        5.3377481 magnetization 

 Broyden mixing:
  rms(total) = 0.20466E-01    rms(broyden)= 0.20466E-01
  rms(prec ) = 0.20823E-01
  weight for this iteration     100.00

 eigenvalues of (default mixing * dielectric matrix)
  average eigenvalue GAMMA=   1.4966
  2.5266  2.1974  1.5381  0.9571  0.9571  0.8031

 Free energy of the ion-electron system (eV)
  ---------------------------------------------------
  alpha Z        PSCENC =         0.07205883
  Ewald energy   TEWEN  =      1803.36600580
  -Hartree energ DENC   =     -3477.43491976
  -exchange      EXHF   =         0.00000000
  -V(xc)+E(xc)   XCENC  =       140.13134837
  PAW double counting   =      9641.07645062    -9661.62008802
  entropy T*S    EENTRO =        -0.00000000
  eigenvalues    EBANDS =      -513.51022484
  atomic energy  EATOM  =      2023.82507259
  Solvation  Ediel_sol  =         0.00000000
  ---------------------------------------------------
  free energy    TOTEN  =       -44.09429640 eV

  energy without entropy =      -44.09429640  energy(sigma->0) =      -44.09429640


--------------------------------------------------------------------------------------------------------




--------------------------------------- Iteration      1(  12)  ---------------------------------------


    POTLOK:  cpu time   13.0743: real time   13.0957
    SETDIJ:  cpu time    0.0486: real time    0.0486
     EDDAV:  cpu time   14.4891: real time   14.5190
       DOS:  cpu time    0.0155: real time    0.0155
    CHARGE:  cpu time    5.1953: real time    5.2033
    MIXING:  cpu time    0.2645: real time    0.2650
    --------------------------------------------
      LOOP:  cpu time   33.0872: real time   33.1470

 eigenvalue-minimisations  :    96
 total energy-change (2. order) :-0.3245142E-02  (-0.3079193E-04)
 number of electron      32.0000000 magnetization 
 augmentation part        5.3369902 magnetization 

 Broyden mixing:
  rms(total) = 0.48797E-02    rms(broyden)= 0.48797E-02
  rms(prec ) = 0.55733E-02
  weight for this iteration     100.00

 eigenvalues of (default mixing * dielectric matrix)
  average eigenvalue GAMMA=   1.4728
  2.6874  2.4974  1.5991  1.0199  0.8218  0.8218  0.8620

 Free energy of the ion-electron system (eV)
  ---------------------------------------------------
  alpha Z        PSCENC =         0.07205883
  Ewald energy   TEWEN  =      1803.36600580
  -Hartree energ DENC   =     -3478.02634920
  -exchange      EXHF   =         0.00000000
  -V(xc)+E(xc)   XCENC  =       140.14294006
  PAW double counting   =      9639.31625704    -9659.84976873
  entropy T*S    EENTRO =        -0.00000000
  eigenvalues    EBANDS =      -512.94375793
  atomic energy  EATOM  =      2023.82507259
  Solvation  Ediel_sol  =         0.00000000
  ---------------------------------------------------
  free energy    TOTEN  =       -44.09754154 eV

  energy without entropy =      -44.09754154  energy(sigma->0) =      -44.09754154


--------------------------------------------------------------------------------------------------------




--------------------------------------- Iteration      1(  13)  ---------------------------------------


    POTLOK:  cpu time   13.1117: real time   13.1334
    SETDIJ:  cpu time    0.0488: real time    0.0489
     EDDAV:  cpu time   14.5006: real time   14.5307
       DOS:  cpu time    0.0002: real time    0.0002
    CHARGE:  cpu time    5.1390: real time    5.1470
    MIXING:  cpu time    0.2804: real time    0.2810
    --------------------------------------------
      LOOP:  cpu time   33.0806: real time   33.1411

 eigenvalue-minimisations  :    96
 total energy-change (2. order) :-0.1827246E-02  (-0.9781944E-05)
 number of electron      32.0000000 magnetization 
 augmentation part        5.3368296 magnetization 

 Broyden mixing:
  rms(total) = 0.24048E-02    rms(broyden)= 0.24048E-02
  rms(prec ) = 0.31925E-02
  weight for this iteration     100.00

 eigenvalues of (default mixing * dielectric matrix)
  average eigenvalue GAMMA=   1.4966
  3.0612  2.5224  1.6774  1.1178  1.0084  1.0084  0.8965  0.6811

 Free energy of the ion-electron system (eV)
  ---------------------------------------------------
  alpha Z        PSCENC =         0.07205883
  Ewald energy   TEWEN  =      1803.36600580
  -Hartree energ DENC   =     -3478.31780220
  -exchange      EXHF   =         0.00000000
  -V(xc)+E(xc)   XCENC  =       140.14695686
  PAW double counting   =      9637.57326514    -9658.10350984
  entropy T*S    EENTRO =        -0.00000000
  eigenvalues    EBANDS =      -512.66141598
  atomic energy  EATOM  =      2023.82507259
  Solvation  Ediel_sol  =         0.00000000
  ---------------------------------------------------
  free energy    TOTEN  =       -44.09936879 eV

  energy without entropy =      -44.09936879  energy(sigma->0) =      -44.09936879


--------------------------------------------------------------------------------------------------------




--------------------------------------- Iteration      1(  14)  ---------------------------------------


    POTLOK:  cpu time   13.0984: real time   13.1204
    SETDIJ:  cpu time    0.0487: real time    0.0487
     EDDAV:  cpu time   14.5166: real time   14.5460
       DOS:  cpu time    0.0089: real time    0.0089
    CHARGE:  cpu time    5.2368: real time    5.2448
    MIXING:  cpu time    0.2906: real time    0.2939
    --------------------------------------------
      LOOP:  cpu time   33.2000: real time   33.2627

 eigenvalue-minimisations  :    96
 total energy-change (2. order) :-0.2246379E-02  (-0.1561013E-04)
 number of electron      32.0000000 magnetization 
 augmentation part        5.3367209 magnetization 

 Broyden mixing:
  rms(total) = 0.21179E-02    rms(broyden)= 0.21179E-02
  rms(prec ) = 0.25391E-02
  weight for this iteration     100.00

 eigenvalues of (default mixing * dielectric matrix)
  average eigenvalue GAMMA=   1.7074
  4.5598  2.5193  2.3646  1.5446  1.1117  0.8869  0.8869  0.7894  0.7035

 Free energy of the ion-electron system (eV)
  ---------------------------------------------------
  alpha Z        PSCENC =         0.07205883
  Ewald energy   TEWEN  =      1803.36600580
  -Hartree energ DENC   =     -3478.64102862
  -exchange      EXHF   =         0.00000000
  -V(xc)+E(xc)   XCENC  =       140.14971961
  PAW double counting   =      9635.75130874    -9656.28015666
  entropy T*S    EENTRO =        -0.00000000
  eigenvalues    EBANDS =      -512.34459546
  atomic energy  EATOM  =      2023.82507259
  Solvation  Ediel_sol  =         0.00000000
  ---------------------------------------------------
  free energy    TOTEN  =       -44.10161517 eV

  energy without entropy =      -44.10161517  energy(sigma->0) =      -44.10161517


--------------------------------------------------------------------------------------------------------




--------------------------------------- Iteration      1(  15)  ---------------------------------------


    POTLOK:  cpu time   13.1641: real time   13.1860
    SETDIJ:  cpu time    0.0486: real time    0.0486
     EDDAV:  cpu time   14.4856: real time   14.5173
       DOS:  cpu time    0.0053: real time    0.0053
    CHARGE:  cpu time    5.1445: real time    5.1526
    MIXING:  cpu time    0.3078: real time    0.3084
    --------------------------------------------
      LOOP:  cpu time   33.1558: real time   33.2182

 eigenvalue-minimisations  :    96
 total energy-change (2. order) :-0.2095909E-02  (-0.2883870E-04)
 number of electron      32.0000000 magnetization 
 augmentation part        5.3365868 magnetization 

 Broyden mixing:
  rms(total) = 0.10471E-02    rms(broyden)= 0.10471E-02
  rms(prec ) = 0.12388E-02
  weight for this iteration     100.00

 eigenvalues of (default mixing * dielectric matrix)
  average eigenvalue GAMMA=   1.7503
  5.2090  2.5615  2.4816  1.5952  1.2163  0.9982  0.9982  0.8649  0.8649  0.7136

 Free energy of the ion-electron system (eV)
  ---------------------------------------------------
  alpha Z        PSCENC =         0.07205883
  Ewald energy   TEWEN  =      1803.36600580
  -Hartree energ DENC   =     -3479.00609938
  -exchange      EXHF   =         0.00000000
  -V(xc)+E(xc)   XCENC  =       140.15209156
  PAW double counting   =      9635.52875398    -9656.05752287
  entropy T*S    EENTRO =        -0.00000000
  eigenvalues    EBANDS =      -511.98407158
  atomic energy  EATOM  =      2023.82507259
  Solvation  Ediel_sol  =         0.00000000
  ---------------------------------------------------
  free energy    TOTEN  =       -44.10371108 eV

  energy without entropy =      -44.10371108  energy(sigma->0) =      -44.10371108


--------------------------------------------------------------------------------------------------------




--------------------------------------- Iteration      1(  16)  ---------------------------------------


    POTLOK:  cpu time   13.1302: real time   13.1526
    SETDIJ:  cpu time    0.0486: real time    0.0486
     EDDAV:  cpu time   18.0994: real time   18.1368
       DOS:  cpu time    0.0049: real time    0.0049
    CHARGE:  cpu time    5.1923: real time    5.1995
    MIXING:  cpu time    0.3662: real time    0.3668
    --------------------------------------------
      LOOP:  cpu time   36.8416: real time   36.9093

 eigenvalue-minimisations  :   128
 total energy-change (2. order) :-0.6806163E-03  (-0.2149092E-05)
 number of electron      32.0000000 magnetization 
 augmentation part        5.3365254 magnetization 

 Broyden mixing:
  rms(total) = 0.64189E-03    rms(broyden)= 0.64189E-03
  rms(prec ) = 0.78903E-03
  weight for this iteration     100.00

 eigenvalues of (default mixing * dielectric matrix)
  average eigenvalue GAMMA=   1.7679
  5.5032  2.7049  2.4681  1.7448  1.3789  1.3789  0.9764  0.8920  0.8920  0.7934
  0.7137

 Free energy of the ion-electron system (eV)
  ---------------------------------------------------
  alpha Z        PSCENC =         0.07205883
  Ewald energy   TEWEN  =      1803.36600580
  -Hartree energ DENC   =     -3479.08112376
  -exchange      EXHF   =         0.00000000
  -V(xc)+E(xc)   XCENC  =       140.15183326
  PAW double counting   =      9636.06067554    -9656.58934006
  entropy T*S    EENTRO =        -0.00000000
  eigenvalues    EBANDS =      -511.90957390
  atomic energy  EATOM  =      2023.82507259
  Solvation  Ediel_sol  =         0.00000000
  ---------------------------------------------------
  free energy    TOTEN  =       -44.10439169 eV

  energy without entropy =      -44.10439169  energy(sigma->0) =      -44.10439169


--------------------------------------------------------------------------------------------------------




--------------------------------------- Iteration      1(  17)  ---------------------------------------


    POTLOK:  cpu time   13.1728: real time   13.1950
    SETDIJ:  cpu time    0.0485: real time    0.0486
     EDDAV:  cpu time   10.8638: real time   10.8866
       DOS:  cpu time    0.0087: real time    0.0087
    CHARGE:  cpu time    5.1323: real time    5.1398
    MIXING:  cpu time    0.3948: real time    0.3964
    --------------------------------------------
      LOOP:  cpu time   29.6209: real time   29.6751

 eigenvalue-minimisations  :    64
 total energy-change (2. order) :-0.5732522E-03  (-0.1480352E-05)
 number of electron      32.0000000 magnetization 
 augmentation part        5.3365170 magnetization 

 Broyden mixing:
  rms(total) = 0.54230E-03    rms(broyden)= 0.54230E-03
  rms(prec ) = 0.61561E-03
  weight for this iteration     100.00

 eigenvalues of (default mixing * dielectric matrix)
  average eigenvalue GAMMA=   1.8615
  6.1432  3.1869  2.3972  2.3972  1.5598  1.5598  0.9471  0.9471  0.9464  0.8089
  0.7223  0.7223

 Free energy of the ion-electron system (eV)
  ---------------------------------------------------
  alpha Z        PSCENC =         0.07205883
  Ewald energy   TEWEN  =      1803.36600580
  -Hartree energ DENC   =     -3479.12162018
  -exchange      EXHF   =         0.00000000
  -V(xc)+E(xc)   XCENC  =       140.15113458
  PAW double counting   =      9636.27940988    -9656.80778350
  entropy T*S    EENTRO =        -0.00000000
  eigenvalues    EBANDS =      -511.86924296
  atomic energy  EATOM  =      2023.82507259
  Solvation  Ediel_sol  =         0.00000000
  ---------------------------------------------------
  free energy    TOTEN  =       -44.10496495 eV

  energy without entropy =      -44.10496495  energy(sigma->0) =      -44.10496495


--------------------------------------------------------------------------------------------------------




--------------------------------------- Iteration      1(  18)  ---------------------------------------


    POTLOK:  cpu time   13.0853: real time   13.1068
    SETDIJ:  cpu time    0.0486: real time    0.0486
     EDDAV:  cpu time   18.0849: real time   18.1231
       DOS:  cpu time    0.0102: real time    0.0102
    CHARGE:  cpu time    5.1995: real time    5.2073
    MIXING:  cpu time    0.3422: real time    0.3429
    --------------------------------------------
      LOOP:  cpu time   36.7706: real time   36.8389

 eigenvalue-minimisations  :   128
 total energy-change (2. order) :-0.3906900E-03  (-0.1181404E-05)
 number of electron      32.0000000 magnetization 
 augmentation part        5.3364631 magnetization 

 Broyden mixing:
  rms(total) = 0.33791E-03    rms(broyden)= 0.33791E-03
  rms(prec ) = 0.37392E-03
  weight for this iteration     100.00

 eigenvalues of (default mixing * dielectric matrix)
  average eigenvalue GAMMA=   1.8984
  7.0689  3.6799  2.4549  2.4549  1.5859  1.2898  1.0906  1.0906  0.8509  0.8509
  0.8306  0.7160  0.7160

 Free energy of the ion-electron system (eV)
  ---------------------------------------------------
  alpha Z        PSCENC =         0.07205883
  Ewald energy   TEWEN  =      1803.36600580
  -Hartree energ DENC   =     -3479.15585164
  -exchange      EXHF   =         0.00000000
  -V(xc)+E(xc)   XCENC  =       140.15079968
  PAW double counting   =      9636.26926970    -9656.79752449
  entropy T*S    EENTRO =        -0.00000000
  eigenvalues    EBANDS =      -511.83518610
  atomic energy  EATOM  =      2023.82507259
  Solvation  Ediel_sol  =         0.00000000
  ---------------------------------------------------
  free energy    TOTEN  =       -44.10535564 eV

  energy without entropy =      -44.10535564  energy(sigma->0) =      -44.10535564


--------------------------------------------------------------------------------------------------------




--------------------------------------- Iteration      1(  19)  ---------------------------------------


    POTLOK:  cpu time   13.1311: real time   13.1536
    SETDIJ:  cpu time    0.0486: real time    0.0487
     EDDAV:  cpu time   18.0666: real time   18.1032
       DOS:  cpu time    0.0079: real time    0.0079
    CHARGE:  cpu time    5.1781: real time    5.1855
    MIXING:  cpu time    0.3377: real time    0.3385
    --------------------------------------------
      LOOP:  cpu time   36.7701: real time   36.8373

 eigenvalue-minimisations  :   128
 total energy-change (2. order) :-0.1001010E-03  (-0.1030509E-06)
 number of electron      32.0000000 magnetization 
 augmentation part        5.3364598 magnetization 

 Broyden mixing:
  rms(total) = 0.27100E-03    rms(broyden)= 0.27100E-03
  rms(prec ) = 0.29742E-03
  weight for this iteration     100.00

 eigenvalues of (default mixing * dielectric matrix)
  average eigenvalue GAMMA=   1.9301
  7.4305  3.8904  2.4867  2.4867  1.6661  1.5505  1.5505  1.0728  0.9096  0.9096
  0.8669  0.8025  0.6994  0.6994

 Free energy of the ion-electron system (eV)
  ---------------------------------------------------
  alpha Z        PSCENC =         0.07205883
  Ewald energy   TEWEN  =      1803.36600580
  -Hartree energ DENC   =     -3479.16585441
  -exchange      EXHF   =         0.00000000
  -V(xc)+E(xc)   XCENC  =       140.15066999
  PAW double counting   =      9636.23136436    -9656.75957730
  entropy T*S    EENTRO =        -0.00000000
  eigenvalues    EBANDS =      -511.82519558
  atomic energy  EATOM  =      2023.82507259
  Solvation  Ediel_sol  =         0.00000000
  ---------------------------------------------------
  free energy    TOTEN  =       -44.10545574 eV

  energy without entropy =      -44.10545574  energy(sigma->0) =      -44.10545574


--------------------------------------------------------------------------------------------------------




--------------------------------------- Iteration      1(  20)  ---------------------------------------


    POTLOK:  cpu time   13.1370: real time   13.1592
    SETDIJ:  cpu time    0.0674: real time    0.0675
     EDDAV:  cpu time   18.1459: real time   18.1829
       DOS:  cpu time    0.0063: real time    0.0063
    CHARGE:  cpu time    5.1751: real time    5.1825
    MIXING:  cpu time    0.4268: real time    0.4276
    --------------------------------------------
      LOOP:  cpu time   36.9585: real time   37.0259

 eigenvalue-minimisations  :   128
 total energy-change (2. order) :-0.1380050E-03  (-0.1802399E-06)
 number of electron      32.0000000 magnetization 
 augmentation part        5.3364738 magnetization 

 Broyden mixing:
  rms(total) = 0.97128E-04    rms(broyden)= 0.97128E-04
  rms(prec ) = 0.12035E-03
  weight for this iteration     100.00

 eigenvalues of (default mixing * dielectric matrix)
  average eigenvalue GAMMA=   2.0340
  8.3217  4.5369  3.0123  2.4297  2.3231  1.5002  1.5002  1.0414  1.0414  0.8870
  0.8870  0.8481  0.7418  0.7418  0.6972

 Free energy of the ion-electron system (eV)
  ---------------------------------------------------
  alpha Z        PSCENC =         0.07205883
  Ewald energy   TEWEN  =      1803.36600580
  -Hartree energ DENC   =     -3479.16869537
  -exchange      EXHF   =         0.00000000
  -V(xc)+E(xc)   XCENC  =       140.15034146
  PAW double counting   =      9635.98402157    -9656.51219359
  entropy T*S    EENTRO =        -0.00000000
  eigenvalues    EBANDS =      -511.82220503
  atomic energy  EATOM  =      2023.82507259
  Solvation  Ediel_sol  =         0.00000000
  ---------------------------------------------------
  free energy    TOTEN  =       -44.10559374 eV

  energy without entropy =      -44.10559374  energy(sigma->0) =      -44.10559374


--------------------------------------------------------------------------------------------------------




--------------------------------------- Iteration      1(  21)  ---------------------------------------


    POTLOK:  cpu time   13.1417: real time   13.1639
    SETDIJ:  cpu time    0.0486: real time    0.0486
     EDDAV:  cpu time   10.8855: real time   10.9082
       DOS:  cpu time    0.0167: real time    0.0167
    CHARGE:  cpu time    5.1344: real time    5.1418
    MIXING:  cpu time    0.3924: real time    0.3932
    --------------------------------------------
      LOOP:  cpu time   29.6193: real time   29.6725

 eigenvalue-minimisations  :    64
 total energy-change (2. order) :-0.7550757E-04  (-0.1019815E-06)
 number of electron      32.0000000 magnetization 
 augmentation part        5.3364828 magnetization 

 Broyden mixing:
  rms(total) = 0.10515E-03    rms(broyden)= 0.10515E-03
  rms(prec ) = 0.11180E-03
  weight for this iteration     100.00

 eigenvalues of (default mixing * dielectric matrix)
  average eigenvalue GAMMA=   2.0053
  8.2092  4.9214  3.0023  2.4590  2.2894  1.4041  1.4041  1.3203  1.3203  0.9290
  0.9290  0.8451  0.8451  0.7527  0.7527  0.7006

 Free energy of the ion-electron system (eV)
  ---------------------------------------------------
  alpha Z        PSCENC =         0.07205883
  Ewald energy   TEWEN  =      1803.36600580
  -Hartree energ DENC   =     -3479.17149166
  -exchange      EXHF   =         0.00000000
  -V(xc)+E(xc)   XCENC  =       140.15018279
  PAW double counting   =      9635.89084137    -9656.41900474
  entropy T*S    EENTRO =        -0.00000000
  eigenvalues    EBANDS =      -511.81933422
  atomic energy  EATOM  =      2023.82507259
  Solvation  Ediel_sol  =         0.00000000
  ---------------------------------------------------
  free energy    TOTEN  =       -44.10566925 eV

  energy without entropy =      -44.10566925  energy(sigma->0) =      -44.10566925


--------------------------------------------------------------------------------------------------------




--------------------------------------- Iteration      1(  22)  ---------------------------------------


    POTLOK:  cpu time   13.0294: real time   13.0508
    SETDIJ:  cpu time    0.0486: real time    0.0486
     EDDAV:  cpu time   18.0892: real time   18.1294
       DOS:  cpu time    0.0009: real time    0.0009
    CHARGE:  cpu time    5.2122: real time    5.2204
    MIXING:  cpu time    0.4089: real time    0.4097
    --------------------------------------------
      LOOP:  cpu time   36.7891: real time   36.8598

 eigenvalue-minimisations  :   128
 total energy-change (2. order) :-0.2525410E-04  (-0.1593348E-07)
 number of electron      32.0000000 magnetization 
 augmentation part        5.3364758 magnetization 

 Broyden mixing:
  rms(total) = 0.56211E-04    rms(broyden)= 0.56211E-04
  rms(prec ) = 0.62119E-04
  weight for this iteration     100.00

 eigenvalues of (default mixing * dielectric matrix)
  average eigenvalue GAMMA=   2.0674
  8.6201  5.4105  3.3374  2.4883  2.2753  2.1906  1.5239  1.5239  1.0199  0.9708
  0.9708  0.9287  0.8403  0.8403  0.7616  0.7616  0.6824

 Free energy of the ion-electron system (eV)
  ---------------------------------------------------
  alpha Z        PSCENC =         0.07205883
  Ewald energy   TEWEN  =      1803.36600580
  -Hartree energ DENC   =     -3479.17149017
  -exchange      EXHF   =         0.00000000
  -V(xc)+E(xc)   XCENC  =       140.15016359
  PAW double counting   =      9635.92549689    -9656.45370552
  entropy T*S    EENTRO =        -0.00000000
  eigenvalues    EBANDS =      -511.81929651
  atomic energy  EATOM  =      2023.82507259
  Solvation  Ediel_sol  =         0.00000000
  ---------------------------------------------------
  free energy    TOTEN  =       -44.10569450 eV

  energy without entropy =      -44.10569450  energy(sigma->0) =      -44.10569450


--------------------------------------------------------------------------------------------------------




--------------------------------------- Iteration      1(  23)  ---------------------------------------


    POTLOK:  cpu time   13.0600: real time   13.0824
    SETDIJ:  cpu time    0.0486: real time    0.0486
     EDDAV:  cpu time   10.8986: real time   10.9231
       DOS:  cpu time    0.0047: real time    0.0047
    CHARGE:  cpu time    5.1443: real time    5.1520
    MIXING:  cpu time    0.4249: real time    0.4258
    --------------------------------------------
      LOOP:  cpu time   29.5811: real time   29.6365

 eigenvalue-minimisations  :    64
 total energy-change (2. order) :-0.2345901E-04  (-0.1327940E-07)
 number of electron      32.0000000 magnetization 
 augmentation part        5.3364742 magnetization 

 Broyden mixing:
  rms(total) = 0.28028E-04    rms(broyden)= 0.28028E-04
  rms(prec ) = 0.31106E-04
  weight for this iteration     100.00

 eigenvalues of (default mixing * dielectric matrix)
  average eigenvalue GAMMA=   2.0909
  9.0755  5.6807  3.6333  2.6715  2.4607  2.1588  1.4917  1.4917  1.1249  1.1249
  0.9410  0.9410  0.8988  0.8988  0.8322  0.7637  0.7637  0.6837

 Free energy of the ion-electron system (eV)
  ---------------------------------------------------
  alpha Z        PSCENC =         0.07205883
  Ewald energy   TEWEN  =      1803.36600580
  -Hartree energ DENC   =     -3479.17328542
  -exchange      EXHF   =         0.00000000
  -V(xc)+E(xc)   XCENC  =       140.15015647
  PAW double counting   =      9635.98942860    -9656.51763350
  entropy T*S    EENTRO =        -0.00000000
  eigenvalues    EBANDS =      -511.81752135
  atomic energy  EATOM  =      2023.82507259
  Solvation  Ediel_sol  =         0.00000000
  ---------------------------------------------------
  free energy    TOTEN  =       -44.10571796 eV

  energy without entropy =      -44.10571796  energy(sigma->0) =      -44.10571796


--------------------------------------------------------------------------------------------------------




--------------------------------------- Iteration      1(  24)  ---------------------------------------


    POTLOK:  cpu time   13.0618: real time   13.0838
    SETDIJ:  cpu time    0.0486: real time    0.0486
     EDDAV:  cpu time   18.1095: real time   18.1465
       DOS:  cpu time    0.0105: real time    0.0105
    CHARGE:  cpu time    5.2511: real time    5.2586
    MIXING:  cpu time    0.4398: real time    0.4407
    --------------------------------------------
      LOOP:  cpu time   36.9213: real time   36.9888

 eigenvalue-minimisations  :   128
 total energy-change (2. order) :-0.7512710E-05  (-0.5024340E-08)
 number of electron      32.0000000 magnetization 
 augmentation part        5.3364747 magnetization 

 Broyden mixing:
  rms(total) = 0.21142E-04    rms(broyden)= 0.21142E-04
  rms(prec ) = 0.22880E-04
  weight for this iteration     100.00

 eigenvalues of (default mixing * dielectric matrix)
  average eigenvalue GAMMA=   2.0996
  9.2961  5.9015  3.7367  2.7755  2.4081  2.1376  1.7713  1.4111  1.4111  1.4055
  0.9360  0.9360  0.9352  0.9352  0.9197  0.7827  0.7827  0.7300  0.6801

 Free energy of the ion-electron system (eV)
  ---------------------------------------------------
  alpha Z        PSCENC =         0.07205883
  Ewald energy   TEWEN  =      1803.36600580
  -Hartree energ DENC   =     -3479.17418675
  -exchange      EXHF   =         0.00000000
  -V(xc)+E(xc)   XCENC  =       140.15015993
  PAW double counting   =      9635.99033321    -9656.51853987
  entropy T*S    EENTRO =        -0.00000000
  eigenvalues    EBANDS =      -511.81662921
  atomic energy  EATOM  =      2023.82507259
  Solvation  Ediel_sol  =         0.00000000
  ---------------------------------------------------
  free energy    TOTEN  =       -44.10572547 eV

  energy without entropy =      -44.10572547  energy(sigma->0) =      -44.10572547


--------------------------------------------------------------------------------------------------------




--------------------------------------- Iteration      1(  25)  ---------------------------------------


    POTLOK:  cpu time   13.0764: real time   13.0984
    SETDIJ:  cpu time    0.0487: real time    0.0488
     EDDAV:  cpu time   10.9179: real time   10.9405
       DOS:  cpu time    0.0058: real time    0.0058
    CHARGE:  cpu time    5.1780: real time    5.1858
    MIXING:  cpu time    0.4618: real time    0.4627
    --------------------------------------------
      LOOP:  cpu time   29.6887: real time   29.7419

 eigenvalue-minimisations  :    64
 total energy-change (2. order) :-0.5009378E-05  (-0.4181203E-08)
 number of electron      32.0000000 magnetization 
 augmentation part        5.3364743 magnetization 

 Broyden mixing:
  rms(total) = 0.98061E-05    rms(broyden)= 0.98061E-05
  rms(prec ) = 0.11157E-04
  weight for this iteration     100.00

 eigenvalues of (default mixing * dielectric matrix)
  average eigenvalue GAMMA=   2.1888
  9.5518  6.4778  4.5081  3.1565  2.5633  2.4351  2.1689  1.4454  1.4454  1.1944
  1.1944  0.9250  0.9250  0.9689  0.9109  0.9109  0.7919  0.7919  0.7285  0.6827

 Free energy of the ion-electron system (eV)
  ---------------------------------------------------
  alpha Z        PSCENC =         0.07205883
  Ewald energy   TEWEN  =      1803.36600580
  -Hartree energ DENC   =     -3479.17447310
  -exchange      EXHF   =         0.00000000
  -V(xc)+E(xc)   XCENC  =       140.15016067
  PAW double counting   =      9635.97331900    -9656.50152343
  entropy T*S    EENTRO =        -0.00000000
  eigenvalues    EBANDS =      -511.81635085
  atomic energy  EATOM  =      2023.82507259
  Solvation  Ediel_sol  =         0.00000000
  ---------------------------------------------------
  free energy    TOTEN  =       -44.10573048 eV

  energy without entropy =      -44.10573048  energy(sigma->0) =      -44.10573048


--------------------------------------------------------------------------------------------------------




--------------------------------------- Iteration      1(  26)  ---------------------------------------


    POTLOK:  cpu time   12.9928: real time   13.0143
    SETDIJ:  cpu time    0.0486: real time    0.0486
     EDDAV:  cpu time   14.5158: real time   14.5457
       DOS:  cpu time    0.0040: real time    0.0040
    CHARGE:  cpu time    5.2014: real time    5.2088
    MIXING:  cpu time    0.5398: real time    0.5409
    --------------------------------------------
      LOOP:  cpu time   33.3023: real time   33.3622

 eigenvalue-minimisations  :    96
 total energy-change (2. order) :-0.3379290E-05  (-0.4114597E-08)
 number of electron      32.0000000 magnetization 
 augmentation part        5.3364747 magnetization 

 Broyden mixing:
  rms(total) = 0.55850E-05    rms(broyden)= 0.55850E-05
  rms(prec ) = 0.60994E-05
  weight for this iteration     100.00

 eigenvalues of (default mixing * dielectric matrix)
  average eigenvalue GAMMA=   2.1505
  9.5469  6.6074  4.6932  3.1336  2.5284  2.4191  2.1060  1.5200  1.5200  1.2910
  1.2910  0.8941  0.8941  0.9867  0.9147  0.9147  0.8927  0.7959  0.7959  0.7313
  0.6842

 Free energy of the ion-electron system (eV)
  ---------------------------------------------------
  alpha Z        PSCENC =         0.07205883
  Ewald energy   TEWEN  =      1803.36600580
  -Hartree energ DENC   =     -3479.17460230
  -exchange      EXHF   =         0.00000000
  -V(xc)+E(xc)   XCENC  =       140.15015883
  PAW double counting   =      9635.98029598    -9656.50849134
  entropy T*S    EENTRO =        -0.00000000
  eigenvalues    EBANDS =      -511.81623227
  atomic energy  EATOM  =      2023.82507259
  Solvation  Ediel_sol  =         0.00000000
  ---------------------------------------------------
  free energy    TOTEN  =       -44.10573386 eV

  energy without entropy =      -44.10573386  energy(sigma->0) =      -44.10573386


--------------------------------------------------------------------------------------------------------




--------------------------------------- Iteration      1(  27)  ---------------------------------------


    POTLOK:  cpu time   13.0794: real time   13.1037
    SETDIJ:  cpu time    0.0486: real time    0.0486
     EDDAV:  cpu time   18.0655: real time   18.1026
       DOS:  cpu time    0.0048: real time    0.0048
    CHARGE:  cpu time    5.1516: real time    5.1588
    MIXING:  cpu time    0.5007: real time    0.5016
    --------------------------------------------
      LOOP:  cpu time   36.8505: real time   36.9202

 eigenvalue-minimisations  :   128
 total energy-change (2. order) :-0.6262303E-06  (-0.3202889E-08)
 number of electron      32.0000000 magnetization 
 augmentation part        5.3364748 magnetization 

 Broyden mixing:
  rms(total) = 0.29007E-05    rms(broyden)= 0.29007E-05
  rms(prec ) = 0.34486E-05
  weight for this iteration     100.00

 eigenvalues of (default mixing * dielectric matrix)
  average eigenvalue GAMMA=   2.1717
  9.6495  6.8171  4.8671  3.3133  2.5384  2.3732  2.2080  2.2080  1.5242  1.3322
  1.3322  1.0381  0.9309  0.9309  0.9408  0.9408  0.9181  0.9181  0.7912  0.7912
  0.7296  0.6838

 Free energy of the ion-electron system (eV)
  ---------------------------------------------------
  alpha Z        PSCENC =         0.07205883
  Ewald energy   TEWEN  =      1803.36600580
  -Hartree energ DENC   =     -3479.17459465
  -exchange      EXHF   =         0.00000000
  -V(xc)+E(xc)   XCENC  =       140.15015839
  PAW double counting   =      9635.98240708    -9656.51060306
  entropy T*S    EENTRO =        -0.00000000
  eigenvalues    EBANDS =      -511.81623948
  atomic energy  EATOM  =      2023.82507259
  Solvation  Ediel_sol  =         0.00000000
  ---------------------------------------------------
  free energy    TOTEN  =       -44.10573449 eV

  energy without entropy =      -44.10573449  energy(sigma->0) =      -44.10573449


--------------------------------------------------------------------------------------------------------




--------------------------------------- Iteration      1(  28)  ---------------------------------------


    POTLOK:  cpu time   12.9899: real time   13.0126
    SETDIJ:  cpu time    0.0486: real time    0.0487
     EDDAV:  cpu time   14.4657: real time   14.4957
       DOS:  cpu time    0.0072: real time    0.0072
    CHARGE:  cpu time    5.2231: real time    5.2319
    MIXING:  cpu time    0.5247: real time    0.5258
    --------------------------------------------
      LOOP:  cpu time   33.2592: real time   33.3218

 eigenvalue-minimisations  :    96
 total energy-change (2. order) :-0.8039192E-06  (-0.3096350E-08)
 number of electron      32.0000000 magnetization 
 augmentation part        5.3364747 magnetization 

 Broyden mixing:
  rms(total) = 0.18660E-05    rms(broyden)= 0.18660E-05
  rms(prec ) = 0.21431E-05
  weight for this iteration     100.00

 eigenvalues of (default mixing * dielectric matrix)
  average eigenvalue GAMMA=   2.2245
  9.7102  7.1260  5.1662  3.8526  3.0402  2.4809  2.3515  2.0238  1.5808  1.5808
  1.3197  1.3197  0.9435  0.9435  1.0273  0.9387  0.9387  0.9080  0.9080  0.7950
  0.7950  0.7303  0.6837

 Free energy of the ion-electron system (eV)
  ---------------------------------------------------
  alpha Z        PSCENC =         0.07205883
  Ewald energy   TEWEN  =      1803.36600580
  -Hartree energ DENC   =     -3479.17455462
  -exchange      EXHF   =         0.00000000
  -V(xc)+E(xc)   XCENC  =       140.15015705
  PAW double counting   =      9635.98152276    -9656.50972055
  entropy T*S    EENTRO =        -0.00000000
  eigenvalues    EBANDS =      -511.81627716
  atomic energy  EATOM  =      2023.82507259
  Solvation  Ediel_sol  =         0.00000000
  ---------------------------------------------------
  free energy    TOTEN  =       -44.10573529 eV

  energy without entropy =      -44.10573529  energy(sigma->0) =      -44.10573529


--------------------------------------------------------------------------------------------------------




--------------------------------------- Iteration      1(  29)  ---------------------------------------


    POTLOK:  cpu time   13.1215: real time   13.1432
    SETDIJ:  cpu time    0.0486: real time    0.0486
     EDDAV:  cpu time   18.0657: real time   18.1038
       DOS:  cpu time    0.0067: real time    0.0067
    CHARGE:  cpu time    5.1316: real time    5.1388
    MIXING:  cpu time    0.5854: real time    0.5866
    --------------------------------------------
      LOOP:  cpu time   36.9594: real time   37.0277

 eigenvalue-minimisations  :   128
 total energy-change (2. order) :-0.4143722E-06  (-0.3027385E-08)
 number of electron      32.0000000 magnetization 
 augmentation part        5.3364748 magnetization 

 Broyden mixing:
  rms(total) = 0.10626E-05    rms(broyden)= 0.10626E-05
  rms(prec ) = 0.11822E-05
  weight for this iteration     100.00

 eigenvalues of (default mixing * dielectric matrix)
  average eigenvalue GAMMA=   2.2210
  9.7862  7.2260  5.5021  4.0925  3.0433  2.4863  2.3512  1.9802  1.9802  1.5348
  1.3486  1.3486  1.0489  0.9903  0.9903  0.9428  0.9428  0.9077  0.9077  0.8909
  0.7939  0.7939  0.7301  0.6836

 Free energy of the ion-electron system (eV)
  ---------------------------------------------------
  alpha Z        PSCENC =         0.07205883
  Ewald energy   TEWEN  =      1803.36600580
  -Hartree energ DENC   =     -3479.17447534
  -exchange      EXHF   =         0.00000000
  -V(xc)+E(xc)   XCENC  =       140.15015466
  PAW double counting   =      9635.97941803    -9656.50761584
  entropy T*S    EENTRO =        -0.00000000
  eigenvalues    EBANDS =      -511.81635444
  atomic energy  EATOM  =      2023.82507259
  Solvation  Ediel_sol  =         0.00000000
  ---------------------------------------------------
  free energy    TOTEN  =       -44.10573571 eV

  energy without entropy =      -44.10573571  energy(sigma->0) =      -44.10573571


--------------------------------------------------------------------------------------------------------




--------------------------------------- Iteration      1(  30)  ---------------------------------------


    POTLOK:  cpu time   13.0646: real time   13.0859
    SETDIJ:  cpu time    0.0486: real time    0.0486
     EDDAV:  cpu time   18.0990: real time   18.1371
       DOS:  cpu time    0.0047: real time    0.0047
    --------------------------------------------
      LOOP:  cpu time   31.2169: real time   31.2763

 eigenvalue-minimisations  :   128
 total energy-change (2. order) :-0.9631822E-07  (-0.2905519E-08)
 number of electron      32.0000000 magnetization 
 augmentation part        5.3364748 magnetization 

 Free energy of the ion-electron system (eV)
  ---------------------------------------------------
  alpha Z        PSCENC =         0.07205883
  Ewald energy   TEWEN  =      1803.36600580
  -Hartree energ DENC   =     -3479.17446898
  -exchange      EXHF   =         0.00000000
  -V(xc)+E(xc)   XCENC  =       140.15015454
  PAW double counting   =      9635.97991519    -9656.50811320
  entropy T*S    EENTRO =        -0.00000000
  eigenvalues    EBANDS =      -511.81636058
  atomic energy  EATOM  =      2023.82507259
  Solvation  Ediel_sol  =         0.00000000
  ---------------------------------------------------
  free energy    TOTEN  =       -44.10573580 eV

  energy without entropy =      -44.10573580  energy(sigma->0) =      -44.10573580


--------------------------------------------------------------------------------------------------------




 average (electrostatic) potential at core
  the test charge radii are     0.8471  0.8742
  (the norm of the test charge is              1.0000)
       1 -89.1027       2 -88.9027       3 -93.0204       4 -92.9949       5 -92.8071
       6 -92.8073
 
 
 
 E-fermi :  -8.9631     XC(G=0):  -0.0423     alpha+bet : -0.0126


 k-point     1 :       0.0000    0.0000    0.0000
  band No.  band energies     occupation 
      1     -29.6068      2.00000
      2     -29.4076      2.00000
      3     -28.5474      2.00000
      4     -28.3483      2.00000
      5     -13.8356      2.00000
      6     -13.6265      2.00000
      7     -12.8949      2.00000
      8     -12.8924      2.00000
      9     -12.7049      2.00000
     10     -12.7001      2.00000
     11     -12.4876      2.00000
     12     -12.2999      2.00000
     13      -9.2394      2.00000
     14      -9.2389      2.00000
     15      -9.0437      2.00000
     16      -9.0343      2.00000
     17      -1.2579      0.00000
     18      -0.8088      0.00000
     19      -0.8024      0.00000
     20      -0.7321      0.00000
     21      -0.6081      0.00000
     22      -0.5910      0.00000
     23       0.0064      0.00000
     24       0.1062      0.00000
     25       0.1128      0.00000
     26       0.1223      0.00000
     27       0.1233      0.00000
     28       0.1294      0.00000
     29       0.1473      0.00000
     30       0.1993      0.00000
     31       0.2111      0.00000
     32       0.2432      0.00000


--------------------------------------------------------------------------------------------------------


 soft charge-density along one line, spin component            1
         0         1         2         3         4         5         6         7         8         9
 total charge-density along one line
 
 pseudopotential strength for first ion, spin component:            1
 20.414  24.030  -0.000   0.000   0.000  -0.000   0.000   0.000
 24.030  28.289  -0.000   0.000   0.000  -0.000   0.000   0.000
 -0.000  -0.000  -3.793   0.000   0.000  -4.743   0.000   0.000
  0.000   0.000   0.000  -3.457  -0.000   0.000  -4.288  -0.000
  0.000   0.000   0.000  -0.000  -3.457   0.000  -0.000  -4.288
 -0.000  -0.000  -4.743   0.000   0.000  -5.862   0.000   0.000
  0.000   0.000   0.000  -4.288  -0.000   0.000  -5.249  -0.000
  0.000   0.000   0.000  -0.000  -4.288   0.000  -0.000  -5.249
 total augmentation occupancy for first ion, spin component:            1
 27.152 -19.361   0.004  -0.000   0.000   0.000   0.000   0.000
-19.361  14.423  -0.002   0.000  -0.000  -0.002  -0.000  -0.000
  0.004  -0.002  27.320  -0.000  -0.000 -16.550   0.000   0.000
 -0.000   0.000  -0.000   5.720   0.000   0.000  -2.573  -0.000
  0.000  -0.000  -0.000   0.000   5.721  -0.000  -0.000  -2.574
  0.000  -0.002 -16.550   0.000  -0.000  10.178  -0.000  -0.000
  0.000  -0.000   0.000  -2.573  -0.000  -0.000   1.158   0.000
  0.000  -0.000   0.000  -0.000  -2.574  -0.000   0.000   1.158


------------------------ aborting loop because EDIFF is reached ----------------------------------------



 DIPCOR: dipole corrections for dipol
 direction  1 min pos   352, direction  2 min pos   393, direction  3 min pos   372,
 dipolmoment          -0.000006      0.023047     -0.000042 electrons x Angstroem
 Tr[quadrupol]        17.265109

 energy correction for charged system         0.000000 eV
 dipol+quadrupol energy correction            0.000000 eV
 added-field ion interaction          0.000000 eV  (added to PSCEN)

 
  *************** adding dipol energy to TOTEN NOW **************** 
    CHARGE:  cpu time    5.2125: real time    5.2201
    FORLOC:  cpu time    0.4829: real time    0.4837
    FORNL :  cpu time    0.5153: real time    0.5162
    STRESS:  cpu time   11.3031: real time   11.3246
    FORHAR:  cpu time    3.2488: real time    3.2549
    MIXING:  cpu time    0.5700: real time    0.5711
    OFIELD:  cpu time    0.0000: real time    0.0000

  Hirshfeld charges:
            ion         q(e)     
   ------------------------------
      1     C           0.301
      2     C           0.296
      3     O          -0.149
      4     O          -0.146
      5     O          -0.151
      6     O          -0.151

  Hirshfeld-I charges:
            ion         q(e)        dq(e)    
   ------------------------------------------
      1     C           0.861     -0.457E-04
      2     C           0.861     -0.384E-04
      3     O          -0.437      0.234E-04
      4     O          -0.426      0.227E-04
      5     O          -0.430      0.190E-04
      6     O          -0.430      0.190E-04

   Hirshfeld-I converged in  15 cycles. Convergence criterion |dq|< 0.500E-04 e

  Atomic reference data used in the T-S method for vdW correction:
            C6at              R0at           ALPHAat      REFSTATE
            (au)              (au)            (au)                
   ---------------------------------------------------------------
   C          46.600          3.590         12.000         0
   O          15.600          3.194          5.400         0

  Tkatchenko/Scheffler method for vdW energy calculation
  ---------------------------------------------------------------------------------------------

  Parameters of vdW forcefield:
            C6ts              R0ts           ALPHAts        RELVOL
            (au)              (au)            (au)                
   ---------------------------------------------------------------
   C           8.814          2.720          5.219          0.43491187
   C           8.857          2.722          5.231          0.43595046
   O          19.395          3.312          6.021          1.11501242
   O          18.571          3.288          5.892          1.09106022
   O          18.844          3.296          5.935          1.09906977
   O          18.843          3.296          5.935          1.09902272

  vdW correction parametrized for the method pbe       

  IVDW =  21
  VDW_RADIUS =    50.000 A
  VDW_IDAMPF =  0
  VDW_S6 =     1.000
  VDW_SR =     0.950
  VDW_D =    20.000
  LVDW_ONECELL = F F F
  LVDW_SAMETYPE T T
  LVDW_EWALD = F

  Number of pair interactions contributing to vdW energy:     321
  Edisp (eV):   -0.01173
    FORVDW:  cpu time   96.2270: real time   96.2804

  FORCE on cell =-STRESS in cart. coord.  units (eV):
  Direction    XX          YY          ZZ          XY          YZ          ZX
  --------------------------------------------------------------------------------------
  Alpha Z     0.07206     0.07206     0.07206
  Ewald    -201.47692  1355.65998   649.18375    -0.16517    -4.59898   -11.04940
  Hartree   653.92364  1743.74942  1081.50136    -0.19186    -1.49352    -5.53975
  E(xc)    -148.93131  -146.76276  -146.76327     0.00021    -0.01642    -0.02823
  Local   -1144.61886 -3713.81856 -2345.09396     0.36480     5.50188    15.57674
  n-local   117.63230   105.62692   105.62929    -0.00119     0.09090     0.15627
  augment   182.06719   173.09493   173.10567    -0.00089     0.06817     0.11668
  Kinetic   541.32969   490.48484   490.58654    -0.00506     0.38595     0.66063
  Fock        0.00000     0.00000     0.00000     0.00000     0.00000     0.00000
  vdW        -0.00000    -0.05680    -0.00187     0.00002    -0.00018     0.00002
  -------------------------------------------------------------------------------------
  Total      -0.00221     8.05002     8.21957     0.00087    -0.06220    -0.10703
  in kB      -0.00008     0.30082     0.30715     0.00003    -0.00232    -0.00400
  external pressure =        0.20 kB  Pullay stress =        0.00 kB


 VOLUME and BASIS-vectors are now :
 -----------------------------------------------------------------------------
  energy-cutoff  :     1000.00
  volume of cell :    42875.00
      direct lattice vectors                 reciprocal lattice vectors
    35.000000000  0.000000000  0.000000000     0.028571429  0.000000000  0.000000000
     0.000000000 35.000000000  0.000000000     0.000000000  0.028571429  0.000000000
     0.000000000  0.000000000 35.000000000     0.000000000  0.000000000  0.028571429

  length of vectors
    35.000000000 35.000000000 35.000000000     0.028571429  0.028571429  0.028571429


 FORCES acting on ions
    electron-ion (+dipol)            ewald-force                    non-local-force                 convergence-correction
 -----------------------------------------------------------------------------------------------
   -.114E-01 0.359E+02 0.820E-01   0.114E-01 -.360E+02 -.822E-01   0.141E-04 0.965E-01 0.294E-03   -.103E-07 0.237E-05 -.285E-07
   0.154E-01 -.440E+02 -.770E-01   -.154E-01 0.440E+02 0.777E-01   0.105E-04 -.680E-02 -.314E-03   0.117E-07 -.504E-07 -.108E-05
   -.377E-01 -.170E+03 0.286E+00   0.378E-01 0.256E+03 -.283E+00   -.127E-03 -.825E+02 -.320E-02   -.183E-07 0.223E-05 -.704E-07
   -.907E-02 0.296E+03 0.632E-01   0.906E-02 -.382E+03 -.629E-01   0.632E-05 0.831E+02 -.269E-03   -.168E-07 0.584E-05 -.420E-07
   0.362E+01 -.573E+02 -.277E+03   -.474E+01 0.565E+02 0.363E+03   0.108E+01 0.825E+00 -.829E+02   0.220E-08 -.443E-06 -.210E-05
   -.358E+01 -.610E+02 0.276E+03   0.470E+01 0.614E+02 -.363E+03   -.108E+01 -.431E+00 0.829E+02   0.133E-07 -.486E-06 0.167E-06
 -----------------------------------------------------------------------------------------------
   0.374E-03 -.104E+01 0.995E-03   0.888E-15 -.711E-14 0.568E-13   -.321E-03 0.104E+01 -.871E-03   -.182E-07 0.946E-05 -.315E-05
 
 
 POSITION                                       TOTAL-FORCE (eV/Angst)
 -----------------------------------------------------------------------------------
      0.00000      0.05699      0.00000        -0.000013     -0.054962      0.000063
     34.99851      4.92718      0.00754         0.000016     -0.055771      0.000341
      0.00000      1.22721      0.00000        -0.000021      3.566209     -0.000163
      0.00000     33.88677      0.00000        -0.000007     -3.473293     -0.000000
     34.98327      4.91833      1.17763        -0.045772     -0.017497      3.513926
      0.01374      4.93603     33.83746         0.045797      0.035314     -3.514166
 -----------------------------------------------------------------------------------
    total drift:                                0.000053      0.000093      0.000121


--------------------------------------------------------------------------------------------------------



  FREE ENERGIE OF THE ION-ELECTRON SYSTEM (eV)
  ---------------------------------------------------
  free  energy   TOTEN  =       -44.11746812 eV

  energy  without entropy=      -44.11746812  energy(sigma->0) =      -44.11746812
 


--------------------------------------------------------------------------------------------------------


    POTLOK:  cpu time   14.6197: real time   14.6422


--------------------------------------------------------------------------------------------------------


 writing wavefunctions
     LOOP+:  cpu time 1452.3573: real time 1454.7091
    4ORBIT:  cpu time    0.0000: real time    0.0000

 total amount of memory used by VASP MPI-rank0  4007897. kBytes
=======================================================================

   base      :      30000. kBytes
   nonl-proj :     344787. kBytes
   fftplans  :     676185. kBytes
   grid      :    2932288. kBytes
   one-center:          9. kBytes
   wavefun   :      24628. kBytes
 
  
  
 General timing and accounting informations for this job:
 ========================================================
  
                  Total CPU time used (sec):     2900.229
                            User time (sec):     2767.488
                          System time (sec):      132.741
                         Elapsed time (sec):     2909.324
  
                   Maximum memory used (kb):     5432736.
                   Average memory used (kb):           0.
  
                          Minor page faults:     78819665
                          Major page faults:          900
                 Voluntary context switches:        15067
