 vasp.6.1.2 22Jul20 (build Jan  6 2021 09:55:43) gamma-only                      
 executed on             LinuxPGI date 2023.10.20  03:01:31
 running on   32 total cores
 distrk:  each k-point on   32 cores,    1 groups
 distr:  one band on NCORE=   1 cores,   32 groups


--------------------------------------------------------------------------------------------------------


 INCAR:
 POTCAR:    PAW_PBE C_s 06Sep2000                 
 POTCAR:    PAW_PBE O_s 07Sep2000                 
 -----------------------------------------------------------------------------
|                                                                             |
|           W    W    AA    RRRRR   N    N  II  N    N   GGGG   !!!           |
|           W    W   A  A   R    R  NN   N  II  NN   N  G    G  !!!           |
|           W    W  A    A  R    R  N N  N  II  N N  N  G       !!!           |
|           W WW W  AAAAAA  RRRRR   N  N N  II  N  N N  G  GGG   !            |
|           WW  WW  A    A  R   R   N   NN  II  N   NN  G    G                |
|           W    W  A    A  R    R  N    N  II  N    N   GGGG   !!!           |
|                                                                             |
|     For optimal performance we recommend to set                             |
|       NCORE = 4 - approx SQRT(number of cores).                             |
|     NCORE specifies how many cores store one orbital (NPAR=cpu/NCORE).      |
|     This setting can greatly improve the performance of VASP for DFT.       |
|     The default, NCORE=1 might be grossly inefficient on modern             |
|     multi-core architectures or massively parallel machines. Do your        |
|     own testing!!!!                                                         |
|     Unfortunately you need to use the default for GW and RPA                |
|     calculations (for HF NCORE is supported but not extensively tested      |
|     yet).                                                                   |
|                                                                             |
 -----------------------------------------------------------------------------

 POTCAR:    PAW_PBE C_s 06Sep2000                 
   VRHFIN =C: s2p2                                                                                  
   LEXCH  = PE                                                                                      
   EATOM  =   147.1560 eV,   10.8157 Ry                                                             
                                                                                                    
   TITEL  = PAW_PBE C_s 06Sep2000                                                                   
   LULTRA =        F    use ultrasoft PP ?                                                          
   IUNSCR =        0    unscreen: 0-lin 1-nonlin 2-no                                               
   RPACOR =    0.000    partial core radius                                                         
   POMASS =   12.011; ZVAL   =    4.000    mass and valenz                                          
   RCORE  =    1.850    outmost cutoff radius                                                       
   RWIGS  =    1.890; RWIGS  =    1.000    wigner-seitz radius (au A)                               
   ENMAX  =  273.911; ENMIN  =  205.433 eV                                                          
   RCLOC  =    0.804    cutoff for local pot                                                        
   LCOR   =        T    correct aug charges                                                         
   LPAW   =        T    paw PP                                                                      
   EAUG   =  439.243                                                                                
   DEXC   =    0.000                                                                                
   RMAX   =    1.897    core radius for proj-oper                                                   
   RAUG   =    1.300    factor for augmentation sphere                                              
   RDEP   =    1.940    radius for radial grids                                                     
   RDEPT  =    1.573    core radius for aug-charge                                                  
                                                                                                    
   Atomic configuration                                                                             
    4 entries                                                                                       
     n  l   j            E        occ.                                                              
     1  0  0.50      -273.3789   2.0000                                                             
     2  0  0.50       -13.7508   2.0000                                                             
     2  1  0.50        -5.2854   2.0000                                                             
     3  2  1.50        -1.3606   0.0000                                                             
   Description                                                                                      
     l       E           TYP  RCUT    TYP  RCUT                                                     
     0    -13.7508457     23  1.500                                                                 
     0    -11.0934578     23  1.500                                                                 
     1     -5.2854381     23  1.850                                                                 
     1     -1.3099858     23  1.850                                                                 
  local pseudopotential read in
  atomic valenz-charges read in
  non local Contribution for L=            0  read in
    real space projection operators read in
  non local Contribution for L=            0  read in
    real space projection operators read in
  non local Contribution for L=            1  read in
    real space projection operators read in
  non local Contribution for L=            1  read in
    real space projection operators read in
    PAW grid and wavefunctions read in
 
   number of l-projection  operators is LMAX  =            4
   number of lm-projection operators is LMMAX =            8
 
 POTCAR:    PAW_PBE O_s 07Sep2000                 
   VRHFIN =O: s2p4                                                                                  
   LEXCH  = PE                                                                                      
   EATOM  =   432.3788 eV,   31.7789 Ry                                                             
                                                                                                    
   TITEL  = PAW_PBE O_s 07Sep2000                                                                   
   LULTRA =        F    use ultrasoft PP ?                                                          
   IUNSCR =        0    unscreen: 0-lin 1-nonlin 2-no                                               
   RPACOR =    0.000    partial core radius                                                         
   POMASS =   16.000; ZVAL   =    6.000    mass and valenz                                          
   RCORE  =    1.850    outmost cutoff radius                                                       
   RWIGS  =    1.700; RWIGS  =    0.900    wigner-seitz radius (au A)                               
   ENMAX  =  282.853; ENMIN  =  212.140 eV                                                          
   RCLOC  =    0.804    cutoff for local pot                                                        
   LCOR   =        T    correct aug charges                                                         
   LPAW   =        T    paw PP                                                                      
   EAUG   =  412.352                                                                                
   RMAX   =    1.897    core radius for proj-oper                                                   
   RAUG   =    1.300    factor for augmentation sphere                                              
   RDEP   =    1.878    radius for radial grids                                                     
   RDEPT  =    1.572    core radius for aug-charge                                                  
                                                                                                    
   Atomic configuration                                                                             
    4 entries                                                                                       
     n  l   j            E        occ.                                                              
     1  0  0.50      -514.6923   2.0000                                                             
     2  0  0.50       -23.9615   2.0000                                                             
     2  1  0.50        -9.0305   4.0000                                                             
     3  2  1.50        -1.3606   0.0000                                                             
   Description                                                                                      
     l       E           TYP  RCUT    TYP  RCUT                                                     
     0    -23.9615315     23  1.500                                                                 
     0    -25.3221141     23  1.500                                                                 
     1     -9.0304908     23  1.850                                                                 
     1     -7.3935399     23  1.850                                                                 
  local pseudopotential read in
  atomic valenz-charges read in
  non local Contribution for L=            0  read in
    real space projection operators read in
  non local Contribution for L=            0  read in
    real space projection operators read in
  non local Contribution for L=            1  read in
    real space projection operators read in
  non local Contribution for L=            1  read in
    real space projection operators read in
    PAW grid and wavefunctions read in
 
   number of l-projection  operators is LMAX  =            4
   number of lm-projection operators is LMMAX =            8
 
  PAW_PBE C_s 06Sep2000                 :
 energy of atom  1       EATOM= -147.1560
 kinetic energy error for atom=    0.0002 (will be added to EATOM!!)
  PAW_PBE O_s 07Sep2000                 :
 energy of atom  2       EATOM= -432.3788
 kinetic energy error for atom=    0.0004 (will be added to EATOM!!)
 
 
 POSCAR:  C  O
  positions in cartesian coordinates
  No initial velocities read in
 exchange correlation table for  LEXCH =        8
   RHO(1)=    0.500       N(1)  =     2000
   RHO(2)=  100.500       N(2)  =     4000
 


--------------------------------------------------------------------------------------------------------


 ion  position               nearest neighbor table
   1  0.000  0.002  0.000-   3 1.17   4 1.17
   2  1.000  0.101  0.000-   5 1.17   6 1.17
   3  0.000  0.035  0.000-   1 1.17
   4  0.000  0.968  0.000-   1 1.17
   5  1.000  0.101  0.034-   2 1.17
   6  0.000  0.101  0.967-   2 1.17
 
  LATTYP: Found a simple cubic cell.
 ALAT       =    35.0000000000
  
  Lattice vectors:
  
 A1 = (  35.0000000000,   0.0000000000,   0.0000000000)
 A2 = (   0.0000000000,  35.0000000000,   0.0000000000)
 A3 = (   0.0000000000,   0.0000000000,  35.0000000000)


Analysis of symmetry for initial positions (statically):
=====================================================================
 Subroutine PRICEL returns:
 Original cell was already a primitive cell.
 

 Routine SETGRP: Setting up the symmetry group for a 
 simple cubic supercell.


 Subroutine GETGRP returns: Found  1 space group operations
 (whereof  1 operations were pure point group operations)
 out of a pool of 48 trial point group operations.


The static configuration has the point symmetry C_1 .


Analysis of symmetry for dynamics (positions and initial velocities):
=====================================================================
 Subroutine PRICEL returns:
 Original cell was already a primitive cell.
 

 Routine SETGRP: Setting up the symmetry group for a 
 simple cubic supercell.


 Subroutine GETGRP returns: Found  1 space group operations
 (whereof  1 operations were pure point group operations)
 out of a pool of 48 trial point group operations.


The dynamic configuration has the point symmetry C_1 .


 Subroutine INISYM returns: Found  1 space group operations
 (whereof  1 operations are pure point group operations),
 and found     1 'primitive' translations


----------------------------------------------------------------------------------------

                                     Primitive cell                                     

  volume of cell :   42875.0000

  direct lattice vectors                    reciprocal lattice vectors
    35.000000000  0.000000000  0.000000000     0.028571429  0.000000000  0.000000000
     0.000000000 35.000000000  0.000000000     0.000000000  0.028571429  0.000000000
     0.000000000  0.000000000 35.000000000     0.000000000  0.000000000  0.028571429

  length of vectors
    35.000000000 35.000000000 35.000000000     0.028571429  0.028571429  0.028571429

  position of ions in fractional coordinates (direct lattice)
     0.000000000  0.001628171  0.000000000
     0.999957287  0.100776469  0.000215536
     0.000000000  0.035063029  0.000000000
     0.000000000  0.968193314  0.000000000
     0.999522117  0.100523615  0.033646605
     0.000392457  0.101029324  0.966784468

  ion indices of the primitive-cell ions
   primitive index   ion index
                 1           1
                 2           2
                 3           3
                 4           4
                 5           5
                 6           6

----------------------------------------------------------------------------------------

 
 
 KPOINTS: g                                       

Automatic generation of k-mesh.
Space group operators:
 irot       det(A)        alpha          n_x          n_y          n_z        tau_x        tau_y        tau_z
    1     1.000000     0.000000     1.000000     0.000000     0.000000     0.000000     0.000000     0.000000
 
 Subroutine IBZKPT returns following result:
 ===========================================
 
 Found      1 irreducible k-points:
 
 Following reciprocal coordinates:
            Coordinates               Weight
  0.000000  0.000000  0.000000      1.000000
 
 Following cartesian coordinates:
            Coordinates               Weight
  0.000000  0.000000  0.000000      1.000000
 


--------------------------------------------------------------------------------------------------------




 Dimension of arrays:
   k-points           NKPTS =      1   k-points in BZ     NKDIM =      1   number of bands    NBANDS=     32
   number of dos      NEDOS =    301   number of ions     NIONS =      6
   non local maximal  LDIM  =      4   non local SUM 2l+1 LMDIM =      8
   total plane-waves  NPLWV = ******
   max r-space proj   IRMAX =      1   max aug-charges    IRDMAX=  29269
   dimension x,y,z NGX =   378 NGY =  378 NGZ =  378
   dimension x,y,z NGXF=   756 NGYF=  756 NGZF=  756
   support grid    NGXF=   756 NGYF=  756 NGZF=  756
   ions per type =               2   4
   NGX,Y,Z   is equivalent  to a cutoff of  17.95, 17.95, 17.95 a.u.
   NGXF,Y,Z  is equivalent  to a cutoff of  35.91, 35.91, 35.91 a.u.

 SYSTEM =  C                                       
 POSCAR =   C  O                                   

 Startparameter for this run:
   NWRITE =      2    write-flag & timer
   PREC   = acc       normal or accurate (medium, high low for compatibility)
   ISTART =      0    job   : 0-new  1-cont  2-samecut
   ICHARG =      2    charge: 1-file 2-atom 10-const
   ISPIN  =      1    spin polarized calculation?
   LNONCOLLINEAR =      F non collinear calculations
   LSORBIT =      F    spin-orbit coupling
   INIWAV =      1    electr: 0-lowe 1-rand  2-diag
   LASPH  =      T    aspherical Exc in radial PAW
   METAGGA=      F    non-selfconsistent MetaGGA calc.

 Electronic Relaxation 1
   ENCUT  = 1000.0 eV  73.50 Ry    8.57 a.u.  90.25 90.25 90.25*2*pi/ulx,y,z
   ENINI  = 1000.0     initial cutoff
   ENAUG  =  439.2 eV  augmentation charge cutoff
   NELM   =     60;   NELMIN=  2; NELMDL= -5     # of ELM steps 
   EDIFF  = 0.1E-06   stopping-criterion for ELM
   LREAL  =      F    real-space projection
   NLSPLINE    = F    spline interpolate recip. space projectors
   LCOMPAT=      F    compatible to vasp.4.4
   GGA_COMPAT  = T    GGA compatible to vasp.4.4-vasp.4.6
   LMAXPAW     = -100 max onsite density
   LMAXMIX     =    2 max onsite mixed and CHGCAR
   VOSKOWN=      0    Vosko Wilk Nusair interpolation
   ROPT   =    0.00000   0.00000
 Ionic relaxation
   EDIFFG = 0.1E-05   stopping-criterion for IOM
   NSW    =      0    number of steps for IOM
   NBLOCK =      1;   KBLOCK =      1    inner block; outer block 
   IBRION =     -1    ionic relax: 0-MD 1-quasi-New 2-CG
   NFREE  =      0    steps in history (QN), initial steepest desc. (CG)
   ISIF   =      2    stress and relaxation
   IWAVPR =     10    prediction:  0-non 1-charg 2-wave 3-comb
   ISYM   =      2    0-nonsym 1-usesym 2-fastsym
   LCORR  =      T    Harris-Foulkes like correction to forces

   POTIM  = 0.5000    time-step for ionic-motion
   TEIN   =    0.0    initial temperature
   TEBEG  =    0.0;   TEEND  =   0.0 temperature during run
   SMASS  =  -3.00    Nose mass-parameter (am)
   estimated Nose-frequenzy (Omega)   =  0.10E-29 period in steps = 0.13E+47 mass=  -0.280E-25a.u.
   SCALEE = 1.0000    scale energy and forces
   NPACO  =    256;   APACO  = 16.0  distance and # of slots for P.C.
   PSTRESS=    0.0 pullay stress

  Mass of Ions in am
   POMASS =  12.01 16.00
  Ionic Valenz
   ZVAL   =   4.00  6.00
  Atomic Wigner-Seitz radii
   RWIGS  =  -1.00 -1.00
  virtual crystal weights 
   VCA    =   1.00  1.00
   NELECT =      32.0000    total number of electrons
   NUPDOWN=      -1.0000    fix difference up-down

 DOS related values:
   EMIN   =  10.00;   EMAX   =-10.00  energy-range for DOS
   EFERMI =   0.00
   ISMEAR =     0;   SIGMA  =   0.01  broadening in eV -4-tet -1-fermi 0-gaus

 Electronic relaxation 2 (details)
   IALGO  =     38    algorithm
   LDIAG  =      T    sub-space diagonalisation (order eigenvalues)
   LSUBROT=      F    optimize rotation matrix (better conditioning)
   TURBO    =      0    0=normal 1=particle mesh
   IRESTART =      0    0=no restart 2=restart with 2 vectors
   NREBOOT  =      0    no. of reboots
   NMIN     =      0    reboot dimension
   EREF     =   0.00    reference energy to select bands
   IMIX   =      4    mixing-type and parameters
     AMIX     =   0.40;   BMIX     =  1.00
     AMIX_MAG =   1.60;   BMIX_MAG =  1.00
     AMIN     =   0.10
     WC   =   100.;   INIMIX=   1;  MIXPRE=   1;  MAXMIX= -45

 Intra band minimization:
   WEIMIN = 0.0000     energy-eigenvalue tresh-hold
   EBREAK =  0.78E-09  absolut break condition
   DEPER  =   0.30     relativ break condition  

   TIME   =   0.40     timestep for ELM

  volume/ion in A,a.u.               =    7145.83     48222.46
  Fermi-wavevector in a.u.,A,eV,Ry     =   0.148499  0.280622  0.300035  0.022052
  Thomas-Fermi vector in A             =   0.821704
 
 Write flags
   LWAVE        =      T    write WAVECAR
   LDOWNSAMPLE  =      F    k-point downsampling of WAVECAR
   LCHARG       =      T    write CHGCAR
   LVTOT        =      F    write LOCPOT, total local potential
   LVHAR        =      F    write LOCPOT, Hartree potential only
   LELF         =      F    write electronic localiz. function (ELF)
   LORBIT       =      0    0 simple, 1 ext, 2 COOP (PROOUT), +10 PAW based schemes


 Dipole corrections
   LMONO  =      F    monopole corrections only (constant potential shift)
   LDIPOL =      F    correct potential (dipole corrections)
   IDIPOL =      4    1-x, 2-y, 3-z, 4-all directions 
   EPSILON=  1.0000000 bulk dielectric constant

 Exchange correlation treatment:
   GGA     =    --    GGA type
   LEXCH   =     8    internal setting for exchange type
   VOSKOWN=      0    Vosko Wilk Nusair interpolation
   LHFCALC =     F    Hartree Fock is set to
   LHFONE  =     F    Hartree Fock one center treatment
   AEXX    =    0.0000 exact exchange contribution

 Linear response parameters
   LEPSILON=     F    determine dielectric tensor
   LRPA    =     F    only Hartree local field effects (RPA)
   LNABLA  =     F    use nabla operator in PAW spheres
   LVEL    =     F    velocity operator in full k-point grid
   LINTERFAST=   F  fast interpolation
   KINTER  =     0    interpolate to denser k-point grid
   CSHIFT  =0.1000    complex shift for real part using Kramers Kronig
   OMEGAMAX=  -1.0    maximum frequency
   DEG_THRESHOLD= 0.2000000E-02 threshold for treating states as degnerate
   RTIME   =   -0.100 relaxation time in fs
  (WPLASMAI=    0.000 imaginary part of plasma frequency in eV, 0.658/RTIME)
   DFIELD  = 0.0000000 0.0000000 0.0000000 field for delta impulse in time
 
 Orbital magnetization related:
   ORBITALMAG=     F  switch on orbital magnetization
   LCHIMAG   =     F  perturbation theory with respect to B field
   DQ        =  0.001000  dq finite difference perturbation B field
   LLRAUG    =     F  two centre corrections for induced B field



--------------------------------------------------------------------------------------------------------


 Static calculation
 charge density and potential will be updated during run
 non-spin polarized calculation
 Variant of blocked Davidson
 Davidson routine will perform the subspace rotation
 perform sub-space diagonalisation
    after iterative eigenvector-optimisation
 modified Broyden-mixing scheme, WC =      100.0
 initial mixing is a Kerker type mixing with AMIX =  0.4000 and BMIX =      1.0000
 Hartree-type preconditioning will be used
 using additional bands            16
 reciprocal scheme for non local part
 calculate Harris-corrections to forces 
   (improved forces if not selfconsistent)
 use gradient corrections 
 use of overlap-Matrix (Vanderbilt PP)
 Gauss-broadening in eV      SIGMA  =   0.01


--------------------------------------------------------------------------------------------------------


  energy-cutoff  :     1000.00
  volume of cell :    42875.00
      direct lattice vectors                 reciprocal lattice vectors
    35.000000000  0.000000000  0.000000000     0.028571429  0.000000000  0.000000000
     0.000000000 35.000000000  0.000000000     0.000000000  0.028571429  0.000000000
     0.000000000  0.000000000 35.000000000     0.000000000  0.000000000  0.028571429

  length of vectors
    35.000000000 35.000000000 35.000000000     0.028571429  0.028571429  0.028571429


 
 k-points in units of 2pi/SCALE and weight: g                                       
   0.00000000  0.00000000  0.00000000       1.000
 
 k-points in reciprocal lattice and weights: g                                       
   0.00000000  0.00000000  0.00000000       1.000
 
 position of ions in fractional coordinates (direct lattice) 
   0.00000000  0.00162817  0.00000000
   0.99995729  0.10077647  0.00021554
   0.00000000  0.03506303  0.00000000
   0.00000000  0.96819331  0.00000000
   0.99952212  0.10052361  0.03364661
   0.00039246  0.10102932  0.96678447
 
 position of ions in cartesian coordinates  (Angst):
   0.00000000  0.05698600  0.00000000
  34.99850504  3.52717643  0.00754377
   0.00000000  1.22720600  0.00000000
   0.00000000 33.88676600  0.00000000
  34.98327409  3.51832652  1.17763118
   0.01373599  3.53602633 33.83745636
 


--------------------------------------------------------------------------------------------------------


 use serial FFT for orbitals x direction half grid
 k-point   1 :   0.0000 0.0000 0.0000  plane waves: 1539209

 maximum and minimum number of plane-waves per node :   1539209  1539209

 maximum number of plane-waves:   1539209
 maximum index in each direction: 
   IXMAX=   90   IYMAX=   90   IZMAX=   90
   IXMIN=    0   IYMIN=  -90   IZMIN=  -90


 serial   3D FFT for wavefunctions
 parallel 3D FFT for charge:
    minimum data exchange during FFTs selected (reduces bandwidth)


 total amount of memory used by VASP MPI-rank0  4007897. kBytes
=======================================================================

   base      :      30000. kBytes
   nonl-proj :     344787. kBytes
   fftplans  :     676185. kBytes
   grid      :    2932288. kBytes
   one-center:          9. kBytes
   wavefun   :      24628. kBytes
 
     INWAV:  cpu time    0.0000: real time    0.0000
 Broyden mixing: mesh for mixing (old mesh)
   NGX =181   NGY =181   NGZ =181
  (NGX  =756   NGY  =756   NGZ  =756)
  gives a total of ****** points

 initial charge density was supplied:
 charge density of overlapping atoms calculated
 number of electron      32.0000000 magnetization 
 keeping initial charge density in first step


--------------------------------------------------------------------------------------------------------


 Maximum index for augmentation-charges          1124 (set IRDMAX)


--------------------------------------------------------------------------------------------------------


 First call to EWALD:  gamma=   0.051
 Maximum number of real-space cells 3x 3x 3
 Maximum number of reciprocal cells 3x 3x 3

    FEWALD:  cpu time    0.0008: real time    0.0008


--------------------------------------- Iteration      1(   1)  ---------------------------------------


    POTLOK:  cpu time   12.8883: real time   12.9107
    SETDIJ:  cpu time    0.0408: real time    0.0413
     EDDAV:  cpu time   18.9990: real time   19.0448
       DOS:  cpu time    0.0144: real time    0.0144
    --------------------------------------------
      LOOP:  cpu time   31.9425: real time   32.0112

 eigenvalue-minimisations  :   128
 total energy-change (2. order) : 0.2387988E+03  (-0.6880394E+03)
 number of electron      32.0000000 magnetization 
 augmentation part       32.0000000 magnetization 

 Free energy of the ion-electron system (eV)
  ---------------------------------------------------
  alpha Z        PSCENC =         0.07205883
  Ewald energy   TEWEN  =      2127.83943268
  -Hartree energ DENC   =     -3727.94390742
  -exchange      EXHF   =         0.00000000
  -V(xc)+E(xc)   XCENC  =       136.27286368
  PAW double counting   =      1593.34061361    -1611.57548628
  entropy T*S    EENTRO =        -0.00019398
  eigenvalues    EBANDS =      -303.03161793
  atomic energy  EATOM  =      2023.82507259
  Solvation  Ediel_sol  =         0.00000000
  ---------------------------------------------------
  free energy    TOTEN  =       238.79883578 eV

  energy without entropy =      238.79902976  energy(sigma->0) =      238.79893277


--------------------------------------------------------------------------------------------------------




--------------------------------------- Iteration      1(   2)  ---------------------------------------


     EDDAV:  cpu time   18.9418: real time   18.9815
       DOS:  cpu time    0.0106: real time    0.0106
    --------------------------------------------
      LOOP:  cpu time   18.9524: real time   18.9921

 eigenvalue-minimisations  :   128
 total energy-change (2. order) :-0.2570013E+03  (-0.2569705E+03)
 number of electron      32.0000000 magnetization 
 augmentation part       32.0000000 magnetization 

 Free energy of the ion-electron system (eV)
  ---------------------------------------------------
  alpha Z        PSCENC =         0.07205883
  Ewald energy   TEWEN  =      2127.83943268
  -Hartree energ DENC   =     -3727.94390742
  -exchange      EXHF   =         0.00000000
  -V(xc)+E(xc)   XCENC  =       136.27286368
  PAW double counting   =      1593.34061361    -1611.57548628
  entropy T*S    EENTRO =        -0.00000000
  eigenvalues    EBANDS =      -560.03313183
  atomic energy  EATOM  =      2023.82507259
  Solvation  Ediel_sol  =         0.00000000
  ---------------------------------------------------
  free energy    TOTEN  =       -18.20248414 eV

  energy without entropy =      -18.20248414  energy(sigma->0) =      -18.20248414


--------------------------------------------------------------------------------------------------------




--------------------------------------- Iteration      1(   3)  ---------------------------------------


     EDDAV:  cpu time   11.5408: real time   11.5638
       DOS:  cpu time    0.0089: real time    0.0089
    --------------------------------------------
      LOOP:  cpu time   11.5497: real time   11.5727

 eigenvalue-minimisations  :    64
 total energy-change (2. order) :-0.2898327E+02  (-0.2898327E+02)
 number of electron      32.0000000 magnetization 
 augmentation part       32.0000000 magnetization 

 Free energy of the ion-electron system (eV)
  ---------------------------------------------------
  alpha Z        PSCENC =         0.07205883
  Ewald energy   TEWEN  =      2127.83943268
  -Hartree energ DENC   =     -3727.94390742
  -exchange      EXHF   =         0.00000000
  -V(xc)+E(xc)   XCENC  =       136.27286368
  PAW double counting   =      1593.34061361    -1611.57548628
  entropy T*S    EENTRO =        -0.00000000
  eigenvalues    EBANDS =      -589.01640072
  atomic energy  EATOM  =      2023.82507259
  Solvation  Ediel_sol  =         0.00000000
  ---------------------------------------------------
  free energy    TOTEN  =       -47.18575302 eV

  energy without entropy =      -47.18575302  energy(sigma->0) =      -47.18575302


--------------------------------------------------------------------------------------------------------




--------------------------------------- Iteration      1(   4)  ---------------------------------------


     EDDAV:  cpu time   19.0172: real time   19.0554
       DOS:  cpu time    0.0114: real time    0.0114
    --------------------------------------------
      LOOP:  cpu time   19.0287: real time   19.0668

 eigenvalue-minimisations  :   128
 total energy-change (2. order) :-0.3701663E+00  (-0.3701663E+00)
 number of electron      32.0000000 magnetization 
 augmentation part       32.0000000 magnetization 

 Free energy of the ion-electron system (eV)
  ---------------------------------------------------
  alpha Z        PSCENC =         0.07205883
  Ewald energy   TEWEN  =      2127.83943268
  -Hartree energ DENC   =     -3727.94390742
  -exchange      EXHF   =         0.00000000
  -V(xc)+E(xc)   XCENC  =       136.27286368
  PAW double counting   =      1593.34061361    -1611.57548628
  entropy T*S    EENTRO =        -0.00000000
  eigenvalues    EBANDS =      -589.38656701
  atomic energy  EATOM  =      2023.82507259
  Solvation  Ediel_sol  =         0.00000000
  ---------------------------------------------------
  free energy    TOTEN  =       -47.55591932 eV

  energy without entropy =      -47.55591932  energy(sigma->0) =      -47.55591932


--------------------------------------------------------------------------------------------------------




--------------------------------------- Iteration      1(   5)  ---------------------------------------


     EDDAV:  cpu time   19.0037: real time   19.0448
       DOS:  cpu time    0.0038: real time    0.0038
    CHARGE:  cpu time    5.4393: real time    5.4479
    MIXING:  cpu time    0.2400: real time    0.2404
    --------------------------------------------
      LOOP:  cpu time   24.6868: real time   24.7369

 eigenvalue-minimisations  :   128
 total energy-change (2. order) :-0.1905985E-03  (-0.1906118E-03)
 number of electron      31.9999999 magnetization 
 augmentation part        6.0133941 magnetization 

 Broyden mixing:
  rms(total) = 0.65670E+01    rms(broyden)= 0.65670E+01
  rms(prec ) = 0.65728E+01
  weight for this iteration     100.00

 Free energy of the ion-electron system (eV)
  ---------------------------------------------------
  alpha Z        PSCENC =         0.07205883
  Ewald energy   TEWEN  =      2127.83943268
  -Hartree energ DENC   =     -3727.94390742
  -exchange      EXHF   =         0.00000000
  -V(xc)+E(xc)   XCENC  =       136.27286368
  PAW double counting   =      1593.34061361    -1611.57548628
  entropy T*S    EENTRO =        -0.00000000
  eigenvalues    EBANDS =      -589.38675761
  atomic energy  EATOM  =      2023.82507259
  Solvation  Ediel_sol  =         0.00000000
  ---------------------------------------------------
  free energy    TOTEN  =       -47.55610992 eV

  energy without entropy =      -47.55610992  energy(sigma->0) =      -47.55610992


--------------------------------------------------------------------------------------------------------




--------------------------------------- Iteration      1(   6)  ---------------------------------------


    POTLOK:  cpu time   12.6679: real time   12.6903
    SETDIJ:  cpu time    0.0403: real time    0.0403
     EDDAV:  cpu time   15.2471: real time   15.2773
       DOS:  cpu time    0.0101: real time    0.0101
    CHARGE:  cpu time    5.3217: real time    5.3305
    MIXING:  cpu time    0.2421: real time    0.2448
    --------------------------------------------
      LOOP:  cpu time   33.5291: real time   33.5932

 eigenvalue-minimisations  :    96
 total energy-change (2. order) : 0.3295817E+01  (-0.2336922E+01)
 number of electron      32.0000000 magnetization 
 augmentation part        5.3382902 magnetization 

 Broyden mixing:
  rms(total) = 0.62085E+01    rms(broyden)= 0.62085E+01
  rms(prec ) = 0.62090E+01
  weight for this iteration     100.00

 eigenvalues of (default mixing * dielectric matrix)
  average eigenvalue GAMMA=   0.9658
  0.9658

 Free energy of the ion-electron system (eV)
  ---------------------------------------------------
  alpha Z        PSCENC =         0.07205883
  Ewald energy   TEWEN  =      2127.83943268
  -Hartree energ DENC   =     -3777.98464062
  -exchange      EXHF   =         0.00000000
  -V(xc)+E(xc)   XCENC  =       139.33463827
  PAW double counting   =      3430.39709039    -3451.58299096
  entropy T*S    EENTRO =        -0.00000000
  eigenvalues    EBANDS =      -536.16095392
  atomic energy  EATOM  =      2023.82507259
  Solvation  Ediel_sol  =         0.00000000
  ---------------------------------------------------
  free energy    TOTEN  =       -44.26029274 eV

  energy without entropy =      -44.26029274  energy(sigma->0) =      -44.26029274


--------------------------------------------------------------------------------------------------------




--------------------------------------- Iteration      1(   7)  ---------------------------------------


    POTLOK:  cpu time   12.6862: real time   12.7081
    SETDIJ:  cpu time    0.0402: real time    0.0402
     EDDAV:  cpu time   18.9747: real time   19.0194
       DOS:  cpu time    0.0006: real time    0.0006
    CHARGE:  cpu time    5.3109: real time    5.3191
    MIXING:  cpu time    0.2553: real time    0.2563
    --------------------------------------------
      LOOP:  cpu time   37.2678: real time   37.3438

 eigenvalue-minimisations  :   128
 total energy-change (2. order) : 0.2978013E+00  (-0.1031477E+00)
 number of electron      31.9999999 magnetization 
 augmentation part        5.3977879 magnetization 

 Broyden mixing:
  rms(total) = 0.34282E+01    rms(broyden)= 0.34282E+01
  rms(prec ) = 0.34285E+01
  weight for this iteration     100.00

 eigenvalues of (default mixing * dielectric matrix)
  average eigenvalue GAMMA=   1.6802
  0.8514  2.5090

 Free energy of the ion-electron system (eV)
  ---------------------------------------------------
  alpha Z        PSCENC =         0.07205883
  Ewald energy   TEWEN  =      2127.83943268
  -Hartree energ DENC   =     -3785.51502574
  -exchange      EXHF   =         0.00000000
  -V(xc)+E(xc)   XCENC  =       139.61035526
  PAW double counting   =      5349.41465916    -5370.20128846
  entropy T*S    EENTRO =        -0.00000000
  eigenvalues    EBANDS =      -529.00775579
  atomic energy  EATOM  =      2023.82507259
  Solvation  Ediel_sol  =         0.00000000
  ---------------------------------------------------
  free energy    TOTEN  =       -43.96249147 eV

  energy without entropy =      -43.96249147  energy(sigma->0) =      -43.96249147


--------------------------------------------------------------------------------------------------------




--------------------------------------- Iteration      1(   8)  ---------------------------------------


    POTLOK:  cpu time   12.6509: real time   12.6729
    SETDIJ:  cpu time    0.0404: real time    0.0404
     EDDAV:  cpu time   18.9894: real time   19.0280
       DOS:  cpu time    0.0091: real time    0.0091
    CHARGE:  cpu time    5.3280: real time    5.3373
    MIXING:  cpu time    0.2361: real time    0.2365
    --------------------------------------------
      LOOP:  cpu time   37.2537: real time   37.3241

 eigenvalue-minimisations  :   128
 total energy-change (2. order) : 0.1221469E+00  (-0.3799458E-01)
 number of electron      31.9999999 magnetization 
 augmentation part        5.3453067 magnetization 

 Broyden mixing:
  rms(total) = 0.20755E+00    rms(broyden)= 0.20755E+00
  rms(prec ) = 0.20819E+00
  weight for this iteration     100.00

 eigenvalues of (default mixing * dielectric matrix)
  average eigenvalue GAMMA=   1.5051
  2.5332  1.0841  0.8978

 Free energy of the ion-electron system (eV)
  ---------------------------------------------------
  alpha Z        PSCENC =         0.07205883
  Ewald energy   TEWEN  =      2127.83943268
  -Hartree energ DENC   =     -3802.62124656
  -exchange      EXHF   =         0.00000000
  -V(xc)+E(xc)   XCENC  =       140.48770490
  PAW double counting   =      9495.50920374    -9516.32235720
  entropy T*S    EENTRO =        -0.00000000
  eigenvalues    EBANDS =      -512.63021355
  atomic energy  EATOM  =      2023.82507259
  Solvation  Ediel_sol  =         0.00000000
  ---------------------------------------------------
  free energy    TOTEN  =       -43.84034457 eV

  energy without entropy =      -43.84034457  energy(sigma->0) =      -43.84034457


--------------------------------------------------------------------------------------------------------




--------------------------------------- Iteration      1(   9)  ---------------------------------------


    POTLOK:  cpu time   12.7156: real time   12.7371
    SETDIJ:  cpu time    0.0405: real time    0.0405
     EDDAV:  cpu time   18.9949: real time   19.0328
       DOS:  cpu time    0.0030: real time    0.0030
    CHARGE:  cpu time    5.3658: real time    5.3742
    MIXING:  cpu time    0.2508: real time    0.2513
    --------------------------------------------
      LOOP:  cpu time   37.3707: real time   37.4390

 eigenvalue-minimisations  :   128
 total energy-change (2. order) : 0.5728252E-02  (-0.4321670E-02)
 number of electron      31.9999999 magnetization 
 augmentation part        5.3446637 magnetization 

 Broyden mixing:
  rms(total) = 0.88340E-01    rms(broyden)= 0.88340E-01
  rms(prec ) = 0.88768E-01
  weight for this iteration     100.00

 eigenvalues of (default mixing * dielectric matrix)
  average eigenvalue GAMMA=   1.4252
  2.5436  1.5165  0.8960  0.7447

 Free energy of the ion-electron system (eV)
  ---------------------------------------------------
  alpha Z        PSCENC =         0.07205883
  Ewald energy   TEWEN  =      2127.83943268
  -Hartree energ DENC   =     -3801.73251193
  -exchange      EXHF   =         0.00000000
  -V(xc)+E(xc)   XCENC  =       140.41922434
  PAW double counting   =      9646.73509181    -9667.44355178
  entropy T*S    EENTRO =        -0.00000000
  eigenvalues    EBANDS =      -513.54943286
  atomic energy  EATOM  =      2023.82507259
  Solvation  Ediel_sol  =         0.00000000
  ---------------------------------------------------
  free energy    TOTEN  =       -43.83461632 eV

  energy without entropy =      -43.83461632  energy(sigma->0) =      -43.83461632


--------------------------------------------------------------------------------------------------------




--------------------------------------- Iteration      1(  10)  ---------------------------------------


    POTLOK:  cpu time   12.6953: real time   12.7178
    SETDIJ:  cpu time    0.0402: real time    0.0402
     EDDAV:  cpu time   15.2452: real time   15.2744
       DOS:  cpu time    0.0105: real time    0.0105
    CHARGE:  cpu time    5.3156: real time    5.3278
    MIXING:  cpu time    0.2732: real time    0.2736
    --------------------------------------------
      LOOP:  cpu time   33.5800: real time   33.6443

 eigenvalue-minimisations  :    96
 total energy-change (2. order) :-0.1331069E-02  (-0.7419349E-03)
 number of electron      31.9999999 magnetization 
 augmentation part        5.3477915 magnetization 

 Broyden mixing:
  rms(total) = 0.45771E-01    rms(broyden)= 0.45771E-01
  rms(prec ) = 0.46123E-01
  weight for this iteration     100.00

 eigenvalues of (default mixing * dielectric matrix)
  average eigenvalue GAMMA=   1.3566
  2.5079  1.6014  1.0988  0.7876  0.7876

 Free energy of the ion-electron system (eV)
  ---------------------------------------------------
  alpha Z        PSCENC =         0.07205883
  Ewald energy   TEWEN  =      2127.83943268
  -Hartree energ DENC   =     -3801.43936385
  -exchange      EXHF   =         0.00000000
  -V(xc)+E(xc)   XCENC  =       140.38453527
  PAW double counting   =      9694.05787758    -9714.69242708
  entropy T*S    EENTRO =        -0.00000000
  eigenvalues    EBANDS =      -513.88313340
  atomic energy  EATOM  =      2023.82507259
  Solvation  Ediel_sol  =         0.00000000
  ---------------------------------------------------
  free energy    TOTEN  =       -43.83594738 eV

  energy without entropy =      -43.83594738  energy(sigma->0) =      -43.83594738


--------------------------------------------------------------------------------------------------------




--------------------------------------- Iteration      1(  11)  ---------------------------------------


    POTLOK:  cpu time   12.6690: real time   12.6905
    SETDIJ:  cpu time    0.0403: real time    0.0403
     EDDAV:  cpu time   18.9749: real time   19.0137
       DOS:  cpu time    0.0105: real time    0.0105
    CHARGE:  cpu time    5.3449: real time    5.3531
    MIXING:  cpu time    0.2677: real time    0.2682
    --------------------------------------------
      LOOP:  cpu time   37.3074: real time   37.3763

 eigenvalue-minimisations  :   128
 total energy-change (2. order) :-0.2250513E-02  (-0.7086964E-04)
 number of electron      31.9999999 magnetization 
 augmentation part        5.3491420 magnetization 

 Broyden mixing:
  rms(total) = 0.27672E-01    rms(broyden)= 0.27672E-01
  rms(prec ) = 0.28053E-01
  weight for this iteration     100.00

 eigenvalues of (default mixing * dielectric matrix)
  average eigenvalue GAMMA=   1.4035
  2.5199  1.6736  1.6736  0.9308  0.9308  0.6922

 Free energy of the ion-electron system (eV)
  ---------------------------------------------------
  alpha Z        PSCENC =         0.07205883
  Ewald energy   TEWEN  =      2127.83943268
  -Hartree energ DENC   =     -3801.72960217
  -exchange      EXHF   =         0.00000000
  -V(xc)+E(xc)   XCENC  =       140.38269862
  PAW double counting   =      9679.18010949    -9699.79183084
  entropy T*S    EENTRO =        -0.00000000
  eigenvalues    EBANDS =      -513.61613711
  atomic energy  EATOM  =      2023.82507259
  Solvation  Ediel_sol  =         0.00000000
  ---------------------------------------------------
  free energy    TOTEN  =       -43.83819790 eV

  energy without entropy =      -43.83819790  energy(sigma->0) =      -43.83819790


--------------------------------------------------------------------------------------------------------




--------------------------------------- Iteration      1(  12)  ---------------------------------------


    POTLOK:  cpu time   12.7313: real time   12.7528
    SETDIJ:  cpu time    0.0403: real time    0.0403
     EDDAV:  cpu time   11.5364: real time   11.5652
       DOS:  cpu time    0.0046: real time    0.0046
    CHARGE:  cpu time    5.2899: real time    5.2982
    MIXING:  cpu time    0.2800: real time    0.2805
    --------------------------------------------
      LOOP:  cpu time   29.8824: real time   29.9416

 eigenvalue-minimisations  :    64
 total energy-change (2. order) :-0.2753494E-02  (-0.3395737E-04)
 number of electron      31.9999999 magnetization 
 augmentation part        5.3483926 magnetization 

 Broyden mixing:
  rms(total) = 0.12662E-01    rms(broyden)= 0.12662E-01
  rms(prec ) = 0.13099E-01
  weight for this iteration     100.00

 eigenvalues of (default mixing * dielectric matrix)
  average eigenvalue GAMMA=   1.4842
  2.7001  2.5748  1.6131  1.0170  0.8564  0.8564  0.7717

 Free energy of the ion-electron system (eV)
  ---------------------------------------------------
  alpha Z        PSCENC =         0.07205883
  Ewald energy   TEWEN  =      2127.83943268
  -Hartree energ DENC   =     -3802.34631344
  -exchange      EXHF   =         0.00000000
  -V(xc)+E(xc)   XCENC  =       140.39553995
  PAW double counting   =      9680.35189432    -9700.95217113
  entropy T*S    EENTRO =        -0.00000000
  eigenvalues    EBANDS =      -513.02646519
  atomic energy  EATOM  =      2023.82507259
  Solvation  Ediel_sol  =         0.00000000
  ---------------------------------------------------
  free energy    TOTEN  =       -43.84095139 eV

  energy without entropy =      -43.84095139  energy(sigma->0) =      -43.84095139


--------------------------------------------------------------------------------------------------------




--------------------------------------- Iteration      1(  13)  ---------------------------------------


    POTLOK:  cpu time   12.6732: real time   12.6952
    SETDIJ:  cpu time    0.0403: real time    0.0404
     EDDAV:  cpu time   15.2781: real time   15.3163
       DOS:  cpu time    0.0023: real time    0.0023
    CHARGE:  cpu time    5.3538: real time    5.3645
    MIXING:  cpu time    0.2875: real time    0.2880
    --------------------------------------------
      LOOP:  cpu time   33.6353: real time   33.7067

 eigenvalue-minimisations  :    96
 total energy-change (2. order) :-0.2613387E-02  (-0.3669591E-04)
 number of electron      31.9999999 magnetization 
 augmentation part        5.3475099 magnetization 

 Broyden mixing:
  rms(total) = 0.43426E-02    rms(broyden)= 0.43426E-02
  rms(prec ) = 0.48917E-02
  weight for this iteration     100.00

 eigenvalues of (default mixing * dielectric matrix)
  average eigenvalue GAMMA=   1.3642
  2.8367  2.5226  1.6435  1.0029  0.8440  0.7704  0.7704  0.5233

 Free energy of the ion-electron system (eV)
  ---------------------------------------------------
  alpha Z        PSCENC =         0.07205883
  Ewald energy   TEWEN  =      2127.83943268
  -Hartree energ DENC   =     -3802.87838959
  -exchange      EXHF   =         0.00000000
  -V(xc)+E(xc)   XCENC  =       140.40492222
  PAW double counting   =      9677.04601942    -9697.63920299
  entropy T*S    EENTRO =        -0.00000000
  eigenvalues    EBANDS =      -512.51347794
  atomic energy  EATOM  =      2023.82507259
  Solvation  Ediel_sol  =         0.00000000
  ---------------------------------------------------
  free energy    TOTEN  =       -43.84356478 eV

  energy without entropy =      -43.84356478  energy(sigma->0) =      -43.84356478


--------------------------------------------------------------------------------------------------------




--------------------------------------- Iteration      1(  14)  ---------------------------------------


    POTLOK:  cpu time   12.7293: real time   12.7511
    SETDIJ:  cpu time    0.0411: real time    0.0411
     EDDAV:  cpu time   19.0336: real time   19.0780
       DOS:  cpu time    0.0075: real time    0.0075
    CHARGE:  cpu time    5.3408: real time    5.3495
    MIXING:  cpu time    0.2859: real time    0.2865
    --------------------------------------------
      LOOP:  cpu time   37.4382: real time   37.5138

 eigenvalue-minimisations  :   128
 total energy-change (2. order) :-0.7560701E-03  (-0.4652214E-05)
 number of electron      31.9999999 magnetization 
 augmentation part        5.3474982 magnetization 

 Broyden mixing:
  rms(total) = 0.44981E-02    rms(broyden)= 0.44981E-02
  rms(prec ) = 0.49156E-02
  weight for this iteration     100.00

 eigenvalues of (default mixing * dielectric matrix)
  average eigenvalue GAMMA=   1.2159
  2.8377  2.5232  1.6440  1.0018  0.8413  0.7831  0.7831  0.3335  0.1950

 Free energy of the ion-electron system (eV)
  ---------------------------------------------------
  alpha Z        PSCENC =         0.07205883
  Ewald energy   TEWEN  =      2127.83943268
  -Hartree energ DENC   =     -3802.99594473
  -exchange      EXHF   =         0.00000000
  -V(xc)+E(xc)   XCENC  =       140.40616182
  PAW double counting   =      9677.82955975    -9698.42179274
  entropy T*S    EENTRO =        -0.00000000
  eigenvalues    EBANDS =      -512.39886905
  atomic energy  EATOM  =      2023.82507259
  Solvation  Ediel_sol  =         0.00000000
  ---------------------------------------------------
  free energy    TOTEN  =       -43.84432085 eV

  energy without entropy =      -43.84432085  energy(sigma->0) =      -43.84432085


--------------------------------------------------------------------------------------------------------




--------------------------------------- Iteration      1(  15)  ---------------------------------------


    POTLOK:  cpu time   12.6826: real time   12.7044
    SETDIJ:  cpu time    0.0402: real time    0.0402
     EDDAV:  cpu time   18.9952: real time   19.0332
       DOS:  cpu time    0.0092: real time    0.0092
    CHARGE:  cpu time    5.3946: real time    5.4048
    MIXING:  cpu time    0.3388: real time    0.3394
    --------------------------------------------
      LOOP:  cpu time   37.4606: real time   37.5312

 eigenvalue-minimisations  :   128
 total energy-change (2. order) :-0.6162572E-04  (-0.1011347E-06)
 number of electron      31.9999999 magnetization 
 augmentation part        5.3474787 magnetization 

 Broyden mixing:
  rms(total) = 0.45819E-02    rms(broyden)= 0.45819E-02
  rms(prec ) = 0.49851E-02
  weight for this iteration     100.00

 eigenvalues of (default mixing * dielectric matrix)
  average eigenvalue GAMMA=   1.1518
  2.8349  2.5226  1.6442  0.9994  0.8449  0.7813  0.7813  0.4621  0.3235  0.3235

 Free energy of the ion-electron system (eV)
  ---------------------------------------------------
  alpha Z        PSCENC =         0.07205883
  Ewald energy   TEWEN  =      2127.83943268
  -Hartree energ DENC   =     -3803.00437435
  -exchange      EXHF   =         0.00000000
  -V(xc)+E(xc)   XCENC  =       140.40626227
  PAW double counting   =      9677.74487623    -9698.33713141
  entropy T*S    EENTRO =        -0.00000000
  eigenvalues    EBANDS =      -512.39057932
  atomic energy  EATOM  =      2023.82507259
  Solvation  Ediel_sol  =         0.00000000
  ---------------------------------------------------
  free energy    TOTEN  =       -43.84438248 eV

  energy without entropy =      -43.84438248  energy(sigma->0) =      -43.84438248


--------------------------------------------------------------------------------------------------------




--------------------------------------- Iteration      1(  16)  ---------------------------------------


    POTLOK:  cpu time   12.7261: real time   12.7476
    SETDIJ:  cpu time    0.0403: real time    0.0403
     EDDAV:  cpu time   19.0111: real time   19.0584
       DOS:  cpu time    0.0003: real time    0.0003
    CHARGE:  cpu time    5.3694: real time    5.3780
    MIXING:  cpu time    0.3073: real time    0.3079
    --------------------------------------------
      LOOP:  cpu time   37.4545: real time   37.5324

 eigenvalue-minimisations  :   128
 total energy-change (2. order) :-0.2724297E-03  (-0.1442002E-06)
 number of electron      31.9999999 magnetization 
 augmentation part        5.3474617 magnetization 

 Broyden mixing:
  rms(total) = 0.32293E-02    rms(broyden)= 0.32293E-02
  rms(prec ) = 0.37457E-02
  weight for this iteration     100.00

 eigenvalues of (default mixing * dielectric matrix)
  average eigenvalue GAMMA=   1.6874
  5.1162  2.5211  2.5211  1.6214  1.6214  0.9377  0.9377  0.8778  0.8778  0.8334
  0.6957

 Free energy of the ion-electron system (eV)
  ---------------------------------------------------
  alpha Z        PSCENC =         0.07205883
  Ewald energy   TEWEN  =      2127.83943268
  -Hartree energ DENC   =     -3803.02827206
  -exchange      EXHF   =         0.00000000
  -V(xc)+E(xc)   XCENC  =       140.40629060
  PAW double counting   =      9678.25346100    -9698.84570061
  entropy T*S    EENTRO =        -0.00000000
  eigenvalues    EBANDS =      -512.36699793
  atomic energy  EATOM  =      2023.82507259
  Solvation  Ediel_sol  =         0.00000000
  ---------------------------------------------------
  free energy    TOTEN  =       -43.84465490 eV

  energy without entropy =      -43.84465490  energy(sigma->0) =      -43.84465490


--------------------------------------------------------------------------------------------------------




--------------------------------------- Iteration      1(  17)  ---------------------------------------


    POTLOK:  cpu time   12.6825: real time   12.7044
    SETDIJ:  cpu time    0.0403: real time    0.0403
     EDDAV:  cpu time   15.2872: real time   15.3169
       DOS:  cpu time    0.0136: real time    0.0136
    CHARGE:  cpu time    5.3998: real time    5.4086
    MIXING:  cpu time    0.3339: real time    0.3345
    --------------------------------------------
      LOOP:  cpu time   33.7572: real time   33.8183

 eigenvalue-minimisations  :    96
 total energy-change (2. order) :-0.3954618E-02  (-0.7183313E-04)
 number of electron      31.9999999 magnetization 
 augmentation part        5.3472450 magnetization 

 Broyden mixing:
  rms(total) = 0.12221E-01    rms(broyden)= 0.12221E-01
  rms(prec ) = 0.12231E-01
  weight for this iteration     100.00

 eigenvalues of (default mixing * dielectric matrix)
  average eigenvalue GAMMA=   1.5682
  5.2428  2.5507  2.5507  1.6076  1.1363  0.9340  0.9340  0.8347  0.8347  0.7733
  0.7100  0.7100

 Free energy of the ion-electron system (eV)
  ---------------------------------------------------
  alpha Z        PSCENC =         0.07205883
  Ewald energy   TEWEN  =      2127.83943268
  -Hartree energ DENC   =     -3803.63982211
  -exchange      EXHF   =         0.00000000
  -V(xc)+E(xc)   XCENC  =       140.41012221
  PAW double counting   =      9678.98838846    -9699.57734474
  entropy T*S    EENTRO =        -0.00000000
  eigenvalues    EBANDS =      -511.76651744
  atomic energy  EATOM  =      2023.82507259
  Solvation  Ediel_sol  =         0.00000000
  ---------------------------------------------------
  free energy    TOTEN  =       -43.84860952 eV

  energy without entropy =      -43.84860952  energy(sigma->0) =      -43.84860952


--------------------------------------------------------------------------------------------------------




--------------------------------------- Iteration      1(  18)  ---------------------------------------


    POTLOK:  cpu time   12.6927: real time   12.7146
    SETDIJ:  cpu time    0.0402: real time    0.0402
     EDDAV:  cpu time   18.9607: real time   19.0051
       DOS:  cpu time    0.0043: real time    0.0043
    CHARGE:  cpu time    5.4060: real time    5.4148
    MIXING:  cpu time    0.3307: real time    0.3314
    --------------------------------------------
      LOOP:  cpu time   37.4346: real time   37.5104

 eigenvalue-minimisations  :   128
 total energy-change (2. order) : 0.4766604E-04  (-0.2361260E-05)
 number of electron      31.9999999 magnetization 
 augmentation part        5.3472554 magnetization 

 Broyden mixing:
  rms(total) = 0.79390E-02    rms(broyden)= 0.79390E-02
  rms(prec ) = 0.79537E-02
  weight for this iteration     100.00

 eigenvalues of (default mixing * dielectric matrix)
  average eigenvalue GAMMA=   1.5132
  5.4241  2.5618  2.5618  1.6024  1.0286  1.0286  1.0974  0.8170  0.8170  0.7829
  0.7066  0.7066  0.5366

 Free energy of the ion-electron system (eV)
  ---------------------------------------------------
  alpha Z        PSCENC =         0.07205883
  Ewald energy   TEWEN  =      2127.83943268
  -Hartree energ DENC   =     -3803.63893567
  -exchange      EXHF   =         0.00000000
  -V(xc)+E(xc)   XCENC  =       140.41008041
  PAW double counting   =      9678.42533751    -9699.01457486
  entropy T*S    EENTRO =        -0.00000000
  eigenvalues    EBANDS =      -511.76703335
  atomic energy  EATOM  =      2023.82507259
  Solvation  Ediel_sol  =         0.00000000
  ---------------------------------------------------
  free energy    TOTEN  =       -43.84856186 eV

  energy without entropy =      -43.84856186  energy(sigma->0) =      -43.84856186


--------------------------------------------------------------------------------------------------------




--------------------------------------- Iteration      1(  19)  ---------------------------------------


    POTLOK:  cpu time   12.6609: real time   12.6830
    SETDIJ:  cpu time    0.0402: real time    0.0402
     EDDAV:  cpu time   18.9940: real time   19.0364
       DOS:  cpu time    0.0017: real time    0.0017
    CHARGE:  cpu time    5.3828: real time    5.3914
    MIXING:  cpu time    0.3727: real time    0.3733
    --------------------------------------------
      LOOP:  cpu time   37.4522: real time   37.5261

 eigenvalue-minimisations  :   128
 total energy-change (2. order) :-0.1947043E-04  (-0.7744886E-07)
 number of electron      31.9999999 magnetization 
 augmentation part        5.3472499 magnetization 

 Broyden mixing:
  rms(total) = 0.57116E-02    rms(broyden)= 0.57116E-02
  rms(prec ) = 0.57306E-02
  weight for this iteration     100.00

 eigenvalues of (default mixing * dielectric matrix)
  average eigenvalue GAMMA=   1.5761
  5.4696  2.6324  2.5415  1.5288  1.5288  1.6022  1.2131  0.9359  0.9359  0.8500
  0.7716  0.7716  0.6418  0.6418

 Free energy of the ion-electron system (eV)
  ---------------------------------------------------
  alpha Z        PSCENC =         0.07205883
  Ewald energy   TEWEN  =      2127.83943268
  -Hartree energ DENC   =     -3803.64383085
  -exchange      EXHF   =         0.00000000
  -V(xc)+E(xc)   XCENC  =       140.41003873
  PAW double counting   =      9677.86574002    -9698.45525739
  entropy T*S    EENTRO =        -0.00000000
  eigenvalues    EBANDS =      -511.76183594
  atomic energy  EATOM  =      2023.82507259
  Solvation  Ediel_sol  =         0.00000000
  ---------------------------------------------------
  free energy    TOTEN  =       -43.84858133 eV

  energy without entropy =      -43.84858133  energy(sigma->0) =      -43.84858133


--------------------------------------------------------------------------------------------------------




--------------------------------------- Iteration      1(  20)  ---------------------------------------


    POTLOK:  cpu time   12.7037: real time   12.7261
    SETDIJ:  cpu time    0.0403: real time    0.0403
     EDDAV:  cpu time   11.5305: real time   11.5589
       DOS:  cpu time    0.0058: real time    0.0058
    CHARGE:  cpu time    5.3599: real time    5.3711
    MIXING:  cpu time    0.3822: real time    0.3829
    --------------------------------------------
      LOOP:  cpu time   30.0225: real time   30.0850

 eigenvalue-minimisations  :    64
 total energy-change (2. order) :-0.3430756E-03  (-0.7452771E-06)
 number of electron      31.9999999 magnetization 
 augmentation part        5.3472381 magnetization 

 Broyden mixing:
  rms(total) = 0.91626E-03    rms(broyden)= 0.91626E-03
  rms(prec ) = 0.98400E-03
  weight for this iteration     100.00

 eigenvalues of (default mixing * dielectric matrix)
  average eigenvalue GAMMA=   1.6360
  5.7941  2.9665  2.3376  2.3376  1.4889  1.4889  1.5176  1.1224  0.8815  0.8815
  0.8635  0.8635  0.7337  0.6315  0.6315

 Free energy of the ion-electron system (eV)
  ---------------------------------------------------
  alpha Z        PSCENC =         0.07205883
  Ewald energy   TEWEN  =      2127.83943268
  -Hartree energ DENC   =     -3803.65589272
  -exchange      EXHF   =         0.00000000
  -V(xc)+E(xc)   XCENC  =       140.40935280
  PAW double counting   =      9676.99211880    -9697.58229597
  entropy T*S    EENTRO =        -0.00000000
  eigenvalues    EBANDS =      -511.74877142
  atomic energy  EATOM  =      2023.82507259
  Solvation  Ediel_sol  =         0.00000000
  ---------------------------------------------------
  free energy    TOTEN  =       -43.84892440 eV

  energy without entropy =      -43.84892440  energy(sigma->0) =      -43.84892440


--------------------------------------------------------------------------------------------------------




--------------------------------------- Iteration      1(  21)  ---------------------------------------


    POTLOK:  cpu time   12.6443: real time   12.6661
    SETDIJ:  cpu time    0.0401: real time    0.0402
     EDDAV:  cpu time   15.2769: real time   15.3074
       DOS:  cpu time    0.0050: real time    0.0050
    CHARGE:  cpu time    5.4141: real time    5.4227
    MIXING:  cpu time    0.3872: real time    0.3879
    --------------------------------------------
      LOOP:  cpu time   33.7676: real time   33.8293

 eigenvalue-minimisations  :    96
 total energy-change (2. order) :-0.4691157E-03  (-0.1587441E-05)
 number of electron      31.9999999 magnetization 
 augmentation part        5.3471921 magnetization 

 Broyden mixing:
  rms(total) = 0.23196E-02    rms(broyden)= 0.23196E-02
  rms(prec ) = 0.23288E-02
  weight for this iteration     100.00

 eigenvalues of (default mixing * dielectric matrix)
  average eigenvalue GAMMA=   1.6393
  6.4063  2.9179  2.5267  2.2251  1.4933  1.4933  1.6607  1.1684  0.9735  0.9735
  0.9202  0.7616  0.7616  0.6881  0.6296  0.6296

 Free energy of the ion-electron system (eV)
  ---------------------------------------------------
  alpha Z        PSCENC =         0.07205883
  Ewald energy   TEWEN  =      2127.83943268
  -Hartree energ DENC   =     -3803.67956158
  -exchange      EXHF   =         0.00000000
  -V(xc)+E(xc)   XCENC  =       140.40863150
  PAW double counting   =      9676.80418821    -9697.39434561
  entropy T*S    EENTRO =        -0.00000000
  eigenvalues    EBANDS =      -511.72487015
  atomic energy  EATOM  =      2023.82507259
  Solvation  Ediel_sol  =         0.00000000
  ---------------------------------------------------
  free energy    TOTEN  =       -43.84939352 eV

  energy without entropy =      -43.84939352  energy(sigma->0) =      -43.84939352


--------------------------------------------------------------------------------------------------------




--------------------------------------- Iteration      1(  22)  ---------------------------------------


    POTLOK:  cpu time   12.7094: real time   12.7315
    SETDIJ:  cpu time    0.0402: real time    0.0402
     EDDAV:  cpu time   18.9410: real time   18.9853
       DOS:  cpu time    0.0039: real time    0.0039
    CHARGE:  cpu time    5.3466: real time    5.3549
    MIXING:  cpu time    0.3869: real time    0.3876
    --------------------------------------------
      LOOP:  cpu time   37.4280: real time   37.5035

 eigenvalue-minimisations  :   128
 total energy-change (2. order) :-0.1363019E-03  (-0.2240899E-06)
 number of electron      31.9999999 magnetization 
 augmentation part        5.3471684 magnetization 

 Broyden mixing:
  rms(total) = 0.47813E-03    rms(broyden)= 0.47813E-03
  rms(prec ) = 0.50055E-03
  weight for this iteration     100.00

 eigenvalues of (default mixing * dielectric matrix)
  average eigenvalue GAMMA=   1.7299
  6.8530  3.4743  2.7644  2.4568  2.0733  1.5051  1.5051  1.5263  0.9656  0.9656
  0.8587  0.8587  0.8912  0.7223  0.7223  0.6329  0.6329

 Free energy of the ion-electron system (eV)
  ---------------------------------------------------
  alpha Z        PSCENC =         0.07205883
  Ewald energy   TEWEN  =      2127.83943268
  -Hartree energ DENC   =     -3803.69973053
  -exchange      EXHF   =         0.00000000
  -V(xc)+E(xc)   XCENC  =       140.40877781
  PAW double counting   =      9677.19371111    -9697.78365444
  entropy T*S    EENTRO =        -0.00000000
  eigenvalues    EBANDS =      -511.70519787
  atomic energy  EATOM  =      2023.82507259
  Solvation  Ediel_sol  =         0.00000000
  ---------------------------------------------------
  free energy    TOTEN  =       -43.84952982 eV

  energy without entropy =      -43.84952982  energy(sigma->0) =      -43.84952982


--------------------------------------------------------------------------------------------------------




--------------------------------------- Iteration      1(  23)  ---------------------------------------


    POTLOK:  cpu time   12.6594: real time   12.6902
    SETDIJ:  cpu time    0.0404: real time    0.0404
     EDDAV:  cpu time   11.5854: real time   11.6114
       DOS:  cpu time    0.0017: real time    0.0017
    CHARGE:  cpu time    5.4268: real time    5.4390
    MIXING:  cpu time    0.4235: real time    0.4244
    --------------------------------------------
      LOOP:  cpu time   30.1371: real time   30.2070

 eigenvalue-minimisations  :    64
 total energy-change (2. order) :-0.1727848E-03  (-0.3668861E-06)
 number of electron      31.9999999 magnetization 
 augmentation part        5.3471882 magnetization 

 Broyden mixing:
  rms(total) = 0.20731E-03    rms(broyden)= 0.20731E-03
  rms(prec ) = 0.22184E-03
  weight for this iteration     100.00

 eigenvalues of (default mixing * dielectric matrix)
  average eigenvalue GAMMA=   1.7737
  7.7454  4.2915  2.5447  2.5447  1.5013  1.5013  1.6648  1.4123  1.4123  1.1236
  0.8784  0.8784  0.8496  0.8496  0.7509  0.7129  0.6323  0.6323

 Free energy of the ion-electron system (eV)
  ---------------------------------------------------
  alpha Z        PSCENC =         0.07205883
  Ewald energy   TEWEN  =      2127.83943268
  -Hartree energ DENC   =     -3803.70270127
  -exchange      EXHF   =         0.00000000
  -V(xc)+E(xc)   XCENC  =       140.40833197
  PAW double counting   =      9677.13190415    -9697.72173207
  entropy T*S    EENTRO =        -0.00000000
  eigenvalues    EBANDS =      -511.70206949
  atomic energy  EATOM  =      2023.82507259
  Solvation  Ediel_sol  =         0.00000000
  ---------------------------------------------------
  free energy    TOTEN  =       -43.84970261 eV

  energy without entropy =      -43.84970261  energy(sigma->0) =      -43.84970261


--------------------------------------------------------------------------------------------------------




--------------------------------------- Iteration      1(  24)  ---------------------------------------


    POTLOK:  cpu time   12.6870: real time   12.7086
    SETDIJ:  cpu time    0.0401: real time    0.0402
     EDDAV:  cpu time   19.0097: real time   19.0602
       DOS:  cpu time    0.0137: real time    0.0137
    CHARGE:  cpu time    5.3486: real time    5.3570
    MIXING:  cpu time    0.4250: real time    0.4258
    --------------------------------------------
      LOOP:  cpu time   37.5242: real time   37.6055

 eigenvalue-minimisations  :   128
 total energy-change (2. order) :-0.5592311E-04  (-0.7920998E-07)
 number of electron      31.9999999 magnetization 
 augmentation part        5.3471854 magnetization 

 Broyden mixing:
  rms(total) = 0.21681E-03    rms(broyden)= 0.21681E-03
  rms(prec ) = 0.22313E-03
  weight for this iteration     100.00

 eigenvalues of (default mixing * dielectric matrix)
  average eigenvalue GAMMA=   1.7873
  8.1425  4.3555  2.5017  2.5017  1.5060  1.5060  1.9005  1.9005  1.5563  1.0268
  0.8810  0.8810  0.9085  0.9085  0.6316  0.6316  0.7800  0.7416  0.6967

 Free energy of the ion-electron system (eV)
  ---------------------------------------------------
  alpha Z        PSCENC =         0.07205883
  Ewald energy   TEWEN  =      2127.83943268
  -Hartree energ DENC   =     -3803.70522118
  -exchange      EXHF   =         0.00000000
  -V(xc)+E(xc)   XCENC  =       140.40816212
  PAW double counting   =      9677.04675963    -9697.63665249
  entropy T*S    EENTRO =        -0.00000000
  eigenvalues    EBANDS =      -511.69937072
  atomic energy  EATOM  =      2023.82507259
  Solvation  Ediel_sol  =         0.00000000
  ---------------------------------------------------
  free energy    TOTEN  =       -43.84975853 eV

  energy without entropy =      -43.84975853  energy(sigma->0) =      -43.84975853


--------------------------------------------------------------------------------------------------------




--------------------------------------- Iteration      1(  25)  ---------------------------------------


    POTLOK:  cpu time   12.6524: real time   12.6745
    SETDIJ:  cpu time    0.0402: real time    0.0403
     EDDAV:  cpu time   18.9833: real time   19.0302
       DOS:  cpu time    0.0012: real time    0.0012
    CHARGE:  cpu time    5.3970: real time    5.4122
    MIXING:  cpu time    0.4612: real time    0.4621
    --------------------------------------------
      LOOP:  cpu time   37.5353: real time   37.6204

 eigenvalue-minimisations  :   128
 total energy-change (2. order) :-0.3601506E-04  (-0.1469601E-07)
 number of electron      31.9999999 magnetization 
 augmentation part        5.3471915 magnetization 

 Broyden mixing:
  rms(total) = 0.39992E-03    rms(broyden)= 0.39992E-03
  rms(prec ) = 0.40160E-03
  weight for this iteration     100.00

 eigenvalues of (default mixing * dielectric matrix)
  average eigenvalue GAMMA=   1.9026
  8.5366  5.3256  3.4016  2.4528  2.4528  1.5011  1.5011  1.9935  1.6304  1.0445
  1.0445  0.9502  0.9502  0.8794  0.8794  0.6316  0.6316  0.7996  0.7460  0.6997

 Free energy of the ion-electron system (eV)
  ---------------------------------------------------
  alpha Z        PSCENC =         0.07205883
  Ewald energy   TEWEN  =      2127.83943268
  -Hartree energ DENC   =     -3803.70626750
  -exchange      EXHF   =         0.00000000
  -V(xc)+E(xc)   XCENC  =       140.40807580
  PAW double counting   =      9676.99852343    -9697.58844125
  entropy T*S    EENTRO =        -0.00000000
  eigenvalues    EBANDS =      -511.69824913
  atomic energy  EATOM  =      2023.82507259
  Solvation  Ediel_sol  =         0.00000000
  ---------------------------------------------------
  free energy    TOTEN  =       -43.84979454 eV

  energy without entropy =      -43.84979454  energy(sigma->0) =      -43.84979454


--------------------------------------------------------------------------------------------------------




--------------------------------------- Iteration      1(  26)  ---------------------------------------


    POTLOK:  cpu time   12.6963: real time   12.7183
    SETDIJ:  cpu time    0.0402: real time    0.0402
     EDDAV:  cpu time   11.5480: real time   11.5711
       DOS:  cpu time    0.0097: real time    0.0097
    CHARGE:  cpu time    5.4004: real time    5.4088
    MIXING:  cpu time    0.4778: real time    0.4788
    --------------------------------------------
      LOOP:  cpu time   30.1723: real time   30.2268

 eigenvalue-minimisations  :    64
 total energy-change (2. order) :-0.4057653E-04  (-0.5507542E-07)
 number of electron      31.9999999 magnetization 
 augmentation part        5.3471905 magnetization 

 Broyden mixing:
  rms(total) = 0.15650E-03    rms(broyden)= 0.15650E-03
  rms(prec ) = 0.15719E-03
  weight for this iteration     100.00

 eigenvalues of (default mixing * dielectric matrix)
  average eigenvalue GAMMA=   1.8573
  8.7927  5.4440  3.3179  2.4882  2.4431  1.5014  1.5014  1.9070  1.6111  1.0932
  1.0932  0.9120  0.9120  0.9122  0.9122  0.6310  0.6310  0.7684  0.7684  0.6968
  0.6662

 Free energy of the ion-electron system (eV)
  ---------------------------------------------------
  alpha Z        PSCENC =         0.07205883
  Ewald energy   TEWEN  =      2127.83943268
  -Hartree energ DENC   =     -3803.70707393
  -exchange      EXHF   =         0.00000000
  -V(xc)+E(xc)   XCENC  =       140.40805433
  PAW double counting   =      9677.03524244    -9697.62512912
  entropy T*S    EENTRO =        -0.00000000
  eigenvalues    EBANDS =      -511.69749294
  atomic energy  EATOM  =      2023.82507259
  Solvation  Ediel_sol  =         0.00000000
  ---------------------------------------------------
  free energy    TOTEN  =       -43.84983512 eV

  energy without entropy =      -43.84983512  energy(sigma->0) =      -43.84983512


--------------------------------------------------------------------------------------------------------




--------------------------------------- Iteration      1(  27)  ---------------------------------------


    POTLOK:  cpu time   12.6451: real time   12.6666
    SETDIJ:  cpu time    0.0402: real time    0.0402
     EDDAV:  cpu time   19.0500: real time   19.0979
       DOS:  cpu time    0.0101: real time    0.0101
    CHARGE:  cpu time    5.3749: real time    5.3832
    MIXING:  cpu time    0.4790: real time    0.4800
    --------------------------------------------
      LOOP:  cpu time   37.5994: real time   37.6781

 eigenvalue-minimisations  :   128
 total energy-change (2. order) :-0.3218412E-05  (-0.4362143E-08)
 number of electron      31.9999999 magnetization 
 augmentation part        5.3471915 magnetization 

 Broyden mixing:
  rms(total) = 0.15742E-03    rms(broyden)= 0.15742E-03
  rms(prec ) = 0.15794E-03
  weight for this iteration     100.00

 eigenvalues of (default mixing * dielectric matrix)
  average eigenvalue GAMMA=   1.8772
  9.0857  5.5192  3.4065  1.5019  1.5019  2.4387  2.4387  2.0281  2.0281  1.5401
  0.8927  0.8927  1.0158  0.6316  0.6316  0.8859  0.8859  0.8639  0.8639  0.8121
  0.7173  0.7173

 Free energy of the ion-electron system (eV)
  ---------------------------------------------------
  alpha Z        PSCENC =         0.07205883
  Ewald energy   TEWEN  =      2127.83943268
  -Hartree energ DENC   =     -3803.70720239
  -exchange      EXHF   =         0.00000000
  -V(xc)+E(xc)   XCENC  =       140.40804385
  PAW double counting   =      9677.03530283    -9697.62518464
  entropy T*S    EENTRO =        -0.00000000
  eigenvalues    EBANDS =      -511.69736209
  atomic energy  EATOM  =      2023.82507259
  Solvation  Ediel_sol  =         0.00000000
  ---------------------------------------------------
  free energy    TOTEN  =       -43.84983834 eV

  energy without entropy =      -43.84983834  energy(sigma->0) =      -43.84983834


--------------------------------------------------------------------------------------------------------




--------------------------------------- Iteration      1(  28)  ---------------------------------------


    POTLOK:  cpu time   12.6900: real time   12.7120
    SETDIJ:  cpu time    0.0403: real time    0.0403
     EDDAV:  cpu time   15.2281: real time   15.2577
       DOS:  cpu time    0.0045: real time    0.0045
    CHARGE:  cpu time    5.3369: real time    5.3457
    MIXING:  cpu time    0.4995: real time    0.5014
    --------------------------------------------
      LOOP:  cpu time   33.7992: real time   33.8617

 eigenvalue-minimisations  :    96
 total energy-change (2. order) :-0.7053738E-05  (-0.4822649E-08)
 number of electron      31.9999999 magnetization 
 augmentation part        5.3471900 magnetization 

 Broyden mixing:
  rms(total) = 0.62523E-04    rms(broyden)= 0.62523E-04
  rms(prec ) = 0.63025E-04
  weight for this iteration     100.00

 eigenvalues of (default mixing * dielectric matrix)
  average eigenvalue GAMMA=   1.9219
  9.3394  5.8845  4.0795  2.6448  2.5047  2.1414  2.1414  1.5022  1.5022  1.5946
  1.0096  1.0096  1.0573  0.6316  0.6316  0.8150  0.8150  0.8703  0.8703  0.7074
  0.7362  0.8993  0.8156

 Free energy of the ion-electron system (eV)
  ---------------------------------------------------
  alpha Z        PSCENC =         0.07205883
  Ewald energy   TEWEN  =      2127.83943268
  -Hartree energ DENC   =     -3803.70786124
  -exchange      EXHF   =         0.00000000
  -V(xc)+E(xc)   XCENC  =       140.40804650
  PAW double counting   =      9677.01867862    -9697.60857343
  entropy T*S    EENTRO =        -0.00000000
  eigenvalues    EBANDS =      -511.69669994
  atomic energy  EATOM  =      2023.82507259
  Solvation  Ediel_sol  =         0.00000000
  ---------------------------------------------------
  free energy    TOTEN  =       -43.84984539 eV

  energy without entropy =      -43.84984539  energy(sigma->0) =      -43.84984539


--------------------------------------------------------------------------------------------------------




--------------------------------------- Iteration      1(  29)  ---------------------------------------


    POTLOK:  cpu time   12.6211: real time   12.6431
    SETDIJ:  cpu time    0.0402: real time    0.0402
     EDDAV:  cpu time   15.2043: real time   15.2468
       DOS:  cpu time    0.0058: real time    0.0058
    CHARGE:  cpu time    5.4284: real time    5.4369
    MIXING:  cpu time    0.5355: real time    0.5366
    --------------------------------------------
      LOOP:  cpu time   33.8354: real time   33.9095

 eigenvalue-minimisations  :    96
 total energy-change (2. order) :-0.4713993E-05  (-0.4947069E-08)
 number of electron      31.9999999 magnetization 
 augmentation part        5.3471903 magnetization 

 Broyden mixing:
  rms(total) = 0.25414E-04    rms(broyden)= 0.25414E-04
  rms(prec ) = 0.25774E-04
  weight for this iteration     100.00

 eigenvalues of (default mixing * dielectric matrix)
  average eigenvalue GAMMA=   1.9461
  9.4281  6.3398  4.3825  2.9152  2.3960  2.3960  1.5020  1.5020  2.1416  1.6848
  1.3426  0.8684  0.8684  1.0072  1.0072  0.6316  0.6316  0.8471  0.8471  0.8685
  0.8685  0.7931  0.7014  0.7365

 Free energy of the ion-electron system (eV)
  ---------------------------------------------------
  alpha Z        PSCENC =         0.07205883
  Ewald energy   TEWEN  =      2127.83943268
  -Hartree energ DENC   =     -3803.70818757
  -exchange      EXHF   =         0.00000000
  -V(xc)+E(xc)   XCENC  =       140.40804857
  PAW double counting   =      9677.04173746    -9697.63161509
  entropy T*S    EENTRO =        -0.00000000
  eigenvalues    EBANDS =      -511.69639758
  atomic energy  EATOM  =      2023.82507259
  Solvation  Ediel_sol  =         0.00000000
  ---------------------------------------------------
  free energy    TOTEN  =       -43.84985011 eV

  energy without entropy =      -43.84985011  energy(sigma->0) =      -43.84985011


--------------------------------------------------------------------------------------------------------




--------------------------------------- Iteration      1(  30)  ---------------------------------------


    POTLOK:  cpu time   12.6475: real time   12.6694
    SETDIJ:  cpu time    0.0402: real time    0.0402
     EDDAV:  cpu time   19.0789: real time   19.1222
       DOS:  cpu time    0.0124: real time    0.0124
    CHARGE:  cpu time    5.3019: real time    5.3102
    MIXING:  cpu time    0.5629: real time    0.5658
    --------------------------------------------
      LOOP:  cpu time   37.6438: real time   37.7201

 eigenvalue-minimisations  :   128
 total energy-change (2. order) :-0.1847724E-05  (-0.3524303E-08)
 number of electron      31.9999999 magnetization 
[...]
  ---------------------------------------------------
  free energy    TOTEN  =       -43.84985296 eV

  energy without entropy =      -43.84985296  energy(sigma->0) =      -43.84985296


--------------------------------------------------------------------------------------------------------




--------------------------------------- Iteration      1(  32)  ---------------------------------------


    POTLOK:  cpu time   12.6328: real time   12.6598
    SETDIJ:  cpu time    0.0403: real time    0.0403
     EDDAV:  cpu time   15.2578: real time   15.2901
       DOS:  cpu time    0.0078: real time    0.0078
    CHARGE:  cpu time    5.3721: real time    5.3806
    MIXING:  cpu time    0.6080: real time    0.6094
    --------------------------------------------
      LOOP:  cpu time   33.9188: real time   33.9880

 eigenvalue-minimisations  :    96
 total energy-change (2. order) :-0.6921337E-06  (-0.3075829E-08)
 number of electron      31.9999999 magnetization 
 augmentation part        5.3471896 magnetization 

 Broyden mixing:
  rms(total) = 0.14895E-04    rms(broyden)= 0.14895E-04
  rms(prec ) = 0.14927E-04
  weight for this iteration     100.00

 eigenvalues of (default mixing * dielectric matrix)
  average eigenvalue GAMMA=   2.0191
  9.6629  7.0545  5.1599  3.6952  2.7212  2.4885  2.3653  2.3653  1.5020  1.5020
  1.7726  1.5235  0.9759  0.9759  1.0801  0.6315  0.6315  0.8983  0.8983  0.9485
  0.9485  0.7995  0.7995  0.8959  0.6989  0.7608  0.7608

 Free energy of the ion-electron system (eV)
  ---------------------------------------------------
  alpha Z        PSCENC =         0.07205883
  Ewald energy   TEWEN  =      2127.83943268
  -Hartree energ DENC   =     -3803.70832403
  -exchange      EXHF   =         0.00000000
  -V(xc)+E(xc)   XCENC  =       140.40805256
  PAW double counting   =      9677.03880314    -9697.62868839
  entropy T*S    EENTRO =        -0.00000000
  eigenvalues    EBANDS =      -511.69626102
  atomic energy  EATOM  =      2023.82507259
  Solvation  Ediel_sol  =         0.00000000
  ---------------------------------------------------
  free energy    TOTEN  =       -43.84985365 eV

  energy without entropy =      -43.84985365  energy(sigma->0) =      -43.84985365


--------------------------------------------------------------------------------------------------------




--------------------------------------- Iteration      1(  33)  ---------------------------------------


    POTLOK:  cpu time   12.6483: real time   12.6711
    SETDIJ:  cpu time    0.0404: real time    0.0404
     EDDAV:  cpu time   18.9899: real time   19.0279
       DOS:  cpu time    0.0002: real time    0.0002
    CHARGE:  cpu time    5.4368: real time    5.4456
    MIXING:  cpu time    0.6275: real time    0.6288
    --------------------------------------------
      LOOP:  cpu time   37.7432: real time   37.8140

 eigenvalue-minimisations  :   128
 total energy-change (2. order) :-0.2976158E-06  (-0.2841521E-08)
 number of electron      31.9999999 magnetization 
 augmentation part        5.3471897 magnetization 

 Broyden mixing:
  rms(total) = 0.33183E-05    rms(broyden)= 0.33183E-05
  rms(prec ) = 0.33667E-05
  weight for this iteration     100.00

 eigenvalues of (default mixing * dielectric matrix)
  average eigenvalue GAMMA=   2.0575
  9.7152  7.3070  5.4236  4.1152  2.7504  2.6054  2.6054  1.5020  1.5020  2.3342
  2.0733  1.5366  1.5366  0.9100  0.9100  0.6315  0.6315  1.0218  1.0218  0.8918
  0.8918  0.9350  0.9350  0.8043  0.8043  0.6988  0.7576  0.7576

 Free energy of the ion-electron system (eV)
  ---------------------------------------------------
  alpha Z        PSCENC =         0.07205883
  Ewald energy   TEWEN  =      2127.83943268
  -Hartree energ DENC   =     -3803.70828495
  -exchange      EXHF   =         0.00000000
  -V(xc)+E(xc)   XCENC  =       140.40805095
  PAW double counting   =      9677.04090736    -9697.63078999
  entropy T*S    EENTRO =        -0.00000000
  eigenvalues    EBANDS =      -511.69630142
  atomic energy  EATOM  =      2023.82507259
  Solvation  Ediel_sol  =         0.00000000
  ---------------------------------------------------
  free energy    TOTEN  =       -43.84985395 eV

  energy without entropy =      -43.84985395  energy(sigma->0) =      -43.84985395


--------------------------------------------------------------------------------------------------------




--------------------------------------- Iteration      1(  34)  ---------------------------------------


    POTLOK:  cpu time   12.7126: real time   12.7354
    SETDIJ:  cpu time    0.0402: real time    0.0402
     EDDAV:  cpu time   19.0217: real time   19.0596
       DOS:  cpu time    0.0027: real time    0.0027
    CHARGE:  cpu time    5.3043: real time    5.3127
    MIXING:  cpu time    0.6647: real time    0.6659
    --------------------------------------------
      LOOP:  cpu time   37.7461: real time   37.8166

 eigenvalue-minimisations  :   128
 total energy-change (2. order) :-0.1166227E-06  (-0.2693763E-08)
 number of electron      31.9999999 magnetization 
 augmentation part        5.3471898 magnetization 

 Broyden mixing:
  rms(total) = 0.72739E-05    rms(broyden)= 0.72739E-05
  rms(prec ) = 0.72844E-05
  weight for this iteration     100.00

 eigenvalues of (default mixing * dielectric matrix)
  average eigenvalue GAMMA=   2.0732
  9.7372  7.4691  5.6279  4.3368  2.7006  2.7006  2.7262  2.5779  2.2741  1.5020
  1.5020  1.7258  1.5670  1.1233  0.9640  0.9640  1.0557  0.6315  0.6315  0.8967
  0.8967  0.9082  0.9082  0.8057  0.8057  0.8588  0.6990  0.7665  0.7592

 Free energy of the ion-electron system (eV)
  ---------------------------------------------------
  alpha Z        PSCENC =         0.07205883
  Ewald energy   TEWEN  =      2127.83943268
  -Hartree energ DENC   =     -3803.70824347
  -exchange      EXHF   =         0.00000000
  -V(xc)+E(xc)   XCENC  =       140.40804944
  PAW double counting   =      9677.04201197    -9697.63189387
  entropy T*S    EENTRO =        -0.00000000
  eigenvalues    EBANDS =      -511.69634223
  atomic energy  EATOM  =      2023.82507259
  Solvation  Ediel_sol  =         0.00000000
  ---------------------------------------------------
  free energy    TOTEN  =       -43.84985406 eV

  energy without entropy =      -43.84985406  energy(sigma->0) =      -43.84985406


--------------------------------------------------------------------------------------------------------




--------------------------------------- Iteration      1(  35)  ---------------------------------------


    POTLOK:  cpu time   12.6176: real time   12.6395
    SETDIJ:  cpu time    0.0403: real time    0.0403
     EDDAV:  cpu time   18.9692: real time   19.0068
       DOS:  cpu time    0.0082: real time    0.0082
    --------------------------------------------
      LOOP:  cpu time   31.6353: real time   31.6948

 eigenvalue-minimisations  :   128
 total energy-change (2. order) :-0.9506948E-07  (-0.2449976E-08)
 number of electron      31.9999999 magnetization 
 augmentation part        5.3471898 magnetization 

 Free energy of the ion-electron system (eV)
  ---------------------------------------------------
  alpha Z        PSCENC =         0.07205883
  Ewald energy   TEWEN  =      2127.83943268
  -Hartree energ DENC   =     -3803.70820329
  -exchange      EXHF   =         0.00000000
  -V(xc)+E(xc)   XCENC  =       140.40804796
  PAW double counting   =      9677.04117052    -9697.63105229
  entropy T*S    EENTRO =        -0.00000000
  eigenvalues    EBANDS =      -511.69638116
  atomic energy  EATOM  =      2023.82507259
  Solvation  Ediel_sol  =         0.00000000
  ---------------------------------------------------
  free energy    TOTEN  =       -43.84985416 eV

  energy without entropy =      -43.84985416  energy(sigma->0) =      -43.84985416


--------------------------------------------------------------------------------------------------------




 average (electrostatic) potential at core
  the test charge radii are     0.8471  0.8742
  (the norm of the test charge is              1.0000)
       1 -89.3021       2 -88.6721       3 -93.2922       4 -93.1669       5 -92.5371
       6 -92.5387
 
 
 
 E-fermi :  -8.5867     XC(G=0):  -0.0382     alpha+bet : -0.0126


 k-point     1 :       0.0000    0.0000    0.0000
  band No.  band energies     occupation 
      1     -29.8250      2.00000
      2     -29.1747      2.00000
      3     -28.7312      2.00000
      4     -28.0929      2.00000
      5     -14.6082      2.00000
      6     -13.4048      2.00000
      7     -13.1243      2.00000
      8     -13.1188      2.00000
      9     -13.0960      2.00000
     10     -12.4709      2.00000
     11     -12.0826      2.00000
     12     -11.6071      2.00000
     13      -9.5775      2.00000
     14      -9.4613      2.00000
     15      -8.8194      2.00000
     16      -8.6536      2.00000
     17      -1.2914      0.00000
     18      -1.0596      0.00000
     19      -0.9758      0.00000
     20      -0.4880      0.00000
     21      -0.3631      0.00000
     22      -0.1606      0.00000
     23       0.0087      0.00000
     24       0.1074      0.00000
     25       0.1157      0.00000
     26       0.1246      0.00000
     27       0.1259      0.00000
     28       0.1331      0.00000
     29       0.1503      0.00000
     30       0.1980      0.00000
     31       0.2143      0.00000
     32       0.2469      0.00000


--------------------------------------------------------------------------------------------------------


 soft charge-density along one line, spin component            1
         0         1         2         3         4         5         6         7         8         9
 total charge-density along one line
 
 pseudopotential strength for first ion, spin component:            1
 20.441  24.061  -0.000   0.000   0.000  -0.000   0.000   0.000
 24.061  28.326  -0.000   0.000   0.000  -0.000   0.000   0.000
 -0.000  -0.000  -3.817  -0.000   0.000  -4.775  -0.000   0.000
  0.000   0.000  -0.000  -3.481  -0.000  -0.000  -4.320  -0.000
  0.000   0.000   0.000  -0.000  -3.481   0.000  -0.000  -4.321
 -0.000  -0.000  -4.775  -0.000   0.000  -5.906  -0.000   0.000
  0.000   0.000  -0.000  -4.320  -0.000  -0.000  -5.292  -0.000
  0.000   0.000   0.000  -0.000  -4.321   0.000  -0.000  -5.293
 total augmentation occupancy for first ion, spin component:            1
 27.122 -19.336   0.021   0.000  -0.000  -0.007   0.000   0.000
-19.336  14.402  -0.016  -0.000   0.000   0.002  -0.000   0.000
  0.021  -0.016  27.311   0.000  -0.000 -16.543  -0.000   0.000
  0.000  -0.000   0.000   5.698   0.000  -0.000  -2.560  -0.000
 -0.000   0.000  -0.000   0.000   5.701   0.000  -0.000  -2.566
 -0.007   0.002 -16.543  -0.000   0.000  10.173  -0.000  -0.000
  0.000  -0.000  -0.000  -2.560  -0.000  -0.000   1.151   0.000
  0.000   0.000   0.000  -0.000  -2.566  -0.000   0.000   1.155


------------------------ aborting loop because EDIFF is reached ----------------------------------------



 DIPCOR: dipole corrections for dipol
 direction  1 min pos   353, direction  2 min pos   386, direction  3 min pos   429,
 dipolmoment          -0.000053      0.102854      0.000136 electrons x Angstroem
 Tr[quadrupol]        17.563840

 energy correction for charged system         0.000000 eV
 dipol+quadrupol energy correction            0.000007 eV
 added-field ion interaction          0.000000 eV  (added to PSCEN)

 
  *************** adding dipol energy to TOTEN NOW **************** 
    CHARGE:  cpu time    5.4086: real time    5.4185
    FORLOC:  cpu time    0.4347: real time    0.4355
    FORNL :  cpu time    0.5465: real time    0.5476
    STRESS:  cpu time   10.1332: real time   10.1610
    FORHAR:  cpu time    3.2313: real time    3.2371
    MIXING:  cpu time    0.6870: real time    0.6883
    OFIELD:  cpu time    0.0001: real time    0.0001

  Hirshfeld charges:
            ion         q(e)     
   ------------------------------
      1     C           0.310
      2     C           0.275
      3     O          -0.121
      4     O          -0.139
      5     O          -0.163
      6     O          -0.163

  Hirshfeld-I charges:
            ion         q(e)        dq(e)    
   ------------------------------------------
      1     C           0.876     -0.108E-04
      2     C           0.889      0.404E-04
      3     O          -0.456      0.485E-05
      4     O          -0.420      0.552E-05
      5     O          -0.445     -0.200E-04
      6     O          -0.445     -0.200E-04

   Hirshfeld-I converged in  15 cycles. Convergence criterion |dq|< 0.500E-04 e

  Atomic reference data used in the T-S method for vdW correction:
            C6at              R0at           ALPHAat      REFSTATE
            (au)              (au)            (au)                
   ---------------------------------------------------------------
   C          46.600          3.590         12.000         0
   O          15.600          3.194          5.400         0

  Tkatchenko/Scheffler method for vdW energy calculation
  ---------------------------------------------------------------------------------------------

  Parameters of vdW forcefield:
            C6ts              R0ts           ALPHAts        RELVOL
            (au)              (au)            (au)                
   ---------------------------------------------------------------
   C           8.540          2.706          5.137          0.42808506
   C           8.612          2.710          5.159          0.42988346
   O          20.696          3.348          6.220          1.15180753
   O          18.367          3.282          5.859          1.08506853
   O          19.587          3.317          6.051          1.12052246
   O          19.580          3.317          6.050          1.12031615

  vdW correction parametrized for the method pbe       

  IVDW =  21
  VDW_RADIUS =    50.000 A
  VDW_IDAMPF =  0
  VDW_S6 =     1.000
  VDW_SR =     0.950
  VDW_D =    20.000
  LVDW_ONECELL = F F F
  LVDW_SAMETYPE T T
  LVDW_EWALD = F

  Number of pair interactions contributing to vdW energy:     321
  Edisp (eV):   -0.01328
    FORVDW:  cpu time   78.7524: real time   78.7997

  FORCE on cell =-STRESS in cart. coord.  units (eV):
  Direction    XX          YY          ZZ          XY          YZ          ZX
  --------------------------------------------------------------------------------------
  Alpha Z     0.07206     0.07206     0.07206
  Ewald    -200.50328  1601.28040   727.06311    -0.41979    -3.17319   -12.05169
  Hartree   686.46563  1933.89533  1183.34726    -0.38818    -0.48012    -6.44272
  E(xc)    -149.22600  -146.75464  -147.03188     0.00001    -0.01449    -0.02857
  Local   -1177.96680 -4149.01197 -2525.79479     0.81564     3.06221    17.49690
  n-local   117.56140   105.58812   105.65585    -0.00120     0.09027     0.15500
  augment   182.17467   173.45825   173.41356    -0.00111     0.07144     0.11408
  Kinetic   541.42013   492.29462   491.46207    -0.00655     0.41016     0.65039
  Fock        0.00000     0.00000     0.00000     0.00000     0.00000     0.00000
  vdW        -0.00000    -0.05222    -0.00115     0.00002    -0.00027     0.00001
  -------------------------------------------------------------------------------------
  Total      -0.00220    10.76995     8.18609    -0.00116    -0.03400    -0.10660
  in kB      -0.00008     0.40246     0.30590    -0.00004    -0.00127    -0.00398
  external pressure =        0.24 kB  Pullay stress =        0.00 kB


 VOLUME and BASIS-vectors are now :
 -----------------------------------------------------------------------------
  energy-cutoff  :     1000.00
  volume of cell :    42875.00
      direct lattice vectors                 reciprocal lattice vectors
    35.000000000  0.000000000  0.000000000     0.028571429  0.000000000  0.000000000
     0.000000000 35.000000000  0.000000000     0.000000000  0.028571429  0.000000000
     0.000000000  0.000000000 35.000000000     0.000000000  0.000000000  0.028571429

  length of vectors
    35.000000000 35.000000000 35.000000000     0.028571429  0.028571429  0.028571429


 FORCES acting on ions
    electron-ion (+dipol)            ewald-force                    non-local-force                 convergence-correction
 -----------------------------------------------------------------------------------------------
   -.300E-01 0.671E+02 0.220E+00   0.302E-01 -.676E+02 -.228E+00   -.166E-03 0.304E+00 0.579E-02   -.735E-07 -.332E-05 0.175E-07
   0.556E-01 -.100E+03 -.275E+00   -.557E-01 0.100E+03 0.281E+00   -.117E-03 0.185E+00 -.708E-03   -.205E-07 0.932E-06 0.392E-06
   -.136E+00 -.590E+02 0.105E+01   0.137E+00 0.143E+03 -.103E+01   -.518E-03 -.816E+02 -.248E-01   -.609E-07 0.611E-05 0.168E-06
   -.197E-01 0.319E+03 0.142E+00   0.197E-01 -.406E+03 -.143E+00   -.961E-04 0.833E+02 0.231E-02   0.110E-06 0.360E-05 -.688E-08
   0.410E+01 -.115E+03 -.311E+03   -.522E+01 0.113E+03 0.396E+03   0.107E+01 0.208E+01 -.820E+02   -.832E-07 0.146E-05 0.439E-05
   -.397E+01 -.118E+03 0.310E+03   0.509E+01 0.118E+03 -.395E+03   -.107E+01 0.793E+00 0.820E+02   0.459E-08 0.148E-05 -.320E-05
 -----------------------------------------------------------------------------------------------
   0.346E-02 -.510E+01 -.165E-01   0.888E-15 0.142E-13 0.114E-12   -.341E-02 0.510E+01 0.166E-01   -.123E-06 0.103E-04 0.176E-05
 
 
 POSITION                                       TOTAL-FORCE (eV/Angst)
 -----------------------------------------------------------------------------------
      0.00000      0.05699      0.00000         0.000059     -0.261442     -0.001782
     34.99851      3.52718      0.00754        -0.000293      0.374095      0.005637
      0.00000      1.22721      0.00000         0.000802      2.465849     -0.011408
      0.00000     33.88677      0.00000        -0.000035     -3.348302      0.000911
     34.98327      3.51833      1.17763        -0.045874      0.366650      3.503020
      0.01374      3.53603     33.83746         0.045341      0.403150     -3.496377
 -----------------------------------------------------------------------------------
    total drift:                                0.000043      0.000176      0.000149


--------------------------------------------------------------------------------------------------------



  FREE ENERGIE OF THE ION-ELECTRON SYSTEM (eV)
  ---------------------------------------------------
  free  energy   TOTEN  =       -43.86312525 eV

  energy  without entropy=      -43.86312525  energy(sigma->0) =      -43.86312525
 


--------------------------------------------------------------------------------------------------------


    POTLOK:  cpu time   13.8266: real time   13.8490


--------------------------------------------------------------------------------------------------------


 writing wavefunctions
     LOOP+:  cpu time 1556.2146: real time 1558.7843
    4ORBIT:  cpu time    0.0000: real time    0.0000

 total amount of memory used by VASP MPI-rank0  4007897. kBytes
=======================================================================

   base      :      30000. kBytes
   nonl-proj :     344787. kBytes
   fftplans  :     676185. kBytes
   grid      :    2932288. kBytes
   one-center:          9. kBytes
   wavefun   :      24628. kBytes
 
  
  
 General timing and accounting informations for this job:
 ========================================================
  
                  Total CPU time used (sec):     2693.415
                            User time (sec):     2508.532
                          System time (sec):      184.882
                         Elapsed time (sec):     2698.844
  
                   Maximum memory used (kb):     5454020.
                   Average memory used (kb):           0.
  
                          Minor page faults:     92302503
                          Major page faults:          988
                 Voluntary context switches:        13178
