
     Program PWSCF v.7.2 starts on 13Oct2023 at 14:16:39 

     This program is part of the open-source Quantum ESPRESSO suite
     for quantum simulation of materials; please cite
         "P. Giannozzi et al., J. Phys.:Condens. Matter 21 395502 (2009);
         "P. Giannozzi et al., J. Phys.:Condens. Matter 29 465901 (2017);
         "P. Giannozzi et al., J. Chem. Phys. 152 154105 (2020);
          URL http://www.quantum-espresso.org", 
     in publications or presentations arising from this work. More details at
     http://www.quantum-espresso.org/quote

     Parallel version (MPI), running on    32 processors

     MPI processes distributed on     1 nodes
     508789 MiB available memory on the printing compute node when the environment starts

     Reading input from water_water_45_efficiency_dimer.in
Warning: card &CELL ignored
Warning: card / ignored

     Current dimensions of program PWSCF are:
     Max number of different atomic species (ntypx) = 10
     Max number of k-points (npk) =  40000
     Max angular momentum in pseudopotentials (lmaxx) =  4
     file O.pbe-nl-kjpaw_psl.1.0.0.UPF: wavefunction(s)  2S 2P renormalized
     file H.pbe-kjpaw_psl.1.0.0.UPF: wavefunction(s)  1S renormalized

     IMPORTANT: XC functional enforced from input :
     Exchange-correlation= PBE
                           (   1   4   3   4   0   0   0)
     Any further DFT definition will be discarded
     Please, verify this is what you really want


     gamma-point specific algorithms are used

     R & G space division:  proc/nbgrp/npool/nimage =      32
     Subspace diagonalization in iterative solution of the eigenvalue problem:
     a serial algorithm will be used


     Parallelization info
     --------------------
     sticks:   dense  smooth     PW     G-vecs:    dense   smooth      PW
     Min        6395    6395   1598              2177048  2177048  272114
     Max        6398    6398   1600              2177062  2177062  272124
     Sum      204693  204693  51189             69665707 69665707 8707803

     Using Slab Decomposition



     bravais-lattice index     =            0
     lattice parameter (alat)  =      66.1404  a.u.
     unit-cell volume          =  289334.8415 (a.u.)^3
     number of atoms/cell      =            6
     number of atomic types    =            2
     number of electrons       =        16.00
     number of Kohn-Sham states=            8
     kinetic-energy cutoff     =     147.0000  Ry
     charge density cutoff     =     588.0000  Ry
     scf convergence threshold =      1.0E-08
     mixing beta               =       0.7000
     number of iterations used =            8  plain     mixing
     Exchange-correlation= PBE
                           (   1   4   3   4   0   0   0)

     celldm(1)=  66.140414  celldm(2)=   0.000000  celldm(3)=   0.000000
     celldm(4)=   0.000000  celldm(5)=   0.000000  celldm(6)=   0.000000

     crystal axes: (cart. coord. in units of alat)
               a(1) = (   1.000000   0.000000   0.000000 )  
               a(2) = (   0.000000   1.000000   0.000000 )  
               a(3) = (   0.000000   0.000000   1.000000 )  

     reciprocal axes: (cart. coord. in units 2 pi/alat)
               b(1) = (  1.000000  0.000000  0.000000 )  
               b(2) = (  0.000000  1.000000  0.000000 )  
               b(3) = (  0.000000  0.000000  1.000000 )  


     PseudoPot. # 1 for O  read from file:
     /home/users/klimj2am/src/pslibrary.1.0.0/pbe/PSEUDOPOTENTIALS/O.pbe-nl-kjpaw_psl.1.0.0.UPF
     MD5 check sum: 3be12c084656f77eefcab7bec6207024
     Pseudo is Projector augmented-wave + core cor, Zval =  6.0
     Generated using 'atomic' code by A. Dal Corso  v.7.2
     Shape of augmentation charge: PSQ
     Using radial grid of 1095 points,  4 beta functions with: 
                l(1) =   0
                l(2) =   0
                l(3) =   1
                l(4) =   1
     Q(r) pseudized with 0 coefficients 


     PseudoPot. # 2 for H  read from file:
     /home/users/klimj2am/src/pslibrary.1.0.0/pbe/PSEUDOPOTENTIALS/H.pbe-kjpaw_psl.1.0.0.UPF
     MD5 check sum: 220281c0717fd894cece6904c624ceaa
     Pseudo is Projector augmented-wave, Zval =  1.0
     Generated using 'atomic' code by A. Dal Corso  v.7.2
     Shape of augmentation charge: PSQ
     Using radial grid of  929 points,  2 beta functions with: 
                l(1) =   0
                l(2) =   0
     Q(r) pseudized with 0 coefficients 


     atomic species   valence    mass     pseudopotential
        O              6.00    15.99900     O ( 1.00)
        H              1.00     1.00800     H ( 1.00)

     No symmetry found



   Cartesian axes

     site n.     atom                  positions (alat units)
         1           O   tau(   1) = (   0.0000000  -0.0649370   0.0000000  )
         2           O   tau(   2) = (   0.0000000   0.0636345   0.0000000  )
         3           H   tau(   3) = (   0.0008487   0.0794679  -0.0224289  )
         4           H   tau(   4) = (   0.0003901   0.0815221   0.0208412  )
         5           H   tau(   5) = (   0.0005031  -0.0817010  -0.0217529  )
         6           H   tau(   6) = (  -0.0003822  -0.0819533   0.0215586  )

     number of k points=     1
                       cart. coord. in units 2pi/alat
        k(    1) = (   0.0000000   0.0000000   0.0000000), wk =   2.0000000

     Dense  grid: 34832854 G-vectors     FFT dimensions: ( 512, 512, 512)

     Estimated max dynamical RAM per process >       1.58 GB

     Estimated total dynamical RAM >      50.69 GB

     Initial potential from superposition of free atoms

     starting charge      16.0000, renormalised to      16.0000

     negative rho (up, down):  9.367E-04 0.000E+00
     Starting wfcs are   12 randomized atomic wfcs
     Checking if some PAW data can be deallocated... 

     total cpu time spent up to now is       37.2 secs

     Self-consistent Calculation

     iteration #  1     ecut=   147.00 Ry     beta= 0.70
     Davidson diagonalization with overlap
     ethr =  1.00E-02,  avg # of iterations =  2.0

     negative rho (up, down):  1.044E-03 0.000E+00

     total cpu time spent up to now is       47.6 secs

     total energy              =     -87.63576587 Ry
     estimated scf accuracy    <       0.99831788 Ry

     iteration #  2     ecut=   147.00 Ry     beta= 0.70
     Davidson diagonalization with overlap
     ethr =  6.24E-03,  avg # of iterations =  3.0

     negative rho (up, down):  8.744E-04 0.000E+00

     total cpu time spent up to now is       58.5 secs

     total energy              =     -87.89228734 Ry
     estimated scf accuracy    <       0.97838824 Ry

     iteration #  3     ecut=   147.00 Ry     beta= 0.70
     Davidson diagonalization with overlap
     ethr =  6.11E-03,  avg # of iterations =  2.0

     negative rho (up, down):  8.303E-04 0.000E+00

     total cpu time spent up to now is       68.4 secs

     total energy              =     -88.03243662 Ry
     estimated scf accuracy    <       0.04194842 Ry

     iteration #  4     ecut=   147.00 Ry     beta= 0.70
     Davidson diagonalization with overlap
     ethr =  2.62E-04,  avg # of iterations =  4.0

     negative rho (up, down):  8.631E-04 0.000E+00

     total cpu time spent up to now is       80.3 secs

     total energy              =     -88.07276000 Ry
     estimated scf accuracy    <       0.07027662 Ry

     iteration #  5     ecut=   147.00 Ry     beta= 0.70
     Davidson diagonalization with overlap
     ethr =  2.62E-04,  avg # of iterations =  2.0

     negative rho (up, down):  8.841E-04 0.000E+00

     total cpu time spent up to now is       90.1 secs

     total energy              =     -88.07134493 Ry
     estimated scf accuracy    <       0.01424541 Ry

     iteration #  6     ecut=   147.00 Ry     beta= 0.70
     Davidson diagonalization with overlap
     ethr =  8.90E-05,  avg # of iterations =  2.0

     negative rho (up, down):  9.066E-04 0.000E+00

     total cpu time spent up to now is      100.2 secs

     total energy              =     -88.07327645 Ry
     estimated scf accuracy    <       0.00066890 Ry

     iteration #  7     ecut=   147.00 Ry     beta= 0.70
     Davidson diagonalization with overlap
     ethr =  4.18E-06,  avg # of iterations =  4.0

     negative rho (up, down):  9.026E-04 0.000E+00

     total cpu time spent up to now is      112.0 secs

     total energy              =     -88.07399921 Ry
     estimated scf accuracy    <       0.00178019 Ry

     iteration #  8     ecut=   147.00 Ry     beta= 0.70
     Davidson diagonalization with overlap
     ethr =  4.18E-06,  avg # of iterations =  1.0

     negative rho (up, down):  9.003E-04 0.000E+00

     total cpu time spent up to now is      121.3 secs

     total energy              =     -88.07375117 Ry
     estimated scf accuracy    <       0.00084062 Ry

     iteration #  9     ecut=   147.00 Ry     beta= 0.70
     Davidson diagonalization with overlap
     ethr =  4.18E-06,  avg # of iterations =  2.0

     negative rho (up, down):  8.975E-04 0.000E+00

     total cpu time spent up to now is      131.6 secs

     total energy              =     -88.07384216 Ry
     estimated scf accuracy    <       0.00005460 Ry

     iteration # 10     ecut=   147.00 Ry     beta= 0.70
     Davidson diagonalization with overlap
     ethr =  3.41E-07,  avg # of iterations =  2.0

     negative rho (up, down):  8.968E-04 0.000E+00

     total cpu time spent up to now is      141.9 secs

     total energy              =     -88.07384995 Ry
     estimated scf accuracy    <       0.00000483 Ry

     iteration # 11     ecut=   147.00 Ry     beta= 0.70
     Davidson diagonalization with overlap
     ethr =  3.02E-08,  avg # of iterations =  3.0

     negative rho (up, down):  8.974E-04 0.000E+00

     total cpu time spent up to now is      153.2 secs

     total energy              =     -88.07385268 Ry
     estimated scf accuracy    <       0.00000093 Ry

     iteration # 12     ecut=   147.00 Ry     beta= 0.70
     Davidson diagonalization with overlap
     ethr =  5.82E-09,  avg # of iterations =  2.0

     negative rho (up, down):  8.971E-04 0.000E+00

     total cpu time spent up to now is      163.5 secs

     total energy              =     -88.07385287 Ry
     estimated scf accuracy    <       0.00000010 Ry

     iteration # 13     ecut=   147.00 Ry     beta= 0.70
     Davidson diagonalization with overlap
     ethr =  6.36E-10,  avg # of iterations =  1.0

     negative rho (up, down):  8.969E-04 0.000E+00

     total cpu time spent up to now is      172.9 secs

     total energy              =     -88.07385286 Ry
     estimated scf accuracy    <       0.00000003 Ry

     iteration # 14     ecut=   147.00 Ry     beta= 0.70
     Davidson diagonalization with overlap
     ethr =  2.06E-10,  avg # of iterations =  2.0

     negative rho (up, down):  8.967E-04 0.000E+00

     total cpu time spent up to now is      182.2 secs

     End of self-consistent calculation

          k = 0.0000 0.0000 0.0000 (****** PWs)   bands (ev):

   -25.1955 -25.1948 -12.9411 -12.9397  -9.0909  -9.0472  -7.0241  -7.0159

     highest occupied level (ev):    -7.0159

!    total energy              =     -88.07385287 Ry
     total all-electron energy =      -305.767626 Ry
     estimated scf accuracy    <          5.5E-09 Ry

     The total energy is the sum of the following terms:
     one-electron contribution =    -171.25756873 Ry
     hartree contribution      =      89.05312131 Ry
     xc contribution           =     -17.74076021 Ry
     ewald contribution        =      31.05094710 Ry
     one-center paw contrib.   =     -19.17959234 Ry

     charge density inside the Wigner-Seitz cell:   16.00000000

     reference position (x0):         0.00562023   -0.04331956   -0.00736655 bohr

     Dipole moments (with respect to x0):
     Elect   0.0286  -0.0013  -0.0370 au (Ha),   0.0726  -0.0033  -0.0941 Debye
     Ionic  -0.0000  -0.0000   0.0000 au (Ha),  -0.0000  -0.0000   0.0000 Debye
     Total   0.0286  -0.0013  -0.0370 au (Ha),   0.0726  -0.0033  -0.0941 Debye

     Electrons quadrupole moment       -356.00028437 a.u. (Ha)
          Ions quadrupole moment        340.42259279 a.u. (Ha)
         Total quadrupole moment        -15.57769158 a.u. (Ha)

     *********    MAKOV-PAYNE CORRECTION    *********

     Makov-Payne correction with Madelung constant =   2.8373

     Makov-Payne correction     0.00000000 Ry =  0.000 eV (1st order, 1/a0)
                                0.00000003 Ry =  0.000 eV (2nd order, 1/a0^3)
                                0.00000003 Ry =  0.000 eV (total)

!    Total+Makov-Payne energy  =     -88.07385284 Ry
     Corrected vacuum level    =       0.00304285 eV

     convergence has been achieved in  14 iterations

     Writing all to output data dir ./pwscf.save/

     init_run     :     34.28s CPU     36.65s WALL (       1 calls)
     electrons    :    128.33s CPU    147.74s WALL (       1 calls)

     Called by init_run:
     wfcinit      :      1.58s CPU      1.79s WALL (       1 calls)
     potinit      :      3.66s CPU      4.48s WALL (       1 calls)
     hinit0       :      4.90s CPU      5.26s WALL (       1 calls)

     Called by electrons:
     c_bands      :     44.95s CPU     47.38s WALL (      14 calls)
     sum_band     :     30.16s CPU     35.27s WALL (      14 calls)
     v_of_rho     :     30.59s CPU     37.48s WALL (      15 calls)
     newd         :     13.75s CPU     17.92s WALL (      15 calls)
     PAW_pot      :      0.13s CPU      0.18s WALL (      15 calls)
     mix_rho      :      9.14s CPU      9.70s WALL (      14 calls)

     Called by c_bands:
     init_us_2    :      0.71s CPU      0.74s WALL (      29 calls)
     init_us_2:cp :      0.71s CPU      0.74s WALL (      29 calls)
     regterg      :     44.01s CPU     46.41s WALL (      14 calls)

     Called by *egterg:
     rdiaghg      :      0.01s CPU      0.02s WALL (      46 calls)
     h_psi        :     39.95s CPU     42.45s WALL (      47 calls)
     s_psi        :      0.98s CPU      0.99s WALL (      47 calls)
     g_psi        :      0.15s CPU      0.15s WALL (      32 calls)

     Called by h_psi:
     h_psi:calbec :      0.81s CPU      0.82s WALL (      47 calls)
     vloc_psi     :     37.84s CPU     40.32s WALL (      47 calls)
     add_vuspsi   :      0.99s CPU      0.99s WALL (      47 calls)

     General routines
     calbec       :      1.00s CPU      1.03s WALL (      61 calls)
     fft          :     25.25s CPU     30.42s WALL (     135 calls)
     ffts         :      2.24s CPU      2.70s WALL (      14 calls)
     fftw         :     34.97s CPU     37.76s WALL (     406 calls)

     Parallel routines

     PWSCF        :   2m44.66s CPU   3m 8.75s WALL


   This run was terminated on:  14:19:48  13Oct2023            

=------------------------------------------------------------------------------=
   JOB DONE.
=------------------------------------------------------------------------------=
