
     Program PWSCF v.7.2 starts on 13Oct2023 at 14:13:15 

     This program is part of the open-source Quantum ESPRESSO suite
     for quantum simulation of materials; please cite
         "P. Giannozzi et al., J. Phys.:Condens. Matter 21 395502 (2009);
         "P. Giannozzi et al., J. Phys.:Condens. Matter 29 465901 (2017);
         "P. Giannozzi et al., J. Chem. Phys. 152 154105 (2020);
          URL http://www.quantum-espresso.org", 
     in publications or presentations arising from this work. More details at
     http://www.quantum-espresso.org/quote

     Parallel version (MPI), running on    32 processors

     MPI processes distributed on     1 nodes
     246190 MiB available memory on the printing compute node when the environment starts

     Reading input from water_water_33_efficiency_dimer.in
Warning: card &CELL ignored
Warning: card / ignored

     Current dimensions of program PWSCF are:
     Max number of different atomic species (ntypx) = 10
     Max number of k-points (npk) =  40000
     Max angular momentum in pseudopotentials (lmaxx) =  4
     file O.pbe-nl-kjpaw_psl.1.0.0.UPF: wavefunction(s)  2S 2P renormalized
     file H.pbe-kjpaw_psl.1.0.0.UPF: wavefunction(s)  1S renormalized

     IMPORTANT: XC functional enforced from input :
     Exchange-correlation= PBE
                           (   1   4   3   4   0   0   0)
     Any further DFT definition will be discarded
     Please, verify this is what you really want


     gamma-point specific algorithms are used

     R & G space division:  proc/nbgrp/npool/nimage =      32
     Subspace diagonalization in iterative solution of the eigenvalue problem:
     a serial algorithm will be used


     Parallelization info
     --------------------
     sticks:   dense  smooth     PW     G-vecs:    dense   smooth      PW
     Min        6395    6395   1598              2177048  2177048  272114
     Max        6398    6398   1600              2177062  2177062  272124
     Sum      204693  204693  51189             69665707 69665707 8707803

     Using Slab Decomposition



     bravais-lattice index     =            0
     lattice parameter (alat)  =      66.1404  a.u.
     unit-cell volume          =  289334.8415 (a.u.)^3
     number of atoms/cell      =            6
     number of atomic types    =            2
     number of electrons       =        16.00
     number of Kohn-Sham states=            8
     kinetic-energy cutoff     =     147.0000  Ry
     charge density cutoff     =     588.0000  Ry
     scf convergence threshold =      1.0E-08
     mixing beta               =       0.7000
     number of iterations used =            8  plain     mixing
     Exchange-correlation= PBE
                           (   1   4   3   4   0   0   0)

     celldm(1)=  66.140414  celldm(2)=   0.000000  celldm(3)=   0.000000
     celldm(4)=   0.000000  celldm(5)=   0.000000  celldm(6)=   0.000000

     crystal axes: (cart. coord. in units of alat)
               a(1) = (   1.000000   0.000000   0.000000 )  
               a(2) = (   0.000000   1.000000   0.000000 )  
               a(3) = (   0.000000   0.000000   1.000000 )  

     reciprocal axes: (cart. coord. in units 2 pi/alat)
               b(1) = (  1.000000  0.000000  0.000000 )  
               b(2) = (  0.000000  1.000000  0.000000 )  
               b(3) = (  0.000000  0.000000  1.000000 )  


     PseudoPot. # 1 for O  read from file:
     /home/users/klimj2am/src/pslibrary.1.0.0/pbe/PSEUDOPOTENTIALS/O.pbe-nl-kjpaw_psl.1.0.0.UPF
     MD5 check sum: 3be12c084656f77eefcab7bec6207024
     Pseudo is Projector augmented-wave + core cor, Zval =  6.0
     Generated using 'atomic' code by A. Dal Corso  v.7.2
     Shape of augmentation charge: PSQ
     Using radial grid of 1095 points,  4 beta functions with: 
                l(1) =   0
                l(2) =   0
                l(3) =   1
                l(4) =   1
     Q(r) pseudized with 0 coefficients 


     PseudoPot. # 2 for H  read from file:
     /home/users/klimj2am/src/pslibrary.1.0.0/pbe/PSEUDOPOTENTIALS/H.pbe-kjpaw_psl.1.0.0.UPF
     MD5 check sum: 220281c0717fd894cece6904c624ceaa
     Pseudo is Projector augmented-wave, Zval =  1.0
     Generated using 'atomic' code by A. Dal Corso  v.7.2
     Shape of augmentation charge: PSQ
     Using radial grid of  929 points,  2 beta functions with: 
                l(1) =   0
                l(2) =   0
     Q(r) pseudized with 0 coefficients 


     atomic species   valence    mass     pseudopotential
        O              6.00    15.99900     O ( 1.00)
        H              1.00     1.00800     H ( 1.00)

     No symmetry found



   Cartesian axes

     site n.     atom                  positions (alat units)
         1           O   tau(   1) = (   0.0000000  -0.0306513   0.0000000  )
         2           O   tau(   2) = (   0.0000000   0.0636345   0.0000000  )
         3           H   tau(   3) = (   0.0008487   0.0794679  -0.0224289  )
         4           H   tau(   4) = (   0.0003901   0.0815221   0.0208412  )
         5           H   tau(   5) = (   0.0005031  -0.0474153  -0.0217529  )
         6           H   tau(   6) = (  -0.0003822  -0.0476676   0.0215586  )

     number of k points=     1
                       cart. coord. in units 2pi/alat
        k(    1) = (   0.0000000   0.0000000   0.0000000), wk =   2.0000000

     Dense  grid: 34832854 G-vectors     FFT dimensions: ( 512, 512, 512)

     Estimated max dynamical RAM per process >       1.58 GB

     Estimated total dynamical RAM >      50.69 GB

     Initial potential from superposition of free atoms

     starting charge      16.0000, renormalised to      16.0000

     negative rho (up, down):  9.347E-04 0.000E+00
     Starting wfcs are   12 randomized atomic wfcs
     Checking if some PAW data can be deallocated... 

     total cpu time spent up to now is       40.2 secs

     Self-consistent Calculation

     iteration #  1     ecut=   147.00 Ry     beta= 0.70
     Davidson diagonalization with overlap
     ethr =  1.00E-02,  avg # of iterations =  2.0

     negative rho (up, down):  1.042E-03 0.000E+00

     total cpu time spent up to now is       51.2 secs

     total energy              =     -87.62650065 Ry
     estimated scf accuracy    <       1.00877764 Ry

     iteration #  2     ecut=   147.00 Ry     beta= 0.70
     Davidson diagonalization with overlap
     ethr =  6.30E-03,  avg # of iterations =  3.0

     negative rho (up, down):  8.743E-04 0.000E+00

     total cpu time spent up to now is       62.8 secs

     total energy              =     -87.88387230 Ry
     estimated scf accuracy    <       1.00562500 Ry

     iteration #  3     ecut=   147.00 Ry     beta= 0.70
     Davidson diagonalization with overlap
     ethr =  6.29E-03,  avg # of iterations =  2.0

     negative rho (up, down):  8.317E-04 0.000E+00

     total cpu time spent up to now is       73.2 secs

     total energy              =     -88.02688299 Ry
     estimated scf accuracy    <       0.04372182 Ry

     iteration #  4     ecut=   147.00 Ry     beta= 0.70
     Davidson diagonalization with overlap
     ethr =  2.73E-04,  avg # of iterations =  4.0

     negative rho (up, down):  8.639E-04 0.000E+00

     total cpu time spent up to now is       85.9 secs

     total energy              =     -88.06928090 Ry
     estimated scf accuracy    <       0.07525965 Ry

     iteration #  5     ecut=   147.00 Ry     beta= 0.70
     Davidson diagonalization with overlap
     ethr =  2.73E-04,  avg # of iterations =  2.0

     negative rho (up, down):  8.846E-04 0.000E+00

     total cpu time spent up to now is       96.2 secs

     total energy              =     -88.06765869 Ry
     estimated scf accuracy    <       0.01549425 Ry

     iteration #  6     ecut=   147.00 Ry     beta= 0.70
     Davidson diagonalization with overlap
     ethr =  9.68E-05,  avg # of iterations =  2.0

     negative rho (up, down):  9.073E-04 0.000E+00

     total cpu time spent up to now is      106.8 secs

     total energy              =     -88.06967960 Ry
     estimated scf accuracy    <       0.00077822 Ry

     iteration #  7     ecut=   147.00 Ry     beta= 0.70
     Davidson diagonalization with overlap
     ethr =  4.86E-06,  avg # of iterations =  4.0

     negative rho (up, down):  9.029E-04 0.000E+00

     total cpu time spent up to now is      119.3 secs

     total energy              =     -88.07045332 Ry
     estimated scf accuracy    <       0.00186041 Ry

     iteration #  8     ecut=   147.00 Ry     beta= 0.70
     Davidson diagonalization with overlap
     ethr =  4.86E-06,  avg # of iterations =  1.0

     negative rho (up, down):  9.010E-04 0.000E+00

     total cpu time spent up to now is      129.2 secs

     total energy              =     -88.07020174 Ry
     estimated scf accuracy    <       0.00081161 Ry

     iteration #  9     ecut=   147.00 Ry     beta= 0.70
     Davidson diagonalization with overlap
     ethr =  4.86E-06,  avg # of iterations =  2.0

     negative rho (up, down):  8.986E-04 0.000E+00

     total cpu time spent up to now is      140.0 secs

     total energy              =     -88.07032632 Ry
     estimated scf accuracy    <       0.00002582 Ry

     iteration # 10     ecut=   147.00 Ry     beta= 0.70
     Davidson diagonalization with overlap
     ethr =  1.61E-07,  avg # of iterations =  2.0

     negative rho (up, down):  8.978E-04 0.000E+00

     total cpu time spent up to now is      151.1 secs

     total energy              =     -88.07032977 Ry
     estimated scf accuracy    <       0.00000319 Ry

     iteration # 11     ecut=   147.00 Ry     beta= 0.70
     Davidson diagonalization with overlap
     ethr =  2.00E-08,  avg # of iterations =  4.0

     negative rho (up, down):  8.984E-04 0.000E+00

     total cpu time spent up to now is      163.3 secs

     total energy              =     -88.07033137 Ry
     estimated scf accuracy    <       0.00000160 Ry

     iteration # 12     ecut=   147.00 Ry     beta= 0.70
     Davidson diagonalization with overlap
     ethr =  9.98E-09,  avg # of iterations =  2.0

     negative rho (up, down):  8.980E-04 0.000E+00

     total cpu time spent up to now is      174.1 secs

     total energy              =     -88.07033173 Ry
     estimated scf accuracy    <       0.00000010 Ry

     iteration # 13     ecut=   147.00 Ry     beta= 0.70
     Davidson diagonalization with overlap
     ethr =  6.49E-10,  avg # of iterations =  1.0

     negative rho (up, down):  8.978E-04 0.000E+00

     total cpu time spent up to now is      183.9 secs

     total energy              =     -88.07033172 Ry
     estimated scf accuracy    <       0.00000003 Ry

     iteration # 14     ecut=   147.00 Ry     beta= 0.70
     Davidson diagonalization with overlap
     ethr =  2.04E-10,  avg # of iterations =  2.0

     negative rho (up, down):  8.976E-04 0.000E+00

     total cpu time spent up to now is      193.3 secs

     End of self-consistent calculation

          k = 0.0000 0.0000 0.0000 (****** PWs)   bands (ev):

   -25.0558 -25.0401 -12.8072 -12.7878  -9.0659  -8.7050  -6.9033  -6.8324

     highest occupied level (ev):    -6.8324

!    total energy              =     -88.07033173 Ry
     total all-electron energy =      -305.764104 Ry
     estimated scf accuracy    <          3.8E-09 Ry

     The total energy is the sum of the following terms:
     one-electron contribution =    -180.84336378 Ry
     hartree contribution      =      93.93865585 Ry
     xc contribution           =     -17.74070386 Ry
     ewald contribution        =      35.75521729 Ry
     one-center paw contrib.   =     -19.18013722 Ry

     charge density inside the Wigner-Seitz cell:   16.00000000

     reference position (x0):         0.00562023    1.09051612   -0.00736655 bohr

     Dipole moments (with respect to x0):
     Elect   0.0283  -0.0013  -0.0359 au (Ha),   0.0720  -0.0034  -0.0912 Debye
     Ionic  -0.0000   0.0000   0.0000 au (Ha),  -0.0000   0.0000   0.0000 Debye
     Total   0.0283  -0.0013  -0.0359 au (Ha),   0.0720  -0.0034  -0.0912 Debye

     Electrons quadrupole moment       -215.70756518 a.u. (Ha)
          Ions quadrupole moment        196.59772757 a.u. (Ha)
         Total quadrupole moment        -19.10983761 a.u. (Ha)

     *********    MAKOV-PAYNE CORRECTION    *********

     Makov-Payne correction with Madelung constant =   2.8373

     Makov-Payne correction     0.00000000 Ry =  0.000 eV (1st order, 1/a0)
                                0.00000003 Ry =  0.000 eV (2nd order, 1/a0^3)
                                0.00000003 Ry =  0.000 eV (total)

!    Total+Makov-Payne energy  =     -88.07033170 Ry
     Corrected vacuum level    =       0.00375601 eV

     convergence has been achieved in  14 iterations

     Writing all to output data dir ./pwscf.save/

     init_run     :     37.44s CPU     39.66s WALL (       1 calls)
     electrons    :    135.40s CPU    155.90s WALL (       1 calls)

     Called by init_run:
     wfcinit      :      1.64s CPU      1.87s WALL (       1 calls)
     potinit      :      3.85s CPU      4.68s WALL (       1 calls)
     hinit0       :      2.94s CPU      3.25s WALL (       1 calls)

     Called by electrons:
     c_bands      :     47.68s CPU     50.40s WALL (      14 calls)
     sum_band     :     32.35s CPU     37.57s WALL (      14 calls)
     v_of_rho     :     31.87s CPU     39.09s WALL (      15 calls)
     newd         :     14.04s CPU     18.44s WALL (      15 calls)
     PAW_pot      :      0.19s CPU      0.22s WALL (      15 calls)
     mix_rho      :      9.76s CPU     10.42s WALL (      14 calls)

     Called by c_bands:
     init_us_2    :      0.71s CPU      0.76s WALL (      29 calls)
     init_us_2:cp :      0.71s CPU      0.76s WALL (      29 calls)
     regterg      :     46.71s CPU     49.39s WALL (      14 calls)

     Called by *egterg:
     rdiaghg      :      0.01s CPU      0.02s WALL (      47 calls)
     h_psi        :     42.25s CPU     45.03s WALL (      48 calls)
     s_psi        :      1.05s CPU      1.05s WALL (      48 calls)
     g_psi        :      0.15s CPU      0.15s WALL (      33 calls)

     Called by h_psi:
     h_psi:calbec :      0.87s CPU      0.88s WALL (      48 calls)
     vloc_psi     :     40.03s CPU     42.78s WALL (      48 calls)
     add_vuspsi   :      1.05s CPU      1.05s WALL (      48 calls)

     General routines
     calbec       :      1.10s CPU      1.12s WALL (      62 calls)
     fft          :     26.82s CPU     32.21s WALL (     135 calls)
     ffts         :      2.31s CPU      2.80s WALL (      14 calls)
     fftw         :     36.94s CPU     39.93s WALL (     406 calls)

     Parallel routines

     PWSCF        :   2m54.99s CPU   3m20.12s WALL


   This run was terminated on:  14:16:35  13Oct2023            

=------------------------------------------------------------------------------=
   JOB DONE.
=------------------------------------------------------------------------------=
