
 Primary working directories    : /scratch/sirous/550537/molpro.9Q9kGr9Lq2
 Secondary working directories  : /scratch/sirous/550537/molpro.9Q9kGr9Lq2
 Wavefunction directory         : /scratch/sirous/550537/
 Main file repository           : /scratch/sirous/550537/molpro.9Q9kGr9Lq2/

 id        : karlovklimes

 Nodes                      nprocs
 nc-02.cc.karlov.mff.cuni.cz   12

 Using customized tuning parameters: mindgm=1; mindgv=20; mindgc=4; mindgr=1; noblas=0; minvec=7
 default implementation of scratch files=sf  


 Variables initialized (934), CPU time= 0.05 sec
 ***,CH3C6H4CN+CF3CN+BF3
 memory,500,m
 gdirect
 gthresh,energy=1.d-8,twoint=1.d-19,oneint=1.d-19,zero=1.d-15,orbital=1.d-8,grid=1.d-8
 symmetry,nosym
 geomtyp=xyz
                                                                                 ! Geometry
 geometry={
 C1        0.000000000    -0.000140000     1.859161000
 H1        -0.888551000    0.513060000     1.494685000
 H2        0.888551000    0.513060000     1.494685000
 H3        0.000000000    -1.026339000     1.494868000
 H4        0.000000000    0.000089000     2.948284000
 C2        0.000000000    0.000140000     -1.859161000
 H5        0.000000000    -0.000089000     -2.948284000
 H6        -0.888551000    -0.513060000     -1.494685000
 H7        0.888551000    -0.513060000     -1.494685000
 H8        0.000000000    1.026339000     -1.494868000
 }
 
 
 
 basis=avdz
 
 
 
                                                                                 ! Dimer Calculation
 {rhf,accu=1.d-8;orbital,2101.2}
 eab_HF=energy
 
 
                                                                                 !monomer A
 dummy,6,7,8,9,10;                                                               ! NOW MONOMER B IS DUMMY
 {rhf,accu=1.d-8;orbital,2201.2}
 ea_HF=energy
                                                                                 !monomer B
 dummy,1,2,3,4,5;                                                                !NOW MONOMER A IS DUMMY
 {rhf,accu=1.d-8;orbital,2301.2}
 eb_HF=energy
 
 E_AB_int=eab_HF-ea_HF-eb_HF
 
 
 text,results in hartree
 show,E_AB_int
 
 Commands  initialized (763), CPU time= 0.02 sec, 617 directives.
 Default parameters read. Elapsed time= 0.21 sec

 Checking input...
 Passed
1


                                         ***  PROGRAM SYSTEM MOLPRO  ***
                                       Copyright, TTI GmbH Stuttgart, 2015
                                    Version 2019.2 linked Jun  8 2019 11:26:33


 **********************************************************************************************************************************
 LABEL *   CH3C6H4CN+CF3CN+BF3                                                           
  64 bit mpp version                                                                     DATE: 24-Apr-20          TIME: 10:26:15  
 **********************************************************************************************************************************

 SHA1:             8135a10abc80eafa5b3ae28ffc55be4890dc4c84
 **********************************************************************************************************************************

 THRESHOLDS:

 ZERO    =  1.00D-15  ONEINT  =  1.00D-19  TWOINT  =  1.00D-19  PREFAC  =  1.00D-14  XXXXXX  =  1.00D-09  EORDER  =  1.00D-04
 ENERGY  =  1.00D-08  ETEST   =  0.00D+00  EDENS   =  0.00D+00  THRDEDEF=  1.00D-06  GRADIENT=  1.00D-02  STEP    =  1.00D-03
 ORBITAL =  1.00D-08  CIVEC   =  1.00D-05  COEFF   =  1.00D-04  PRINTCI =  5.00D-02  PUNCHCI =  9.90D+01  OPTGRAD =  3.00D-04
 OPTENERG=  1.00D-06  OPTSTEP =  3.00D-04  THRGRAD =  1.00D-10  COMPRESS=  1.00D-11  VARMIN  =  1.00D-07  VARMAX  =  1.00D-03
 THRDOUB =  0.00D+00  THRDIV  =  1.00D-05  THRRED  =  1.00D-07  THRPSP  =  1.00D+00  THRDC   =  1.00D-10  THRCS   =  1.00D-10
 THRNRM  =  1.00D-08  THREQ   =  0.00D+00  THRDE   =  1.00D+00  THRREF  =  1.00D-05  SPARFAC =  1.00D+00  THRDLP  =  1.00D-07
 THRDIA  =  1.00D-10  THRDLS  =  1.00D-07  THRGPS  =  0.00D+00  THRKEX  =  0.00D+00  THRDIS  =  2.00D-01  THRVAR  =  1.00D-10
 THRLOC  =  1.00D-06  THRGAP  =  1.00D-06  THRLOCT = -1.00D+00  THRGAPT = -1.00D+00  THRORB  =  1.00D-06  THRMLTP =  0.00D+00
 THRCPQCI=  1.00D-10  KEXTA   =  0.00D+00  THRCOARS=  0.00D+00  SYMTOL  =  1.00D-06  GRADTOL =  1.00D-06  THROVL  =  1.00D-08
 THRORTH =  1.00D-08  GRID    =  1.00D-08  GRIDMAX =  1.00D-03  DTMAX   =  0.00D+00  THROCCDE=  1.00D-01  THROCCDE=  1.00D-01
 THRPRINT=  2.50D-01


 Variable memory set to  500000000 words,  buffer space 

 SETTING GEOMTYP        =    XYZ
 ZSYMEL=NOSYM

 SETTING BASIS          =    AVDZ


 Recomputing integrals since basis changed


 Using spherical harmonics

 Library entry C      S aug-cc-pVDZ          selected for orbital group  1
 Library entry C      P aug-cc-pVDZ          selected for orbital group  1
 Library entry C      D aug-cc-pVDZ          selected for orbital group  1
 Library entry H      S aug-cc-pVDZ          selected for orbital group  2
 Library entry H      P aug-cc-pVDZ          selected for orbital group  2


 PROGRAM * SEWARD (Integral evaluation for generally contracted gaussian basis sets)     Author: Roland Lindh, 1990

 Geometry written to block  1 of record 700


 Point group  C1  



 ATOMIC COORDINATES

 NR  ATOM    CHARGE       X              Y              Z

   1  C1      6.00    0.000000000   -0.000264562    3.513305111
   2  H1      1.00   -1.679118038    0.969542885    2.824545292
   3  H2      1.00    1.679118038    0.969542885    2.824545292
   4  H3      1.00    0.000000000   -1.939499621    2.824891112
   5  H4      1.00    0.000000000    0.000168186    5.571449297
   6  C2      6.00    0.000000000    0.000264562   -3.513305111
   7  H5      1.00    0.000000000   -0.000168186   -5.571449297
   8  H6      1.00   -1.679118038   -0.969542885   -2.824545292
   9  H7      1.00    1.679118038   -0.969542885   -2.824545292
  10  H8      1.00    0.000000000    1.939499621   -2.824891112

 Bond lengths in Bohr (Angstrom)

 1-2  2.057754591  1-3  2.057754591  1-4  2.057801363  1-5  2.058144231  6-7  2.058144231
     ( 1.088916835)     ( 1.088916835)     ( 1.088941586)     ( 1.089123024)     ( 1.089123024)

  6- 8  2.057754591   6- 9  2.057754591   6-10  2.057801363
       ( 1.088916835)       ( 1.088916835)       ( 1.088941586)

 Bond angles

  2-1-3  109.37178461   2-1-4  109.40018547   2-1-5  109.54913801   3-1-4  109.40018547

  3-1-5  109.54913801   4-1-5  109.55653032   7-6-8  109.54913801   7-6-9  109.54913801

  7- 6-10  109.55653032   8- 6- 9  109.37178461   8- 6-10  109.40018547   9- 6-10  109.40018547

 NUCLEAR CHARGE:                   20
 NUMBER OF PRIMITIVE AOS:         162
 NUMBER OF SYMMETRY AOS:          158
 NUMBER OF CONTRACTIONS:          118   (  118A   )
 NUMBER OF CORE ORBITALS:           2   (    2A   )
 NUMBER OF VALENCE ORBITALS:       16   (   16A   )


 NUCLEAR REPULSION ENERGY   41.00026398


 Eigenvalues of metric

         1 0.379E-03 0.578E-03 0.579E-03 0.631E-03 0.752E-03 0.752E-03 0.785E-03 0.101E-02


 OPERATOR DM      FOR CENTER  0  COORDINATES:    0.000000    0.000000    0.000000


 **********************************************************************************************************************************
 DATASETS  * FILE   NREC   LENGTH (MB)   RECORD NAMES
              1      18       30.64       500      610      700      900      950      970     1000      129      960     1100   
                                          VAR    BASINP    GEOM    SYMINP    ZMAT    AOBASIS   BASIS     P2S    ABASIS      S 
                                         1400     1410     1200     1210     1080     1600     1650     1700   
                                           T        V       H0       H01     AOSYM     SMH    MOLCAS    OPER   

 PROGRAMS   *        TOTAL       INT
 CPU TIMES  *         0.68      0.45
 REAL TIME  *         1.41 SEC
 DISK USED  *        31.08 MB (local),      372.98 MB (total)
 GA USED    *         0.00 MB       (max)       0.00 MB       (current)
 **********************************************************************************************************************************


 PROGRAM * RHF-SCF (CLOSED SHELL)       Authors: W. Meyer, H.-J. Werner


 NUMBER OF ELECTRONS:      10+   10-    SPACE SYMMETRY=1    SPIN SYMMETRY: Singlet 
 CONVERGENCE THRESHOLDS:    1.00E-04 (Density)    1.00E-09 (Energy)
 INTEGRAL THRESHOLDS:       1.00E-11 (Initial)    1.00E-11 (Final)
 MAX. NUMBER OF ITERATIONS:       60
 INTERPOLATION TYPE:            DIIS
 INTERPOLATION STEPS:              2 (START)      1 (STEP)
 LEVEL SHIFTS:                  0.00 (CLOSED)  0.00 (OPEN) 



 Orbital guess generated from atomic densities. Full valence occupancy:   18

 Molecular orbital dump at record        2101.2

 Initial occupancy:  10

 Direct Fock-matrix evaluation.        Authors: Roland Lindh & Martin Schuetz (1993/96)

 Integral Threshold:                  0.1D-10
 Threshold for writing integrals:     0.1D-06
 Prescreening on density matrix:        ON 
 Calculation will be performed fully direct        

 ITERATION   DDIFF            GRAD            ENERGY        2-EL.EN.            DIPOLE MOMENTS         DIIS   CPU(IT)  CPU(TOT)
    1      0.000D+00      0.000D+00       -80.36252885    134.104473    0.00000    0.00000    0.00000    0      2.6      5.3     start
    2      0.000D+00      0.469D-02       -80.39441929    131.796361   -0.00000   -0.00000    0.00000    1      1.4      6.7     diag
    3      0.812D-02      0.175D-02       -80.39839670    132.623613   -0.00000   -0.00000   -0.00000    2      1.3      8.0     diag
    4      0.257D-02      0.473D-03       -80.39898273    132.493792   -0.00000   -0.00000   -0.00000    3      1.3      9.3     diag
    5      0.864D-03      0.583D-04       -80.39899147    132.500637   -0.00000   -0.00000   -0.00000    4      1.3     10.6     diag
    6      0.859D-04      0.376D-05       -80.39899152    132.500465   -0.00000   -0.00000   -0.00000    5      1.3     11.9     diag
    7      0.105D-04      0.278D-06       -80.39899152    132.500442   -0.00000   -0.00000   -0.00000    0      1.4     13.3     orth

 Final occupancy:  10

 !RHF STATE  1.1 Energy               -80.398991516211
 Nuclear energy                        41.00026398
 One-electron energy                 -187.64947659
 Two-electron energy                   66.25022110
 Virial quotient                       -1.00184053
 !RHF STATE  1.1 Dipole moment         -0.00000000    -0.00000000    -0.00000000
 Dipole moment /Debye                  -0.00000000    -0.00000000    -0.00000000

 Orbital energies:

         1.1          2.1          3.1          4.1          5.1          6.1          7.1          8.1          9.1         10.1
    -11.214297   -11.214296    -0.945498    -0.940673    -0.550018    -0.546288    -0.546221    -0.540092    -0.540022    -0.537112

        11.1         12.1
      0.035432     0.045865


 HOMO     10.1    -0.537112 =     -14.6156eV
 LUMO     11.1     0.035432 =       0.9642eV
 LUMO-HOMO         0.572545 =      15.5797eV


 **********************************************************************************************************************************
 DATASETS  * FILE   NREC   LENGTH (MB)   RECORD NAMES
              1      18       30.64       500      610      700      900      950      970     1000      129      960     1100   
                                          VAR    BASINP    GEOM    SYMINP    ZMAT    AOBASIS   BASIS     P2S    ABASIS      S 
                                         1400     1410     1200     1210     1080     1600     1650     1700   
                                           T        V       H0       H01     AOSYM     SMH    MOLCAS    OPER   

              2       4        3.19       700     1000      520     2101   
                                         GEOM     BASIS   MCVARS     RHF  

 PROGRAMS   *        TOTAL   RHF-SCF       INT
 CPU TIMES  *        14.13     13.36      0.45
 REAL TIME  *        16.22 SEC
 DISK USED  *        34.67 MB (local),      416.00 MB (total)
 SF USED    *         0.17 MB
 GA USED    *         0.00 MB       (max)       0.00 MB       (current)
 **********************************************************************************************************************************
 SETTING EAB_HF         =       -80.39899152  AU                              

 Dummy atoms: C2  H5  H6  H7  H8


 Recomputing one-electron integrals since nuclear charges changed


 PROGRAM * SEWARD (Integral evaluation for generally contracted gaussian basis sets)     Author: Roland Lindh, 1990

 Geometry written to block  1 of record 700


 Point group  C1  



 ATOMIC COORDINATES

 NR  ATOM    CHARGE       X              Y              Z

   1  C1      6.00    0.000000000   -0.000264562    3.513305111
   2  H1      1.00   -1.679118038    0.969542885    2.824545292
   3  H2      1.00    1.679118038    0.969542885    2.824545292
   4  H3      1.00    0.000000000   -1.939499621    2.824891112
   5  H4      1.00    0.000000000    0.000168186    5.571449297
   6  C2      0.00    0.000000000    0.000264562   -3.513305111
   7  H5      0.00    0.000000000   -0.000168186   -5.571449297
   8  H6      0.00   -1.679118038   -0.969542885   -2.824545292
   9  H7      0.00    1.679118038   -0.969542885   -2.824545292
  10  H8      0.00    0.000000000    1.939499621   -2.824891112

 Bond lengths in Bohr (Angstrom)

 1-2  2.057754591  1-3  2.057754591  1-4  2.057801363  1-5  2.058144231  6-7  2.058144231
     ( 1.088916835)     ( 1.088916835)     ( 1.088941586)     ( 1.089123024)     ( 1.089123024)

  6- 8  2.057754591   6- 9  2.057754591   6-10  2.057801363
       ( 1.088916835)       ( 1.088916835)       ( 1.088941586)

 Bond angles

  2-1-3  109.37178461   2-1-4  109.40018547   2-1-5  109.54913801   3-1-4  109.40018547

  3-1-5  109.54913801   4-1-5  109.55653032   7-6-8  109.54913801   7-6-9  109.54913801

  7- 6-10  109.55653032   8- 6- 9  109.37178461   8- 6-10  109.40018547   9- 6-10  109.40018547

 NUCLEAR CHARGE:                   10
 NUMBER OF PRIMITIVE AOS:         162
 NUMBER OF SYMMETRY AOS:          158
 NUMBER OF CONTRACTIONS:          118   (  118A   )
 NUMBER OF CORE ORBITALS:           1   (    1A   )
 NUMBER OF VALENCE ORBITALS:        8   (    8A   )

 MOLECULE CHANGED: INITIALIZING OCCUPATION AND DUMP RECORDS


 NUCLEAR REPULSION ENERGY   13.44804232


 Eigenvalues of metric

         1 0.379E-03 0.578E-03 0.579E-03 0.631E-03 0.752E-03 0.752E-03 0.785E-03 0.101E-02


 OPERATOR DM      FOR CENTER  0  COORDINATES:    0.000000    0.000000    0.000000


 **********************************************************************************************************************************
 DATASETS  * FILE   NREC   LENGTH (MB)   RECORD NAMES
              1      18       30.64       500      610      700      900      950      970     1000      129      960     1100   
                                          VAR    BASINP    GEOM    SYMINP    ZMAT    AOBASIS   BASIS     P2S    ABASIS      S 
                                         1400     1410     1200     1210     1080     1600     1650     1700   
                                           T        V       H0       H01     AOSYM     SMH    MOLCAS    OPER   

              2       4        3.19       700     1000      520     2101   
                                         GEOM     BASIS   MCVARS     RHF  

 PROGRAMS   *        TOTAL       INT   RHF-SCF       INT
 CPU TIMES  *        14.19      0.05     13.36      0.45
 REAL TIME  *        16.33 SEC
 DISK USED  *        34.67 MB (local),      416.00 MB (total)
 SF USED    *         0.17 MB
 GA USED    *         0.00 MB       (max)       0.00 MB       (current)
 **********************************************************************************************************************************


 PROGRAM * RHF-SCF (CLOSED SHELL)       Authors: W. Meyer, H.-J. Werner


 NUMBER OF ELECTRONS:       5+    5-    SPACE SYMMETRY=1    SPIN SYMMETRY: Singlet 
 CONVERGENCE THRESHOLDS:    1.00E-04 (Density)    1.00E-09 (Energy)
 INTEGRAL THRESHOLDS:       1.00E-11 (Initial)    1.00E-11 (Final)
 MAX. NUMBER OF ITERATIONS:       60
 INTERPOLATION TYPE:            DIIS
 INTERPOLATION STEPS:              2 (START)      1 (STEP)
 LEVEL SHIFTS:                  0.00 (CLOSED)  0.00 (OPEN) 



 Orbital guess generated from atomic densities. Full valence occupancy:    9

 Molecular orbital dump at record        2201.2

 Initial occupancy:   5

 Direct Fock-matrix evaluation.        Authors: Roland Lindh & Martin Schuetz (1993/96)

 Integral Threshold:                  0.1D-10
 Threshold for writing integrals:     0.1D-06
 Prescreening on density matrix:        ON 
 Calculation will be performed fully direct        

 ITERATION   DDIFF            GRAD            ENERGY        2-EL.EN.            DIPOLE MOMENTS         DIIS   CPU(IT)  CPU(TOT)
    1      0.000D+00      0.000D+00       -40.18172625     52.920698    0.00000    0.00012   -0.00142    0      2.5      4.9     start
    2      0.000D+00      0.458D-02       -40.19751154     51.782405   -0.00000    0.00005   -0.00091    1      1.3      6.2     diag
    3      0.572D-02      0.170D-02       -40.19948742     52.192645   -0.00000    0.00006   -0.00099    2      1.3      7.4     diag
    4      0.182D-02      0.460D-03       -40.19977821     52.129705   -0.00000    0.00006   -0.00093    3      1.3      8.7     diag
    5      0.601D-03      0.573D-04       -40.19978267     52.133132   -0.00000    0.00006   -0.00092    4      1.3     10.0     diag
    6      0.591D-04      0.372D-05       -40.19978270     52.133035   -0.00000    0.00006   -0.00092    5      1.3     11.3     diag
    7      0.706D-05      0.259D-06       -40.19978270     52.133022   -0.00000    0.00006   -0.00092    0      1.3     12.6     orth

 Final occupancy:   5

 !RHF STATE  1.1 Energy               -40.199782696112
 Nuclear energy                        13.44804232
 One-electron energy                  -79.71433601
 Two-electron energy                   26.06651099
 Virial quotient                       -1.00190714
 !RHF STATE  1.1 Dipole moment         -0.00000000     0.00005706    -0.00091599
 Dipole moment /Debye                  -0.00000000     0.00014501    -0.00232806

 Orbital energies:

         1.1          2.1          3.1          4.1          5.1          6.1          7.1
    -11.215113    -0.943718    -0.544284    -0.543805    -0.543737     0.028704     0.043314


 HOMO      5.1    -0.543737 =     -14.7958eV
 LUMO      6.1     0.028704 =       0.7811eV
 LUMO-HOMO         0.572441 =      15.5769eV


 **********************************************************************************************************************************
 DATASETS  * FILE   NREC   LENGTH (MB)   RECORD NAMES
              1      18       30.64       500      610      700      900      950      970     1000      129      960     1100   
                                          VAR    BASINP    GEOM    SYMINP    ZMAT    AOBASIS   BASIS     P2S    ABASIS      S 
                                         1400     1410     1200     1210     1080     1600     1650     1700   
                                           T        V       H0       H01     AOSYM     SMH    MOLCAS    OPER   

              2       5        6.24       700     1000      520     2101     2201   
                                         GEOM     BASIS   MCVARS     RHF      RHF  

 PROGRAMS   *        TOTAL   RHF-SCF       INT   RHF-SCF       INT
 CPU TIMES  *        26.79     12.60      0.05     13.36      0.45
 REAL TIME  *        29.22 SEC
 DISK USED  *        37.72 MB (local),      452.58 MB (total)
 SF USED    *         0.17 MB
 GA USED    *         0.00 MB       (max)       0.00 MB       (current)
 **********************************************************************************************************************************
 SETTING EA_HF          =       -40.19978270  AU                              

 Dummy atoms: C1  H1  H2  H3  H4


 Recomputing one-electron integrals since nuclear charges changed


 PROGRAM * SEWARD (Integral evaluation for generally contracted gaussian basis sets)     Author: Roland Lindh, 1990

 Geometry written to block  1 of record 700


 Point group  C1  



 ATOMIC COORDINATES

 NR  ATOM    CHARGE       X              Y              Z

   1  C1      0.00    0.000000000   -0.000264562    3.513305111
   2  H1      0.00   -1.679118038    0.969542885    2.824545292
   3  H2      0.00    1.679118038    0.969542885    2.824545292
   4  H3      0.00    0.000000000   -1.939499621    2.824891112
   5  H4      0.00    0.000000000    0.000168186    5.571449297
   6  C2      6.00    0.000000000    0.000264562   -3.513305111
   7  H5      1.00    0.000000000   -0.000168186   -5.571449297
   8  H6      1.00   -1.679118038   -0.969542885   -2.824545292
   9  H7      1.00    1.679118038   -0.969542885   -2.824545292
  10  H8      1.00    0.000000000    1.939499621   -2.824891112

 Bond lengths in Bohr (Angstrom)

 1-2  2.057754591  1-3  2.057754591  1-4  2.057801363  1-5  2.058144231  6-7  2.058144231
     ( 1.088916835)     ( 1.088916835)     ( 1.088941586)     ( 1.089123024)     ( 1.089123024)

  6- 8  2.057754591   6- 9  2.057754591   6-10  2.057801363
       ( 1.088916835)       ( 1.088916835)       ( 1.088941586)

 Bond angles

  2-1-3  109.37178461   2-1-4  109.40018547   2-1-5  109.54913801   3-1-4  109.40018547

  3-1-5  109.54913801   4-1-5  109.55653032   7-6-8  109.54913801   7-6-9  109.54913801

  7- 6-10  109.55653032   8- 6- 9  109.37178461   8- 6-10  109.40018547   9- 6-10  109.40018547

 NUCLEAR CHARGE:                   10
 NUMBER OF PRIMITIVE AOS:         162
 NUMBER OF SYMMETRY AOS:          158
 NUMBER OF CONTRACTIONS:          118   (  118A   )
 NUMBER OF CORE ORBITALS:           1   (    1A   )
 NUMBER OF VALENCE ORBITALS:        8   (    8A   )

 MOLECULE CHANGED: INITIALIZING OCCUPATION AND DUMP RECORDS


 NUCLEAR REPULSION ENERGY   13.44804232


 Eigenvalues of metric

         1 0.379E-03 0.578E-03 0.579E-03 0.631E-03 0.752E-03 0.752E-03 0.785E-03 0.101E-02


 OPERATOR DM      FOR CENTER  0  COORDINATES:    0.000000    0.000000    0.000000


 **********************************************************************************************************************************
 DATASETS  * FILE   NREC   LENGTH (MB)   RECORD NAMES
              1      18       30.64       500      610      700      900      950      970     1000      129      960     1100   
                                          VAR    BASINP    GEOM    SYMINP    ZMAT    AOBASIS   BASIS     P2S    ABASIS      S 
                                         1400     1410     1200     1210     1080     1600     1650     1700   
                                           T        V       H0       H01     AOSYM     SMH    MOLCAS    OPER   

              2       5        6.24       700     1000      520     2101     2201   
                                         GEOM     BASIS   MCVARS     RHF      RHF  

 PROGRAMS   *        TOTAL       INT   RHF-SCF       INT   RHF-SCF       INT
 CPU TIMES  *        27.08      0.28     12.60      0.05     13.36      0.45
 REAL TIME  *        29.67 SEC
 DISK USED  *        37.72 MB (local),      452.58 MB (total)
 SF USED    *         0.17 MB
 GA USED    *         0.00 MB       (max)       0.00 MB       (current)
 **********************************************************************************************************************************


 PROGRAM * RHF-SCF (CLOSED SHELL)       Authors: W. Meyer, H.-J. Werner


 NUMBER OF ELECTRONS:       5+    5-    SPACE SYMMETRY=1    SPIN SYMMETRY: Singlet 
 CONVERGENCE THRESHOLDS:    1.00E-04 (Density)    1.00E-09 (Energy)
 INTEGRAL THRESHOLDS:       1.00E-11 (Initial)    1.00E-11 (Final)
 MAX. NUMBER OF ITERATIONS:       60
 INTERPOLATION TYPE:            DIIS
 INTERPOLATION STEPS:              2 (START)      1 (STEP)
 LEVEL SHIFTS:                  0.00 (CLOSED)  0.00 (OPEN) 



 Orbital guess generated from atomic densities. Full valence occupancy:    9

 Molecular orbital dump at record        2301.2

 Initial occupancy:   5

 Direct Fock-matrix evaluation.        Authors: Roland Lindh & Martin Schuetz (1993/96)

 Integral Threshold:                  0.1D-10
 Threshold for writing integrals:     0.1D-06
 Prescreening on density matrix:        ON 
 Calculation will be performed fully direct        

 ITERATION   DDIFF            GRAD            ENERGY        2-EL.EN.            DIPOLE MOMENTS         DIIS   CPU(IT)  CPU(TOT)
    1      0.000D+00      0.000D+00       -40.18172625     52.920698    0.00000   -0.00012    0.00142    0      2.5      5.1     start
    2      0.000D+00      0.458D-02       -40.19751154     51.782405    0.00000   -0.00005    0.00091    1      1.3      6.4     diag
    3      0.572D-02      0.170D-02       -40.19948742     52.192645    0.00000   -0.00006    0.00099    2      1.3      7.7     diag
    4      0.182D-02      0.460D-03       -40.19977821     52.129705    0.00000   -0.00006    0.00093    3      1.3      9.0     diag
    5      0.601D-03      0.573D-04       -40.19978267     52.133132    0.00000   -0.00006    0.00092    4      1.3     10.3     diag
    6      0.591D-04      0.372D-05       -40.19978270     52.133035    0.00000   -0.00006    0.00092    5      1.3     11.6     diag
    7      0.706D-05      0.259D-06       -40.19978270     52.133022   -0.00000   -0.00006    0.00092    0      1.3     12.9     orth

 Final occupancy:   5

 !RHF STATE  1.1 Energy               -40.199782696112
 Nuclear energy                        13.44804232
 One-electron energy                  -79.71433601
 Two-electron energy                   26.06651099
 Virial quotient                       -1.00190714
 !RHF STATE  1.1 Dipole moment          0.00000000    -0.00005706     0.00091599
 Dipole moment /Debye                   0.00000000    -0.00014501     0.00232806

 Orbital energies:

         1.1          2.1          3.1          4.1          5.1          6.1          7.1
    -11.215113    -0.943718    -0.544284    -0.543805    -0.543737     0.028704     0.043314


 HOMO      5.1    -0.543737 =     -14.7958eV
 LUMO      6.1     0.028704 =       0.7811eV
 LUMO-HOMO         0.572441 =      15.5769eV


 **********************************************************************************************************************************
 DATASETS  * FILE   NREC   LENGTH (MB)   RECORD NAMES
              1      18       30.64       500      610      700      900      950      970     1000      129      960     1100   
                                          VAR    BASINP    GEOM    SYMINP    ZMAT    AOBASIS   BASIS     P2S    ABASIS      S 
                                         1400     1410     1200     1210     1080     1600     1650     1700   
                                           T        V       H0       H01     AOSYM     SMH    MOLCAS    OPER   

              2       6        9.29       700     1000      520     2101     2201     2301   
                                         GEOM     BASIS   MCVARS     RHF      RHF      RHF  

 PROGRAMS   *        TOTAL   RHF-SCF       INT   RHF-SCF       INT   RHF-SCF       INT
 CPU TIMES  *        40.02     12.93      0.28     12.60      0.05     13.36      0.45
 REAL TIME  *        42.96 SEC
 DISK USED  *        40.76 MB (local),      489.16 MB (total)
 SF USED    *         0.17 MB
 GA USED    *         0.00 MB       (max)       0.00 MB       (current)
 **********************************************************************************************************************************
 SETTING EB_HF          =       -40.19978270  AU                              
 SETTING E_AB_INT       =         0.00057388  AU                              

 *** results in hartree
 E_AB_INT         =         0.00057388 AU
 Molecular orbitals read from record     2301.2  Type=RHF/CANONICAL (state 1.1)
 Occupation numbers read from record     2301.2  Type=RHF/RHF (state 1.1)
 Orbital energies read from record       2301.2  Type=RHF/CANONICAL (state 1.1)
 Redundancy group numbers read from rec  2301.2  Type=RHF/RHF (state 1.1)

 RHF/aug-cc-pVDZ energy=    -40.199782696112

         RHF-SCF         RHF-SCF         RHF-SCF
    -40.19978270    -40.19978270    -80.39899152
 **********************************************************************************************************************************
 Molpro calculation terminated
