
 Primary working directories    : /scratch/sirous/460818/molpro.6juDIZQUvw
 Secondary working directories  : /scratch/sirous/460818/molpro.6juDIZQUvw
 Wavefunction directory         : /scratch/sirous/460818/
 Main file repository           : /scratch/sirous/460818/molpro.6juDIZQUvw/

 id        : karlovklimes

 Nodes                      nprocs
 nc-07.cc.karlov.mff.cuni.cz    4

 Using customized tuning parameters: mindgm=1; mindgv=20; mindgc=4; mindgr=1; noblas=0; minvec=7
 default implementation of scratch files=sf  


 Variables initialized (934), CPU time= 0.00 sec
 ***,CH3C6H4CN+CF3CN+BF3
 memory,500,m
 gdirect
 gthresh,energy=1.d-8,twoint=1.d-19,oneint=1.d-19,zero=1.d-15,orbital=1.d-8,grid=1.d-8
 symmetry,nosym
 geomtyp=xyz
                                                                                 ! Geometry
 geometry={
 H1        0.0176077530000000    0.6404641599999999     -0.7613515990000000
 H2        -0.0133778400000000    0.6316333020000000     0.7545505100000000
 H3        0.0240861940000000    3.2269150510000002     0.0012916600000000
 H4        0.9847960170000000    4.3998273129999994     -0.0163366190000000
 O1        0.0000000000000000    1.2272060000000000     0.0000000000000000
 O2        0.0472419370000000    4.1880053420000003     0.0025334240000000
 }
 
 
 
 basis=av5z
 
 
 
                                                                                 ! Dimer Calculation
 {rks,pbe,accu=1.d-8;orbital,2101.2}
 eab_PBE=energy
 
 
                                                                                 !monomer A
 dummy,3,4,6;                                                                    ! NOW MONOMER B IS DUMMY
 {rks,pbe,accu=1.d-8;orbital,2201.2}
 ea_PBE=energy
                                                                                 !monomer B
 dummy,1,2,5;                                                                    !NOW MONOMER A IS DUMMY
 {rks,pbe,accu=1.d-8;orbital,2301.2}
 eb_PBE=energy
 
 E_AB_int=eab_PBE-ea_PBE-eb_PBE
 
 
 text,results in hartree
 show,E_AB_int
 
 Commands  initialized (763), CPU time= 0.00 sec, 617 directives.
 Default parameters read. Elapsed time= 0.32 sec

 Checking input...
 Passed
1


                                         ***  PROGRAM SYSTEM MOLPRO  ***
                                       Copyright, TTI GmbH Stuttgart, 2015
                                    Version 2019.2 linked Jun  8 2019 11:26:33


 **********************************************************************************************************************************
 LABEL *   CH3C6H4CN+CF3CN+BF3                                                           
  64 bit mpp version                                                                     DATE: 27-Mar-20          TIME: 14:06:19  
 **********************************************************************************************************************************

 SHA1:             8135a10abc80eafa5b3ae28ffc55be4890dc4c84
 **********************************************************************************************************************************

 THRESHOLDS:

 ZERO    =  1.00D-15  ONEINT  =  1.00D-19  TWOINT  =  1.00D-19  PREFAC  =  1.00D-14  XXXXXX  =  1.00D-09  EORDER  =  1.00D-04
 ENERGY  =  1.00D-08  ETEST   =  0.00D+00  EDENS   =  0.00D+00  THRDEDEF=  1.00D-06  GRADIENT=  1.00D-02  STEP    =  1.00D-03
 ORBITAL =  1.00D-08  CIVEC   =  1.00D-05  COEFF   =  1.00D-04  PRINTCI =  5.00D-02  PUNCHCI =  9.90D+01  OPTGRAD =  3.00D-04
 OPTENERG=  1.00D-06  OPTSTEP =  3.00D-04  THRGRAD =  1.00D-10  COMPRESS=  1.00D-11  VARMIN  =  1.00D-07  VARMAX  =  1.00D-03
 THRDOUB =  0.00D+00  THRDIV  =  1.00D-05  THRRED  =  1.00D-07  THRPSP  =  1.00D+00  THRDC   =  1.00D-10  THRCS   =  1.00D-10
 THRNRM  =  1.00D-08  THREQ   =  0.00D+00  THRDE   =  1.00D+00  THRREF  =  1.00D-05  SPARFAC =  1.00D+00  THRDLP  =  1.00D-07
 THRDIA  =  1.00D-10  THRDLS  =  1.00D-07  THRGPS  =  0.00D+00  THRKEX  =  0.00D+00  THRDIS  =  2.00D-01  THRVAR  =  1.00D-10
 THRLOC  =  1.00D-06  THRGAP  =  1.00D-06  THRLOCT = -1.00D+00  THRGAPT = -1.00D+00  THRORB  =  1.00D-06  THRMLTP =  0.00D+00
 THRCPQCI=  1.00D-10  KEXTA   =  0.00D+00  THRCOARS=  0.00D+00  SYMTOL  =  1.00D-06  GRADTOL =  1.00D-06  THROVL  =  1.00D-08
 THRORTH =  1.00D-08  GRID    =  1.00D-08  GRIDMAX =  1.00D-03  DTMAX   =  0.00D+00  THROCCDE=  1.00D-01  THROCCDE=  1.00D-01
 THRPRINT=  2.50D-01


 Variable memory set to  500000000 words,  buffer space 

 SETTING GEOMTYP        =    XYZ
 ZSYMEL=NOSYM

 SETTING BASIS          =    AV5Z


 Recomputing integrals since basis changed


 Using spherical harmonics

 Library entry H      S aug-cc-pV5Z          selected for orbital group  1
 Library entry H      P aug-cc-pV5Z          selected for orbital group  1
 Library entry H      D aug-cc-pV5Z          selected for orbital group  1
 Library entry H      F aug-cc-pV5Z          selected for orbital group  1
 Library entry H      G aug-cc-pV5Z          selected for orbital group  1
 Library entry O      S aug-cc-pV5Z          selected for orbital group  2
 Library entry O      P aug-cc-pV5Z          selected for orbital group  2
 Library entry O      D aug-cc-pV5Z          selected for orbital group  2
 Library entry O      F aug-cc-pV5Z          selected for orbital group  2
 Library entry O      G aug-cc-pV5Z          selected for orbital group  2
 Library entry O      H aug-cc-pV5Z          selected for orbital group  2


 PROGRAM * SEWARD (Integral evaluation for generally contracted gaussian basis sets)     Author: Roland Lindh, 1990

 Geometry written to block  1 of record 700


 Point group  C1  



 ATOMIC COORDINATES

 NR  ATOM    CHARGE       X              Y              Z

   1  H1      1.00    0.033273831    1.210301855   -1.438746007
   2  H2      1.00   -0.025280454    1.193613952    1.425893811
   3  H3      1.00    0.045516310    6.097985674    0.002440884
   4  H4      1.00    1.860994761    8.314468617   -0.030871736
   5  O1      8.00    0.000000000    2.319083238    0.000000000
   6  O2      8.00    0.089274323    7.914183105    0.004787478

 Bond lengths in Bohr (Angstrom)

 1-5  1.816726005  2-5  1.816726005  3-6  1.816726005  4-6  1.816726006
     ( 0.961370000)     ( 0.961370000)     ( 0.961370001)     ( 0.961370001)

 Bond angles

  1-5-2  104.10700004   3-6-4  104.10699993

 NUCLEAR CHARGE:                   20
 NUMBER OF PRIMITIVE AOS:         830
 NUMBER OF SYMMETRY AOS:          620
 NUMBER OF CONTRACTIONS:          574   (  574A   )
 NUMBER OF CORE ORBITALS:           2   (    2A   )
 NUMBER OF VALENCE ORBITALS:       12   (   12A   )


 NUCLEAR REPULSION ENERGY   36.13057399


 Eigenvalues of metric

         1 0.707E-05 0.894E-05 0.111E-04 0.114E-04 0.224E-04 0.350E-04 0.425E-04 0.461E-04


 OPERATOR DM      FOR CENTER  0  COORDINATES:    0.000000    0.000000    0.000000


 **********************************************************************************************************************************
 DATASETS  * FILE   NREC   LENGTH (MB)   RECORD NAMES
              1      18       42.11       500      610      700      900      950      970     1000      129      960     1100   
                                          VAR    BASINP    GEOM    SYMINP    ZMAT    AOBASIS   BASIS     P2S    ABASIS      S 
                                         1400     1410     1200     1210     1080     1600     1650     1700   
                                           T        V       H0       H01     AOSYM     SMH    MOLCAS    OPER   

 PROGRAMS   *        TOTAL       INT
 CPU TIMES  *         0.91      0.73
 REAL TIME  *         2.58 SEC
 DISK USED  *        42.66 MB (local),      170.64 MB (total)
 GA USED    *         0.00 MB       (max)       0.00 MB       (current)
 **********************************************************************************************************************************

 Density functional group PBE=PBEX+PBEC
 Functional: PBEX(Automatically generated (new) PBEX)                          Gradient terms: 1
 Functional: PBEC(Automatically generated (new) PBEC)                          Gradient terms: 1
 Use libxcgrid:  F
 Use grid at  1800.2

 Functional: PBEX                      Factor:  1.0000
 Functional: PBEC                      Factor:  1.0000

 Generated new metagrid on record  1800.2 with target accuracy 1.0D-08 and 63112 points in CPU time    0.2
 Computed new grid on record 1800.1 in CPU time    0.2
  465012 words reserved for DFT integration

 PROGRAM * RKS-SCF (Restricted closed shell Kohn-Sham)     Authors: W. Meyer, H.-J. Werner, P.J. Knowles, 1993

 NUMBER OF ELECTRONS:      10+   10-    SPACE SYMMETRY=1    SPIN SYMMETRY: Singlet 
 CONVERGENCE THRESHOLDS:    1.00E-04 (Density)    1.00E-08 (Energy)
 INTEGRAL THRESHOLDS:       1.00E-11 (Initial)    1.00E-11 (Final)
 MAX. NUMBER OF ITERATIONS:       60
 INTERPOLATION TYPE:            DIIS
 INTERPOLATION STEPS:              2 (START)      1 (STEP)
 LEVEL SHIFTS:                  0.00 (CLOSED)  0.00 (OPEN) 



 Use fine grid record 1800.2 for energy threshold  1.0D-08
 Orbital guess generated from atomic densities. Full valence occupancy:   14

 Molecular orbital dump at record        2101.2

 Initial occupancy:  10

 Direct Fock-matrix evaluation.        Authors: Roland Lindh & Martin Schuetz (1993/96)

 Integral Threshold:                  0.1D-10
 Threshold for writing integrals:     0.1D-06
 Prescreening on density matrix:        ON 
 Calculation will be performed fully direct        

 ITERATION   DDIFF            GRAD            ENERGY        2-EL.EN.            DIPOLE MOMENTS         DIIS   CPU(IT)  CPU(TOT)
    1      0.000D+00      0.000D+00      -152.62024070    232.034551    0.85390   -1.91041   -0.02509    0    590.9    603.7     start
    2      0.000D+00      0.638D-02      -151.92789738    199.866976   -0.48063    0.04136    0.01638    1    591.4   1195.1     diag
    3      0.676D-02      0.141D-01      -152.78199721    222.904364    0.57592   -1.43176   -0.01699    2    592.7   1787.9     diag
    4      0.476D-02      0.504D-03      -152.78207271    222.230351    0.50110   -1.41358   -0.01504    3    537.2   2325.1     diag
    5      0.375D-03      0.570D-03      -152.78326828    222.159206    0.52508   -1.40172   -0.01546    4    493.2   2818.3     diag
    6      0.207D-03      0.645D-04      -152.78328559    222.232433    0.52763   -1.40029   -0.01561    5    465.2   3283.4     diag
    7      0.278D-04      0.146D-04      -152.78328650    222.244102    0.52756   -1.40242   -0.01559    6    414.8   3698.2     diag
    8      0.566D-05      0.163D-05      -152.78328651    222.244094    0.52780   -1.40237   -0.01559    7    333.7   4031.9     diag
    9      0.538D-06      0.335D-06      -152.78328651    222.243660    0.52769   -1.40234   -0.01559    0    270.6   4302.6     orth

 Final occupancy:  10

 !RKS STATE  1.1 Energy              -152.783286513730
 Nuclear energy                        36.13057399
 One-electron energy                 -281.54808804
 Two-electron energy                  111.12183015
 Density functional                   -18.48760261     PBEX=-17.83636219 PBEC= -0.65124042
 Virial quotient                       -1.00334274
 !RKS STATE  1.1 Dipole moment          0.52768643    -1.40234067    -0.01559116
 Dipole moment /Debye                   1.34115727    -3.56416099    -0.03962618

 Orbital energies:

         1.1          2.1          3.1          4.1          5.1          6.1          7.1          8.1          9.1         10.1
    -18.779858   -18.723850    -0.955991    -0.900805    -0.507159    -0.457334    -0.375451    -0.312337    -0.291180    -0.239208

        11.1         12.1
     -0.048031    -0.004591


 HOMO     10.1    -0.239208 =      -6.5092eV
 LUMO     11.1    -0.048031 =      -1.3070eV
 LUMO-HOMO         0.191178 =       5.2022eV


 **********************************************************************************************************************************
 DATASETS  * FILE   NREC   LENGTH (MB)   RECORD NAMES
              1      19       42.11       500      610      700      900      950      970     1000      129      960     1100   
                                          VAR    BASINP    GEOM    SYMINP    ZMAT    AOBASIS   BASIS     P2S    ABASIS      S 
                                         1400     1410     1200     1210     1080     1600     1650     1700     1800   
                                           T        V       H0       H01     AOSYM     SMH    MOLCAS    OPER     GRID   

              2       5        9.55       700     1000      520     1800     2101   
                                         GEOM     BASIS   MCVARS    GRID      RKS  

 PROGRAMS   *        TOTAL   RKS-SCF       INT
 CPU TIMES  *      4304.14   4303.21      0.73
 REAL TIME  *      4319.74 SEC
 DISK USED  *        72.92 MB (local),      291.67 MB (total)
 SF USED    *         3.96 MB
 GA USED    *         2.09 MB       (max)       2.09 MB       (current)
 **********************************************************************************************************************************
 SETTING EAB_PBE        =      -152.78328651  AU                              

 Dummy atoms: H3  H4  O2


 Recomputing one-electron integrals since nuclear charges changed


 PROGRAM * SEWARD (Integral evaluation for generally contracted gaussian basis sets)     Author: Roland Lindh, 1990

 Geometry written to block  1 of record 700


 Point group  C1  



 ATOMIC COORDINATES

 NR  ATOM    CHARGE       X              Y              Z

   1  H1      1.00    0.033273831    1.210301855   -1.438746007
   2  H2      1.00   -0.025280454    1.193613952    1.425893811
   3  H3      0.00    0.045516310    6.097985674    0.002440884
   4  H4      0.00    1.860994761    8.314468617   -0.030871736
   5  O1      8.00    0.000000000    2.319083238    0.000000000
   6  O2      0.00    0.089274323    7.914183105    0.004787478

 Bond lengths in Bohr (Angstrom)

 1-5  1.816726005  2-5  1.816726005  3-6  1.816726005  4-6  1.816726006
     ( 0.961370000)     ( 0.961370000)     ( 0.961370001)     ( 0.961370001)

 Bond angles

  1-5-2  104.10700004   3-6-4  104.10699993

 NUCLEAR CHARGE:                   10
 NUMBER OF PRIMITIVE AOS:         830
 NUMBER OF SYMMETRY AOS:          620
 NUMBER OF CONTRACTIONS:          574   (  574A   )
 NUMBER OF CORE ORBITALS:           1   (    1A   )
 NUMBER OF VALENCE ORBITALS:        6   (    6A   )

 MOLECULE CHANGED: INITIALIZING OCCUPATION AND DUMP RECORDS


 NUCLEAR REPULSION ENERGY    9.15605699


 Eigenvalues of metric

         1 0.707E-05 0.894E-05 0.111E-04 0.114E-04 0.224E-04 0.350E-04 0.425E-04 0.461E-04


 OPERATOR DM      FOR CENTER  0  COORDINATES:    0.000000    0.000000    0.000000


 **********************************************************************************************************************************
 DATASETS  * FILE   NREC   LENGTH (MB)   RECORD NAMES
              1      19       42.11       500      610      700      900      950      970     1000      129      960     1100   
                                          VAR    BASINP    GEOM    SYMINP    ZMAT    AOBASIS   BASIS     P2S    ABASIS      S 
                                         1400     1410     1200     1210     1080     1600     1650     1700     1800   
                                           T        V       H0       H01     AOSYM     SMH    MOLCAS    OPER     GRID   

              2       5        9.55       700     1000      520     1800     2101   
                                         GEOM     BASIS   MCVARS    GRID      RKS  

 PROGRAMS   *        TOTAL       INT   RKS-SCF       INT
 CPU TIMES  *      4304.57      0.42   4303.21      0.73
 REAL TIME  *      4320.24 SEC
 DISK USED  *        72.92 MB (local),      291.67 MB (total)
 SF USED    *         3.96 MB
 GA USED    *         2.09 MB       (max)       2.09 MB       (current)
 **********************************************************************************************************************************

 Density functional group PBE=PBEX+PBEC
 Functional: PBEX(Automatically generated (new) PBEX)                          Gradient terms: 1
 Functional: PBEC(Automatically generated (new) PBEC)                          Gradient terms: 1
 Use libxcgrid:  F
 Use grid at  1800.2

 Functional: PBEX                      Factor:  1.0000
 Functional: PBEC                      Factor:  1.0000

 Generated new metagrid on record  1800.2 with target accuracy 1.0D-08 and 63112 points in CPU time    0.2
 Computed new grid on record 1800.1 in CPU time    0.2
  465012 words reserved for DFT integration

 PROGRAM * RKS-SCF (Restricted closed shell Kohn-Sham)     Authors: W. Meyer, H.-J. Werner, P.J. Knowles, 1993

 NUMBER OF ELECTRONS:       5+    5-    SPACE SYMMETRY=1    SPIN SYMMETRY: Singlet 
 CONVERGENCE THRESHOLDS:    1.00E-04 (Density)    1.00E-08 (Energy)
 INTEGRAL THRESHOLDS:       1.00E-11 (Initial)    1.00E-11 (Final)
 MAX. NUMBER OF ITERATIONS:       60
 INTERPOLATION TYPE:            DIIS
 INTERPOLATION STEPS:              2 (START)      1 (STEP)
 LEVEL SHIFTS:                  0.00 (CLOSED)  0.00 (OPEN) 



 Use fine grid record 1800.2 for energy threshold  1.0D-08
 Orbital guess generated from atomic densities. Full valence occupancy:    7

 Molecular orbital dump at record        2201.2

 Initial occupancy:   5

 Direct Fock-matrix evaluation.        Authors: Roland Lindh & Martin Schuetz (1993/96)

 Integral Threshold:                  0.1D-10
 Threshold for writing integrals:     0.1D-06
 Prescreening on density matrix:        ON 
 Calculation will be performed fully direct        

 ITERATION   DDIFF            GRAD            ENERGY        2-EL.EN.            DIPOLE MOMENTS         DIIS   CPU(IT)  CPU(TOT)
    1      0.000D+00      0.000D+00       -76.30160138     98.228151    0.00394   -1.10076   -0.00633    0    557.9    566.7     start
    2      0.000D+00      0.651D-02       -75.90955659     81.730981   -0.00185    0.46092    0.00269    1    526.3   1093.0     diag
    3      0.509D-02      0.148D-01       -76.38773237     93.606717    0.00265   -0.73840   -0.00425    2    479.7   1572.7     diag
    4      0.368D-02      0.391D-03       -76.38815935     93.200141    0.00254   -0.70817   -0.00407    3    418.8   1991.5     diag
    5      0.187D-03      0.859D-04       -76.38817305     93.251451    0.00254   -0.70669   -0.00407    4    363.4   2354.9     diag
    6      0.266D-04      0.192D-04       -76.38817383     93.261976    0.00255   -0.70905   -0.00408    5    318.1   2673.0     diag
    7      0.496D-05      0.903D-06       -76.38817383     93.261727    0.00254   -0.70891   -0.00408    6    231.8   2904.8     diag
    8      0.254D-06      0.592D-07       -76.38817383     93.261814    0.00254   -0.70893   -0.00408    0    123.4   3028.2     orth

 Final occupancy:   5

 !RKS STATE  1.1 Energy               -76.388173828649
 Nuclear energy                         9.15605699
 One-electron energy                 -122.93681108
 Two-electron energy                   46.63090675
 Density functional                    -9.23832648     PBEX=-8.91399475 PBEC=-0.32433173
 Virial quotient                       -1.00337856
 !RKS STATE  1.1 Dipole moment          0.00254469    -0.70892800    -0.00407858
 Dipole moment /Debye                   0.00646754    -1.80179722    -0.01036604

 Orbital energies:

         1.1          2.1          3.1          4.1          5.1          6.1          7.1
    -18.755016    -0.930817    -0.483376    -0.343715    -0.266300    -0.034775     0.014366


 HOMO      5.1    -0.266300 =      -7.2464eV
 LUMO      6.1    -0.034775 =      -0.9463eV
 LUMO-HOMO         0.231525 =       6.3001eV


 **********************************************************************************************************************************
 DATASETS  * FILE   NREC   LENGTH (MB)   RECORD NAMES
              1      19       42.11       500      610      700      900      950      970     1000      129      960     1100   
                                          VAR    BASINP    GEOM    SYMINP    ZMAT    AOBASIS   BASIS     P2S    ABASIS      S 
                                         1400     1410     1200     1210     1080     1600     1650     1700     1800   
                                           T        V       H0       H01     AOSYM     SMH    MOLCAS    OPER     GRID   

              2       6       25.25       700     1000      520     1800     2101     2201   
                                         GEOM     BASIS   MCVARS    GRID      RKS      RKS  

 PROGRAMS   *        TOTAL   RKS-SCF       INT   RKS-SCF       INT
 CPU TIMES  *      7333.43   3028.86      0.42   4303.21      0.73
 REAL TIME  *      7355.56 SEC
 DISK USED  *        87.30 MB (local),      349.20 MB (total)
 SF USED    *         3.96 MB
 GA USED    *         2.09 MB       (max)       2.09 MB       (current)
 **********************************************************************************************************************************
 SETTING EA_PBE         =       -76.38817383  AU                              

 Dummy atoms: H1  H2  O1


 Recomputing one-electron integrals since nuclear charges changed


 PROGRAM * SEWARD (Integral evaluation for generally contracted gaussian basis sets)     Author: Roland Lindh, 1990

 Geometry written to block  1 of record 700


 Point group  C1  



 ATOMIC COORDINATES

 NR  ATOM    CHARGE       X              Y              Z

   1  H1      0.00    0.033273831    1.210301855   -1.438746007
   2  H2      0.00   -0.025280454    1.193613952    1.425893811
   3  H3      1.00    0.045516310    6.097985674    0.002440884
   4  H4      1.00    1.860994761    8.314468617   -0.030871736
   5  O1      0.00    0.000000000    2.319083238    0.000000000
   6  O2      8.00    0.089274323    7.914183105    0.004787478

 Bond lengths in Bohr (Angstrom)

 1-5  1.816726005  2-5  1.816726005  3-6  1.816726005  4-6  1.816726006
     ( 0.961370000)     ( 0.961370000)     ( 0.961370001)     ( 0.961370001)

 Bond angles

  1-5-2  104.10700004   3-6-4  104.10699993

 NUCLEAR CHARGE:                   10
 NUMBER OF PRIMITIVE AOS:         830
 NUMBER OF SYMMETRY AOS:          620
 NUMBER OF CONTRACTIONS:          574   (  574A   )
 NUMBER OF CORE ORBITALS:           1   (    1A   )
 NUMBER OF VALENCE ORBITALS:        6   (    6A   )

 MOLECULE CHANGED: INITIALIZING OCCUPATION AND DUMP RECORDS


 NUCLEAR REPULSION ENERGY    9.15605698


 Eigenvalues of metric

         1 0.707E-05 0.894E-05 0.111E-04 0.114E-04 0.224E-04 0.350E-04 0.425E-04 0.461E-04


 OPERATOR DM      FOR CENTER  0  COORDINATES:    0.000000    0.000000    0.000000


 **********************************************************************************************************************************
 DATASETS  * FILE   NREC   LENGTH (MB)   RECORD NAMES
              1      19       42.11       500      610      700      900      950      970     1000      129      960     1100   
                                          VAR    BASINP    GEOM    SYMINP    ZMAT    AOBASIS   BASIS     P2S    ABASIS      S 
                                         1400     1410     1200     1210     1080     1600     1650     1700     1800   
                                           T        V       H0       H01     AOSYM     SMH    MOLCAS    OPER     GRID   

              2       6       25.25       700     1000      520     1800     2101     2201   
                                         GEOM     BASIS   MCVARS    GRID      RKS      RKS  

 PROGRAMS   *        TOTAL       INT   RKS-SCF       INT   RKS-SCF       INT
 CPU TIMES  *      7333.83      0.39   3028.86      0.42   4303.21      0.73
 REAL TIME  *      7356.02 SEC
 DISK USED  *        87.30 MB (local),      349.20 MB (total)
 SF USED    *         3.96 MB
 GA USED    *         2.09 MB       (max)       2.09 MB       (current)
 **********************************************************************************************************************************

 Density functional group PBE=PBEX+PBEC
 Functional: PBEX(Automatically generated (new) PBEX)                          Gradient terms: 1
 Functional: PBEC(Automatically generated (new) PBEC)                          Gradient terms: 1
 Use libxcgrid:  F
 Use grid at  1800.2

 Functional: PBEX                      Factor:  1.0000
 Functional: PBEC                      Factor:  1.0000

  465012 words reserved for DFT integration

 PROGRAM * RKS-SCF (Restricted closed shell Kohn-Sham)     Authors: W. Meyer, H.-J. Werner, P.J. Knowles, 1993

 NUMBER OF ELECTRONS:       5+    5-    SPACE SYMMETRY=1    SPIN SYMMETRY: Singlet 
 CONVERGENCE THRESHOLDS:    1.00E-04 (Density)    1.00E-08 (Energy)
 INTEGRAL THRESHOLDS:       1.00E-11 (Initial)    1.00E-11 (Final)
 MAX. NUMBER OF ITERATIONS:       60
 INTERPOLATION TYPE:            DIIS
 INTERPOLATION STEPS:              2 (START)      1 (STEP)
 LEVEL SHIFTS:                  0.00 (CLOSED)  0.00 (OPEN) 



 Use fine grid record 1800.2 for energy threshold  1.0D-08
 Orbital guess generated from atomic densities. Full valence occupancy:    7

 Molecular orbital dump at record        2301.2

 Initial occupancy:   5

 Direct Fock-matrix evaluation.        Authors: Roland Lindh & Martin Schuetz (1993/96)

 Integral Threshold:                  0.1D-10
 Threshold for writing integrals:     0.1D-06
 Prescreening on density matrix:        ON 
 Calculation will be performed fully direct        

 ITERATION   DDIFF            GRAD            ENERGY        2-EL.EN.            DIPOLE MOMENTS         DIIS   CPU(IT)  CPU(TOT)
    1      0.000D+00      0.000D+00       -76.30160361     98.228074    0.85134   -0.69760   -0.01872    0    463.5    471.8     start
    2      0.000D+00      0.651D-02       -75.90939458     81.727948   -0.35582    0.29695    0.00789    1    467.5    939.3     diag
    3      0.490D-02      0.148D-01       -76.38773385     93.606817    0.57108   -0.46802   -0.01256    2    468.2   1407.5     diag
    4      0.342D-02      0.391D-03       -76.38816133     93.200013    0.54776   -0.44881   -0.01205    3    417.3   1824.8     diag
    5      0.151D-03      0.860D-04       -76.38817506     93.251369    0.54659   -0.44789   -0.01202    4    362.6   2187.3     diag
    6      0.221D-04      0.192D-04       -76.38817584     93.261908    0.54842   -0.44938   -0.01206    5    307.2   2494.5     diag
    7      0.461D-05      0.907D-06       -76.38817584     93.261653    0.54831   -0.44929   -0.01206    6    231.9   2726.4     diag
    8      0.256D-06      0.597D-07       -76.38817584     93.261740    0.54833   -0.44930   -0.01206    0    124.0   2850.4     orth

 Final occupancy:   5

 !RKS STATE  1.1 Energy               -76.388175840987
 Nuclear energy                         9.15605698
 One-electron energy                 -122.93678784
 Two-electron energy                   46.63086989
 Density functional                    -9.23831488     PBEX=-8.91398441 PBEC=-0.32433046
 Virial quotient                       -1.00337554
 !RKS STATE  1.1 Dipole moment          0.54832599    -0.44929897    -0.01205781
 Dipole moment /Debye                   1.39361437    -1.14192927    -0.03064588

 Orbital energies:

         1.1          2.1          3.1          4.1          5.1          6.1          7.1
    -18.755033    -0.930817    -0.483376    -0.343715    -0.266300    -0.034811     0.013565


 HOMO      5.1    -0.266300 =      -7.2464eV
 LUMO      6.1    -0.034811 =      -0.9472eV
 LUMO-HOMO         0.231489 =       6.2991eV


 **********************************************************************************************************************************
 DATASETS  * FILE   NREC   LENGTH (MB)   RECORD NAMES
              1      19       42.11       500      610      700      900      950      970     1000      129      960     1100   
                                          VAR    BASINP    GEOM    SYMINP    ZMAT    AOBASIS   BASIS     P2S    ABASIS      S 
                                         1400     1410     1200     1210     1080     1600     1650     1700     1800   
                                           T        V       H0       H01     AOSYM     SMH    MOLCAS    OPER     GRID   

              2       7       40.95       700     1000      520     1800     2101     2201     2301   
                                         GEOM     BASIS   MCVARS    GRID      RKS      RKS      RKS  

 PROGRAMS   *        TOTAL   RKS-SCF       INT   RKS-SCF       INT   RKS-SCF       INT
 CPU TIMES  *     10184.65   2850.82      0.39   3028.86      0.42   4303.21      0.73
 REAL TIME  *     10211.97 SEC
 DISK USED  *       103.00 MB (local),      412.01 MB (total)
 SF USED    *         3.96 MB
 GA USED    *         2.09 MB       (max)       2.09 MB       (current)
 **********************************************************************************************************************************
 SETTING EB_PBE         =       -76.38817584  AU                              
 SETTING E_AB_INT       =        -0.00693684  AU                              

 *** results in hartree
 E_AB_INT         =        -0.00693684 AU
 Molecular orbitals read from record     2301.2  Type=RKS/CANONICAL (state 1.1)
 Occupation numbers read from record     2301.2  Type=RKS/RHF (state 1.1)
 Orbital energies read from record       2301.2  Type=RKS/CANONICAL (state 1.1)
 Redundancy group numbers read from rec  2301.2  Type=RKS/RHF (state 1.1)

 RPBE/aug-cc-pV5Z energy=    -76.388175840987

         RKS-SCF         RKS-SCF         RKS-SCF
    -76.38817584    -76.38817383   -152.78328651
 **********************************************************************************************************************************
 Molpro calculation terminated
