
 Primary working directories    : /scratch/sirous/460831/molpro.d7rHJN9A5p
 Secondary working directories  : /scratch/sirous/460831/molpro.d7rHJN9A5p
 Wavefunction directory         : /scratch/sirous/460831/
 Main file repository           : /scratch/sirous/460831/molpro.d7rHJN9A5p/

 id        : karlovklimes

 Nodes                      nprocs
 nc-06.cc.karlov.mff.cuni.cz    4

 Using customized tuning parameters: mindgm=1; mindgv=20; mindgc=4; mindgr=1; noblas=0; minvec=7
 default implementation of scratch files=sf  


 Variables initialized (934), CPU time= 0.00 sec
 ***,CH3C6H4CN+CF3CN+BF3
 memory,500,m
 gdirect
 gthresh,energy=1.d-8,twoint=1.d-19,oneint=1.d-19,zero=1.d-15,orbital=1.d-8,grid=1.d-8
 symmetry,nosym
 geomtyp=xyz
                                                                                 ! Geometry
 geometry={
 H1        0.0176077530000000    0.6404641599999999     -0.7613515990000000
 H2        -0.0133778400000000    0.6316333020000000     0.7545505100000000
 H3        0.0240861940000000    4.5269150510000005     0.0012916600000000
 H4        0.9847960170000000    5.6998273130000001     -0.0163366190000000
 O1        0.0000000000000000    1.2272060000000000     0.0000000000000000
 O2        0.0472419370000000    5.4880053420000001     0.0025334240000000
 }
 
 
 
 basis=av5z
 
 
 
                                                                                 ! Dimer Calculation
 {rks,pbe,accu=1.d-8;orbital,2101.2}
 eab_PBE=energy
 
 
                                                                                 !monomer A
 dummy,3,4,6;                                                                    ! NOW MONOMER B IS DUMMY
 {rks,pbe,accu=1.d-8;orbital,2201.2}
 ea_PBE=energy
                                                                                 !monomer B
 dummy,1,2,5;                                                                    !NOW MONOMER A IS DUMMY
 {rks,pbe,accu=1.d-8;orbital,2301.2}
 eb_PBE=energy
 
 E_AB_int=eab_PBE-ea_PBE-eb_PBE
 
 
 text,results in hartree
 show,E_AB_int
 
 Commands  initialized (763), CPU time= 0.02 sec, 617 directives.
 Default parameters read. Elapsed time= 0.29 sec

 Checking input...
 Passed
1


                                         ***  PROGRAM SYSTEM MOLPRO  ***
                                       Copyright, TTI GmbH Stuttgart, 2015
                                    Version 2019.2 linked Jun  8 2019 11:26:33


 **********************************************************************************************************************************
 LABEL *   CH3C6H4CN+CF3CN+BF3                                                           
  64 bit mpp version                                                                     DATE: 27-Mar-20          TIME: 14:07:15  
 **********************************************************************************************************************************

 SHA1:             8135a10abc80eafa5b3ae28ffc55be4890dc4c84
 **********************************************************************************************************************************

 THRESHOLDS:

 ZERO    =  1.00D-15  ONEINT  =  1.00D-19  TWOINT  =  1.00D-19  PREFAC  =  1.00D-14  XXXXXX  =  1.00D-09  EORDER  =  1.00D-04
 ENERGY  =  1.00D-08  ETEST   =  0.00D+00  EDENS   =  0.00D+00  THRDEDEF=  1.00D-06  GRADIENT=  1.00D-02  STEP    =  1.00D-03
 ORBITAL =  1.00D-08  CIVEC   =  1.00D-05  COEFF   =  1.00D-04  PRINTCI =  5.00D-02  PUNCHCI =  9.90D+01  OPTGRAD =  3.00D-04
 OPTENERG=  1.00D-06  OPTSTEP =  3.00D-04  THRGRAD =  1.00D-10  COMPRESS=  1.00D-11  VARMIN  =  1.00D-07  VARMAX  =  1.00D-03
 THRDOUB =  0.00D+00  THRDIV  =  1.00D-05  THRRED  =  1.00D-07  THRPSP  =  1.00D+00  THRDC   =  1.00D-10  THRCS   =  1.00D-10
 THRNRM  =  1.00D-08  THREQ   =  0.00D+00  THRDE   =  1.00D+00  THRREF  =  1.00D-05  SPARFAC =  1.00D+00  THRDLP  =  1.00D-07
 THRDIA  =  1.00D-10  THRDLS  =  1.00D-07  THRGPS  =  0.00D+00  THRKEX  =  0.00D+00  THRDIS  =  2.00D-01  THRVAR  =  1.00D-10
 THRLOC  =  1.00D-06  THRGAP  =  1.00D-06  THRLOCT = -1.00D+00  THRGAPT = -1.00D+00  THRORB  =  1.00D-06  THRMLTP =  0.00D+00
 THRCPQCI=  1.00D-10  KEXTA   =  0.00D+00  THRCOARS=  0.00D+00  SYMTOL  =  1.00D-06  GRADTOL =  1.00D-06  THROVL  =  1.00D-08
 THRORTH =  1.00D-08  GRID    =  1.00D-08  GRIDMAX =  1.00D-03  DTMAX   =  0.00D+00  THROCCDE=  1.00D-01  THROCCDE=  1.00D-01
 THRPRINT=  2.50D-01


 Variable memory set to  500000000 words,  buffer space 

 SETTING GEOMTYP        =    XYZ
 ZSYMEL=NOSYM

 SETTING BASIS          =    AV5Z


 Recomputing integrals since basis changed


 Using spherical harmonics

 Library entry H      S aug-cc-pV5Z          selected for orbital group  1
 Library entry H      P aug-cc-pV5Z          selected for orbital group  1
 Library entry H      D aug-cc-pV5Z          selected for orbital group  1
 Library entry H      F aug-cc-pV5Z          selected for orbital group  1
 Library entry H      G aug-cc-pV5Z          selected for orbital group  1
 Library entry O      S aug-cc-pV5Z          selected for orbital group  2
 Library entry O      P aug-cc-pV5Z          selected for orbital group  2
 Library entry O      D aug-cc-pV5Z          selected for orbital group  2
 Library entry O      F aug-cc-pV5Z          selected for orbital group  2
 Library entry O      G aug-cc-pV5Z          selected for orbital group  2
 Library entry O      H aug-cc-pV5Z          selected for orbital group  2


 PROGRAM * SEWARD (Integral evaluation for generally contracted gaussian basis sets)     Author: Roland Lindh, 1990

 Geometry written to block  1 of record 700


 Point group  C1  



 ATOMIC COORDINATES

 NR  ATOM    CHARGE       X              Y              Z

   1  H1      1.00    0.033273831    1.210301855   -1.438746007
   2  H2      1.00   -0.025280454    1.193613952    1.425893811
   3  H3      1.00    0.045516310    8.554629636    0.002440884
   4  H4      1.00    1.860994761   10.771112579   -0.030871736
   5  O1      8.00    0.000000000    2.319083238    0.000000000
   6  O2      8.00    0.089274323   10.370827067    0.004787478

 Bond lengths in Bohr (Angstrom)

 1-5  1.816726005  2-5  1.816726005  3-6  1.816726005  4-6  1.816726006
     ( 0.961370000)     ( 0.961370000)     ( 0.961370001)     ( 0.961370001)

 Bond angles

  1-5-2  104.10700004   3-6-4  104.10699993

 NUCLEAR CHARGE:                   20
 NUMBER OF PRIMITIVE AOS:         830
 NUMBER OF SYMMETRY AOS:          620
 NUMBER OF CONTRACTIONS:          574   (  574A   )
 NUMBER OF CORE ORBITALS:           2   (    2A   )
 NUMBER OF VALENCE ORBITALS:       12   (   12A   )


 NUCLEAR REPULSION ENERGY   30.66154049


 Eigenvalues of metric

         1 0.104E-04 0.120E-04 0.122E-04 0.137E-04 0.528E-04 0.555E-04 0.635E-04 0.705E-04


 OPERATOR DM      FOR CENTER  0  COORDINATES:    0.000000    0.000000    0.000000


 **********************************************************************************************************************************
 DATASETS  * FILE   NREC   LENGTH (MB)   RECORD NAMES
              1      18       42.11       500      610      700      900      950      970     1000      129      960     1100   
                                          VAR    BASINP    GEOM    SYMINP    ZMAT    AOBASIS   BASIS     P2S    ABASIS      S 
                                         1400     1410     1200     1210     1080     1600     1650     1700   
                                           T        V       H0       H01     AOSYM     SMH    MOLCAS    OPER   

 PROGRAMS   *        TOTAL       INT
 CPU TIMES  *         0.92      0.73
 REAL TIME  *         1.73 SEC
 DISK USED  *        42.66 MB (local),      170.64 MB (total)
 GA USED    *         0.00 MB       (max)       0.00 MB       (current)
 **********************************************************************************************************************************

 Density functional group PBE=PBEX+PBEC
 Functional: PBEX(Automatically generated (new) PBEX)                          Gradient terms: 1
 Functional: PBEC(Automatically generated (new) PBEC)                          Gradient terms: 1
 Use libxcgrid:  F
 Use grid at  1800.2

 Functional: PBEX                      Factor:  1.0000
 Functional: PBEC                      Factor:  1.0000

 Generated new metagrid on record  1800.2 with target accuracy 1.0D-08 and 63112 points in CPU time    0.2
 Computed new grid on record 1800.1 in CPU time    0.2
  465012 words reserved for DFT integration

 PROGRAM * RKS-SCF (Restricted closed shell Kohn-Sham)     Authors: W. Meyer, H.-J. Werner, P.J. Knowles, 1993

 NUMBER OF ELECTRONS:      10+   10-    SPACE SYMMETRY=1    SPIN SYMMETRY: Singlet 
 CONVERGENCE THRESHOLDS:    1.00E-04 (Density)    1.00E-08 (Energy)
 INTEGRAL THRESHOLDS:       1.00E-11 (Initial)    1.00E-11 (Final)
 MAX. NUMBER OF ITERATIONS:       60
 INTERPOLATION TYPE:            DIIS
 INTERPOLATION STEPS:              2 (START)      1 (STEP)
 LEVEL SHIFTS:                  0.00 (CLOSED)  0.00 (OPEN) 



 Use fine grid record 1800.2 for energy threshold  1.0D-08
 Orbital guess generated from atomic densities. Full valence occupancy:   14

 Molecular orbital dump at record        2101.2

 Initial occupancy:  10

 Direct Fock-matrix evaluation.        Authors: Roland Lindh & Martin Schuetz (1993/96)

 Integral Threshold:                  0.1D-10
 Threshold for writing integrals:     0.1D-06
 Prescreening on density matrix:        ON 
 Calculation will be performed fully direct        

 ITERATION   DDIFF            GRAD            ENERGY        2-EL.EN.            DIPOLE MOMENTS         DIIS   CPU(IT)  CPU(TOT)
    1      0.000D+00      0.000D+00      -152.60794281    221.203166    0.85523   -1.80284   -0.02506    0    211.3    220.2     start
    2      0.000D+00      0.651D-02      -151.85323224    188.367794   -0.41234    0.43184    0.01160    1    205.9    426.2     diag
    3      0.691D-02      0.146D-01      -152.77782011    211.953405    0.57209   -1.25832   -0.01677    2    205.4    631.6     diag
    4      0.487D-02      0.391D-03      -152.77862439    211.157012    0.53654   -1.22687   -0.01576    3    190.1    821.7     diag
    5      0.224D-03      0.119D-03      -152.77865178    211.224508    0.54435   -1.21892   -0.01593    4    173.3    995.0     diag
    6      0.617D-04      0.832D-04      -152.77867746    211.260172    0.54146   -1.22109   -0.01590    5    165.7   1160.7     diag
    7      0.320D-04      0.140D-04      -152.77867824    211.269618    0.54247   -1.22319   -0.01591    6    154.1   1314.8     diag
    8      0.475D-05      0.790D-06      -152.77867824    211.269203    0.54249   -1.22299   -0.01592    7    126.8   1441.5     diag
    9      0.305D-06      0.222D-06      -152.77867824    211.269170    0.54244   -1.22303   -0.01592    0     91.5   1533.1     orth

 Final occupancy:  10

 !RKS STATE  1.1 Energy              -152.778678240802
 Nuclear energy                        30.66154049
 One-electron energy                 -270.59762043
 Two-electron energy                  105.63458507
 Density functional                   -18.47718337     PBEX=-17.82845194 PBEC= -0.64873143
 Virial quotient                       -1.00342426
 !RKS STATE  1.1 Dipole moment          0.54243951    -1.22303144    -0.01591574
 Dipole moment /Debye                   1.37865340    -3.10843225    -0.04045113

 Orbital energies:

         1.1          2.1          3.1          4.1          5.1          6.1          7.1          8.1          9.1         10.1
    -18.764525   -18.743073    -0.940174    -0.918851    -0.492551    -0.471206    -0.354722    -0.332079    -0.275861    -0.254976

        11.1         12.1
     -0.044080    -0.017862


 HOMO     10.1    -0.254976 =      -6.9383eV
 LUMO     11.1    -0.044080 =      -1.1995eV
 LUMO-HOMO         0.210896 =       5.7388eV


 **********************************************************************************************************************************
 DATASETS  * FILE   NREC   LENGTH (MB)   RECORD NAMES
              1      19       42.11       500      610      700      900      950      970     1000      129      960     1100   
                                          VAR    BASINP    GEOM    SYMINP    ZMAT    AOBASIS   BASIS     P2S    ABASIS      S 
                                         1400     1410     1200     1210     1080     1600     1650     1700     1800   
                                           T        V       H0       H01     AOSYM     SMH    MOLCAS    OPER     GRID   

              2       5        9.55       700     1000      520     1800     2101   
                                         GEOM     BASIS   MCVARS    GRID      RKS  

 PROGRAMS   *        TOTAL   RKS-SCF       INT
 CPU TIMES  *      1534.68   1533.76      0.73
 REAL TIME  *      1549.62 SEC
 DISK USED  *        72.92 MB (local),      291.67 MB (total)
 SF USED    *         3.96 MB
 GA USED    *         2.09 MB       (max)       2.09 MB       (current)
 **********************************************************************************************************************************
 SETTING EAB_PBE        =      -152.77867824  AU                              

 Dummy atoms: H3  H4  O2


 Recomputing one-electron integrals since nuclear charges changed


 PROGRAM * SEWARD (Integral evaluation for generally contracted gaussian basis sets)     Author: Roland Lindh, 1990

 Geometry written to block  1 of record 700


 Point group  C1  



 ATOMIC COORDINATES

 NR  ATOM    CHARGE       X              Y              Z

   1  H1      1.00    0.033273831    1.210301855   -1.438746007
   2  H2      1.00   -0.025280454    1.193613952    1.425893811
   3  H3      0.00    0.045516310    8.554629636    0.002440884
   4  H4      0.00    1.860994761   10.771112579   -0.030871736
   5  O1      8.00    0.000000000    2.319083238    0.000000000
   6  O2      0.00    0.089274323   10.370827067    0.004787478

 Bond lengths in Bohr (Angstrom)

 1-5  1.816726005  2-5  1.816726005  3-6  1.816726005  4-6  1.816726006
     ( 0.961370000)     ( 0.961370000)     ( 0.961370001)     ( 0.961370001)

 Bond angles

  1-5-2  104.10700004   3-6-4  104.10699993

 NUCLEAR CHARGE:                   10
 NUMBER OF PRIMITIVE AOS:         830
 NUMBER OF SYMMETRY AOS:          620
 NUMBER OF CONTRACTIONS:          574   (  574A   )
 NUMBER OF CORE ORBITALS:           1   (    1A   )
 NUMBER OF VALENCE ORBITALS:        6   (    6A   )

 MOLECULE CHANGED: INITIALIZING OCCUPATION AND DUMP RECORDS


 NUCLEAR REPULSION ENERGY    9.15605699


 Eigenvalues of metric

         1 0.104E-04 0.120E-04 0.122E-04 0.137E-04 0.528E-04 0.555E-04 0.635E-04 0.705E-04


 OPERATOR DM      FOR CENTER  0  COORDINATES:    0.000000    0.000000    0.000000


 **********************************************************************************************************************************
 DATASETS  * FILE   NREC   LENGTH (MB)   RECORD NAMES
              1      19       42.11       500      610      700      900      950      970     1000      129      960     1100   
                                          VAR    BASINP    GEOM    SYMINP    ZMAT    AOBASIS   BASIS     P2S    ABASIS      S 
                                         1400     1410     1200     1210     1080     1600     1650     1700     1800   
                                           T        V       H0       H01     AOSYM     SMH    MOLCAS    OPER     GRID   

              2       5        9.55       700     1000      520     1800     2101   
                                         GEOM     BASIS   MCVARS    GRID      RKS  

 PROGRAMS   *        TOTAL       INT   RKS-SCF       INT
 CPU TIMES  *      1535.13      0.44   1533.76      0.73
 REAL TIME  *      1550.13 SEC
 DISK USED  *        72.92 MB (local),      291.67 MB (total)
 SF USED    *         3.96 MB
 GA USED    *         2.09 MB       (max)       2.09 MB       (current)
 **********************************************************************************************************************************

 Density functional group PBE=PBEX+PBEC
 Functional: PBEX(Automatically generated (new) PBEX)                          Gradient terms: 1
 Functional: PBEC(Automatically generated (new) PBEC)                          Gradient terms: 1
 Use libxcgrid:  F
 Use grid at  1800.2

 Functional: PBEX                      Factor:  1.0000
 Functional: PBEC                      Factor:  1.0000

 Generated new metagrid on record  1800.2 with target accuracy 1.0D-08 and 63112 points in CPU time    0.1
 Computed new grid on record 1800.1 in CPU time    0.2
  465012 words reserved for DFT integration

 PROGRAM * RKS-SCF (Restricted closed shell Kohn-Sham)     Authors: W. Meyer, H.-J. Werner, P.J. Knowles, 1993

 NUMBER OF ELECTRONS:       5+    5-    SPACE SYMMETRY=1    SPIN SYMMETRY: Singlet 
 CONVERGENCE THRESHOLDS:    1.00E-04 (Density)    1.00E-08 (Energy)
 INTEGRAL THRESHOLDS:       1.00E-11 (Initial)    1.00E-11 (Final)
 MAX. NUMBER OF ITERATIONS:       60
 INTERPOLATION TYPE:            DIIS
 INTERPOLATION STEPS:              2 (START)      1 (STEP)
 LEVEL SHIFTS:                  0.00 (CLOSED)  0.00 (OPEN) 



 Use fine grid record 1800.2 for energy threshold  1.0D-08
 Orbital guess generated from atomic densities. Full valence occupancy:    7

 Molecular orbital dump at record        2201.2

 Initial occupancy:   5

 Direct Fock-matrix evaluation.        Authors: Roland Lindh & Martin Schuetz (1993/96)

 Integral Threshold:                  0.1D-10
 Threshold for writing integrals:     0.1D-06
 Prescreening on density matrix:        ON 
 Calculation will be performed fully direct        

 ITERATION   DDIFF            GRAD            ENERGY        2-EL.EN.            DIPOLE MOMENTS         DIIS   CPU(IT)  CPU(TOT)
    1      0.000D+00      0.000D+00       -76.30159824     98.228145    0.00394   -1.10079   -0.00633    0    193.4    201.1     start
    2      0.000D+00      0.651D-02       -75.91007387     81.739877   -0.00183    0.45562    0.00265    1    202.7    403.8     diag
    3      0.501D-02      0.148D-01       -76.38773044     93.606053    0.00264   -0.73837   -0.00425    2    202.2    606.0     diag
    4      0.359D-02      0.390D-03       -76.38815563     93.200362    0.00253   -0.70823   -0.00407    3    175.6    781.6     diag
    5      0.169D-03      0.856D-04       -76.38816924     93.251451    0.00253   -0.70674   -0.00407    4    152.7    934.3     diag
    6      0.240D-04      0.192D-04       -76.38817002     93.261989    0.00254   -0.70909   -0.00408    5    133.4   1067.7     diag
    7      0.468D-05      0.894D-06       -76.38817002     93.261747    0.00254   -0.70895   -0.00408    6     94.6   1162.3     diag
    8      0.229D-06      0.593D-07       -76.38817002     93.261835    0.00254   -0.70896   -0.00408    0     52.8   1215.1     orth

 Final occupancy:   5

 !RKS STATE  1.1 Energy               -76.388170022119
 Nuclear energy                         9.15605699
 One-electron energy                 -122.93681516
 Two-electron energy                   46.63091725
 Density functional                    -9.23832910     PBEX=-8.91399704 PBEC=-0.32433206
 Virial quotient                       -1.00337991
 !RKS STATE  1.1 Dipole moment          0.00253709    -0.70896434    -0.00407840
 Dipole moment /Debye                   0.00644822    -1.80188960    -0.01036559

 Orbital energies:

         1.1          2.1          3.1          4.1          5.1          6.1          7.1
    -18.755009    -0.930818    -0.483376    -0.343716    -0.266300    -0.034731     0.014449


 HOMO      5.1    -0.266300 =      -7.2464eV
 LUMO      6.1    -0.034731 =      -0.9451eV
 LUMO-HOMO         0.231569 =       6.3013eV


 **********************************************************************************************************************************
 DATASETS  * FILE   NREC   LENGTH (MB)   RECORD NAMES
              1      19       42.11       500      610      700      900      950      970     1000      129      960     1100   
                                          VAR    BASINP    GEOM    SYMINP    ZMAT    AOBASIS   BASIS     P2S    ABASIS      S 
                                         1400     1410     1200     1210     1080     1600     1650     1700     1800   
                                           T        V       H0       H01     AOSYM     SMH    MOLCAS    OPER     GRID   

              2       6       25.25       700     1000      520     1800     2101     2201   
                                         GEOM     BASIS   MCVARS    GRID      RKS      RKS  

 PROGRAMS   *        TOTAL   RKS-SCF       INT   RKS-SCF       INT
 CPU TIMES  *      2750.85   1215.72      0.44   1533.76      0.73
 REAL TIME  *      2776.51 SEC
 DISK USED  *        87.30 MB (local),      349.20 MB (total)
 SF USED    *         3.96 MB
 GA USED    *         2.09 MB       (max)       2.09 MB       (current)
 **********************************************************************************************************************************
 SETTING EA_PBE         =       -76.38817002  AU                              

 Dummy atoms: H1  H2  O1


 Recomputing one-electron integrals since nuclear charges changed


 PROGRAM * SEWARD (Integral evaluation for generally contracted gaussian basis sets)     Author: Roland Lindh, 1990

 Geometry written to block  1 of record 700


 Point group  C1  



 ATOMIC COORDINATES

 NR  ATOM    CHARGE       X              Y              Z

   1  H1      0.00    0.033273831    1.210301855   -1.438746007
   2  H2      0.00   -0.025280454    1.193613952    1.425893811
   3  H3      1.00    0.045516310    8.554629636    0.002440884
   4  H4      1.00    1.860994761   10.771112579   -0.030871736
   5  O1      0.00    0.000000000    2.319083238    0.000000000
   6  O2      8.00    0.089274323   10.370827067    0.004787478

 Bond lengths in Bohr (Angstrom)

 1-5  1.816726005  2-5  1.816726005  3-6  1.816726005  4-6  1.816726006
     ( 0.961370000)     ( 0.961370000)     ( 0.961370001)     ( 0.961370001)

 Bond angles

  1-5-2  104.10700004   3-6-4  104.10699993

 NUCLEAR CHARGE:                   10
 NUMBER OF PRIMITIVE AOS:         830
 NUMBER OF SYMMETRY AOS:          620
 NUMBER OF CONTRACTIONS:          574   (  574A   )
 NUMBER OF CORE ORBITALS:           1   (    1A   )
 NUMBER OF VALENCE ORBITALS:        6   (    6A   )

 MOLECULE CHANGED: INITIALIZING OCCUPATION AND DUMP RECORDS


 NUCLEAR REPULSION ENERGY    9.15605698


 Eigenvalues of metric

         1 0.104E-04 0.120E-04 0.122E-04 0.137E-04 0.528E-04 0.555E-04 0.635E-04 0.705E-04


 OPERATOR DM      FOR CENTER  0  COORDINATES:    0.000000    0.000000    0.000000


 **********************************************************************************************************************************
 DATASETS  * FILE   NREC   LENGTH (MB)   RECORD NAMES
              1      19       42.11       500      610      700      900      950      970     1000      129      960     1100   
                                          VAR    BASINP    GEOM    SYMINP    ZMAT    AOBASIS   BASIS     P2S    ABASIS      S 
                                         1400     1410     1200     1210     1080     1600     1650     1700     1800   
                                           T        V       H0       H01     AOSYM     SMH    MOLCAS    OPER     GRID   

              2       6       25.25       700     1000      520     1800     2101     2201   
                                         GEOM     BASIS   MCVARS    GRID      RKS      RKS  

 PROGRAMS   *        TOTAL       INT   RKS-SCF       INT   RKS-SCF       INT
 CPU TIMES  *      2751.28      0.42   1215.72      0.44   1533.76      0.73
 REAL TIME  *      2776.98 SEC
 DISK USED  *        87.30 MB (local),      349.20 MB (total)
 SF USED    *         3.96 MB
 GA USED    *         2.09 MB       (max)       2.09 MB       (current)
 **********************************************************************************************************************************

 Density functional group PBE=PBEX+PBEC
 Functional: PBEX(Automatically generated (new) PBEX)                          Gradient terms: 1
 Functional: PBEC(Automatically generated (new) PBEC)                          Gradient terms: 1
 Use libxcgrid:  F
 Use grid at  1800.2

 Functional: PBEX                      Factor:  1.0000
 Functional: PBEC                      Factor:  1.0000

  465012 words reserved for DFT integration

 PROGRAM * RKS-SCF (Restricted closed shell Kohn-Sham)     Authors: W. Meyer, H.-J. Werner, P.J. Knowles, 1993

 NUMBER OF ELECTRONS:       5+    5-    SPACE SYMMETRY=1    SPIN SYMMETRY: Singlet 
 CONVERGENCE THRESHOLDS:    1.00E-04 (Density)    1.00E-08 (Energy)
 INTEGRAL THRESHOLDS:       1.00E-11 (Initial)    1.00E-11 (Final)
 MAX. NUMBER OF ITERATIONS:       60
 INTERPOLATION TYPE:            DIIS
 INTERPOLATION STEPS:              2 (START)      1 (STEP)
 LEVEL SHIFTS:                  0.00 (CLOSED)  0.00 (OPEN) 



 Use fine grid record 1800.2 for energy threshold  1.0D-08
 Orbital guess generated from atomic densities. Full valence occupancy:    7

 Molecular orbital dump at record        2301.2

 Initial occupancy:   5

 Direct Fock-matrix evaluation.        Authors: Roland Lindh & Martin Schuetz (1993/96)

 Integral Threshold:                  0.1D-10
 Threshold for writing integrals:     0.1D-06
 Prescreening on density matrix:        ON 
 Calculation will be performed fully direct        

 ITERATION   DDIFF            GRAD            ENERGY        2-EL.EN.            DIPOLE MOMENTS         DIIS   CPU(IT)  CPU(TOT)
    1      0.000D+00      0.000D+00       -76.30159904     98.228121    0.85134   -0.69760   -0.01872    0    193.3    201.2     start
    2      0.000D+00      0.651D-02       -75.90978306     81.734754   -0.35323    0.29349    0.00782    1    198.7    400.0     diag
    3      0.488D-02      0.148D-01       -76.38772985     93.606395    0.57105   -0.46798   -0.01256    2    199.0    599.0     diag
    4      0.342D-02      0.390D-03       -76.38815599     93.200213    0.54776   -0.44882   -0.01205    3    181.0    780.0     diag
    5      0.159D-03      0.858D-04       -76.38816966     93.251403    0.54659   -0.44789   -0.01202    4    154.0    934.0     diag
    6      0.213D-04      0.192D-04       -76.38817044     93.261961    0.54841   -0.44938   -0.01206    5    130.3   1064.2     diag
    7      0.447D-05      0.895D-06       -76.38817045     93.261719    0.54831   -0.44929   -0.01206    6    101.8   1166.1     diag
    8      0.227D-06      0.598D-07       -76.38817045     93.261808    0.54832   -0.44930   -0.01206    0     57.6   1223.7     orth

 Final occupancy:   5

 !RKS STATE  1.1 Energy               -76.388170446586
 Nuclear energy                         9.15605698
 One-electron energy                 -122.93680384
 Two-electron energy                   46.63090379
 Density functional                    -9.23832738     PBEX=-8.91399555 PBEC=-0.32433182
 Virial quotient                       -1.00337977
 !RKS STATE  1.1 Dipole moment          0.54831961    -0.44930245    -0.01205878
 Dipole moment /Debye                   1.39359816    -1.14193813    -0.03064836

 Orbital energies:

         1.1          2.1          3.1          4.1          5.1          6.1          7.1
    -18.755011    -0.930819    -0.483377    -0.343717    -0.266301    -0.034799     0.013230


 HOMO      5.1    -0.266301 =      -7.2464eV
 LUMO      6.1    -0.034799 =      -0.9469eV
 LUMO-HOMO         0.231502 =       6.2995eV


 **********************************************************************************************************************************
 DATASETS  * FILE   NREC   LENGTH (MB)   RECORD NAMES
              1      19       42.11       500      610      700      900      950      970     1000      129      960     1100   
                                          VAR    BASINP    GEOM    SYMINP    ZMAT    AOBASIS   BASIS     P2S    ABASIS      S 
                                         1400     1410     1200     1210     1080     1600     1650     1700     1800   
                                           T        V       H0       H01     AOSYM     SMH    MOLCAS    OPER     GRID   

              2       7       40.95       700     1000      520     1800     2101     2201     2301   
                                         GEOM     BASIS   MCVARS    GRID      RKS      RKS      RKS  

 PROGRAMS   *        TOTAL   RKS-SCF       INT   RKS-SCF       INT   RKS-SCF       INT
 CPU TIMES  *      3975.46   1224.18      0.42   1215.72      0.44   1533.76      0.73
 REAL TIME  *      4011.78 SEC
 DISK USED  *       103.00 MB (local),      412.01 MB (total)
 SF USED    *         3.96 MB
 GA USED    *         2.09 MB       (max)       2.09 MB       (current)
 **********************************************************************************************************************************
 SETTING EB_PBE         =       -76.38817045  AU                              
 SETTING E_AB_INT       =        -0.00233777  AU                              

 *** results in hartree
 E_AB_INT         =        -0.00233777 AU
 Molecular orbitals read from record     2301.2  Type=RKS/CANONICAL (state 1.1)
 Occupation numbers read from record     2301.2  Type=RKS/RHF (state 1.1)
 Orbital energies read from record       2301.2  Type=RKS/CANONICAL (state 1.1)
 Redundancy group numbers read from rec  2301.2  Type=RKS/RHF (state 1.1)

 RPBE/aug-cc-pV5Z energy=    -76.388170446586

         RKS-SCF         RKS-SCF         RKS-SCF
    -76.38817045    -76.38817002   -152.77867824
 **********************************************************************************************************************************
 Molpro calculation terminated
