
 Primary working directories    : /scratch/sirous/460842/molpro.ljXLdvPHjO
 Secondary working directories  : /scratch/sirous/460842/molpro.ljXLdvPHjO
 Wavefunction directory         : /scratch/sirous/460842/
 Main file repository           : /scratch/sirous/460842/molpro.ljXLdvPHjO/

 id        : karlovklimes

 Nodes                      nprocs
 nc-09.cc.karlov.mff.cuni.cz    4

 Using customized tuning parameters: mindgm=1; mindgv=20; mindgc=4; mindgr=1; noblas=0; minvec=7
 default implementation of scratch files=sf  


 Variables initialized (934), CPU time= 0.00 sec
 ***,CH3C6H4CN+CF3CN+BF3
 memory,500,m
 gdirect
 gthresh,energy=1.d-8,twoint=1.d-19,oneint=1.d-19,zero=1.d-15,orbital=1.d-8,grid=1.d-8
 symmetry,nosym
 geomtyp=xyz
                                                                                 ! Geometry
 geometry={
 H1        0.0176077530000000    0.6404641599999999     -0.7613515990000000
 H2        -0.0133778400000000    0.6316333020000000     0.7545505100000000
 H3        0.0240861940000000    5.6269150510000010     0.0012916600000000
 H4        0.9847960170000000    6.7998273129999998     -0.0163366190000000
 O1        0.0000000000000000    1.2272060000000000     0.0000000000000000
 O2        0.0472419370000000    6.5880053420000007     0.0025334240000000
 }
 
 
 
 basis=av5z
 
 
 
                                                                                 ! Dimer Calculation
 {rks,pbe,accu=1.d-8;orbital,2101.2}
 eab_PBE=energy
 
 
                                                                                 !monomer A
 dummy,3,4,6;                                                                    ! NOW MONOMER B IS DUMMY
 {rks,pbe,accu=1.d-8;orbital,2201.2}
 ea_PBE=energy
                                                                                 !monomer B
 dummy,1,2,5;                                                                    !NOW MONOMER A IS DUMMY
 {rks,pbe,accu=1.d-8;orbital,2301.2}
 eb_PBE=energy
 
 E_AB_int=eab_PBE-ea_PBE-eb_PBE
 
 
 text,results in hartree
 show,E_AB_int
 
 Commands  initialized (763), CPU time= 0.02 sec, 617 directives.
 Default parameters read. Elapsed time= 0.26 sec

 Checking input...
 Passed
1


                                         ***  PROGRAM SYSTEM MOLPRO  ***
                                       Copyright, TTI GmbH Stuttgart, 2015
                                    Version 2019.2 linked Jun  8 2019 11:26:33


 **********************************************************************************************************************************
 LABEL *   CH3C6H4CN+CF3CN+BF3                                                           
  64 bit mpp version                                                                     DATE: 27-Mar-20          TIME: 14:07:47  
 **********************************************************************************************************************************

 SHA1:             8135a10abc80eafa5b3ae28ffc55be4890dc4c84
 **********************************************************************************************************************************

 THRESHOLDS:

 ZERO    =  1.00D-15  ONEINT  =  1.00D-19  TWOINT  =  1.00D-19  PREFAC  =  1.00D-14  XXXXXX  =  1.00D-09  EORDER  =  1.00D-04
 ENERGY  =  1.00D-08  ETEST   =  0.00D+00  EDENS   =  0.00D+00  THRDEDEF=  1.00D-06  GRADIENT=  1.00D-02  STEP    =  1.00D-03
 ORBITAL =  1.00D-08  CIVEC   =  1.00D-05  COEFF   =  1.00D-04  PRINTCI =  5.00D-02  PUNCHCI =  9.90D+01  OPTGRAD =  3.00D-04
 OPTENERG=  1.00D-06  OPTSTEP =  3.00D-04  THRGRAD =  1.00D-10  COMPRESS=  1.00D-11  VARMIN  =  1.00D-07  VARMAX  =  1.00D-03
 THRDOUB =  0.00D+00  THRDIV  =  1.00D-05  THRRED  =  1.00D-07  THRPSP  =  1.00D+00  THRDC   =  1.00D-10  THRCS   =  1.00D-10
 THRNRM  =  1.00D-08  THREQ   =  0.00D+00  THRDE   =  1.00D+00  THRREF  =  1.00D-05  SPARFAC =  1.00D+00  THRDLP  =  1.00D-07
 THRDIA  =  1.00D-10  THRDLS  =  1.00D-07  THRGPS  =  0.00D+00  THRKEX  =  0.00D+00  THRDIS  =  2.00D-01  THRVAR  =  1.00D-10
 THRLOC  =  1.00D-06  THRGAP  =  1.00D-06  THRLOCT = -1.00D+00  THRGAPT = -1.00D+00  THRORB  =  1.00D-06  THRMLTP =  0.00D+00
 THRCPQCI=  1.00D-10  KEXTA   =  0.00D+00  THRCOARS=  0.00D+00  SYMTOL  =  1.00D-06  GRADTOL =  1.00D-06  THROVL  =  1.00D-08
 THRORTH =  1.00D-08  GRID    =  1.00D-08  GRIDMAX =  1.00D-03  DTMAX   =  0.00D+00  THROCCDE=  1.00D-01  THROCCDE=  1.00D-01
 THRPRINT=  2.50D-01


 Variable memory set to  500000000 words,  buffer space 

 SETTING GEOMTYP        =    XYZ
 ZSYMEL=NOSYM

 SETTING BASIS          =    AV5Z


 Recomputing integrals since basis changed


 Using spherical harmonics

 Library entry H      S aug-cc-pV5Z          selected for orbital group  1
 Library entry H      P aug-cc-pV5Z          selected for orbital group  1
 Library entry H      D aug-cc-pV5Z          selected for orbital group  1
 Library entry H      F aug-cc-pV5Z          selected for orbital group  1
 Library entry H      G aug-cc-pV5Z          selected for orbital group  1
 Library entry O      S aug-cc-pV5Z          selected for orbital group  2
 Library entry O      P aug-cc-pV5Z          selected for orbital group  2
 Library entry O      D aug-cc-pV5Z          selected for orbital group  2
 Library entry O      F aug-cc-pV5Z          selected for orbital group  2
 Library entry O      G aug-cc-pV5Z          selected for orbital group  2
 Library entry O      H aug-cc-pV5Z          selected for orbital group  2


 PROGRAM * SEWARD (Integral evaluation for generally contracted gaussian basis sets)     Author: Roland Lindh, 1990

 Geometry written to block  1 of record 700


 Point group  C1  



 ATOMIC COORDINATES

 NR  ATOM    CHARGE       X              Y              Z

   1  H1      1.00    0.033273831    1.210301855   -1.438746007
   2  H2      1.00   -0.025280454    1.193613952    1.425893811
   3  H3      1.00    0.045516310   10.633328373    0.002440884
   4  H4      1.00    1.860994761   12.849811316   -0.030871736
   5  O1      8.00    0.000000000    2.319083238    0.000000000
   6  O2      8.00    0.089274323   12.449525804    0.004787478

 Bond lengths in Bohr (Angstrom)

 1-5  1.816726005  2-5  1.816726005  3-6  1.816726005  4-6  1.816726006
     ( 0.961370000)     ( 0.961370000)     ( 0.961370001)     ( 0.961370001)

 Bond angles

  1-5-2  104.10700004   3-6-4  104.10699993

 NUCLEAR CHARGE:                   20
 NUMBER OF PRIMITIVE AOS:         830
 NUMBER OF SYMMETRY AOS:          620
 NUMBER OF CONTRACTIONS:          574   (  574A   )
 NUMBER OF CORE ORBITALS:           2   (    2A   )
 NUMBER OF VALENCE ORBITALS:       12   (   12A   )


 NUCLEAR REPULSION ENERGY   28.12880331


 Eigenvalues of metric

         1 0.124E-04 0.134E-04 0.135E-04 0.141E-04 0.626E-04 0.709E-04 0.731E-04 0.776E-04


 OPERATOR DM      FOR CENTER  0  COORDINATES:    0.000000    0.000000    0.000000


 **********************************************************************************************************************************
 DATASETS  * FILE   NREC   LENGTH (MB)   RECORD NAMES
              1      18       42.11       500      610      700      900      950      970     1000      129      960     1100   
                                          VAR    BASINP    GEOM    SYMINP    ZMAT    AOBASIS   BASIS     P2S    ABASIS      S 
                                         1400     1410     1200     1210     1080     1600     1650     1700   
                                           T        V       H0       H01     AOSYM     SMH    MOLCAS    OPER   

 PROGRAMS   *        TOTAL       INT
 CPU TIMES  *         0.96      0.76
 REAL TIME  *         2.23 SEC
 DISK USED  *        42.66 MB (local),      170.64 MB (total)
 GA USED    *         0.00 MB       (max)       0.00 MB       (current)
 **********************************************************************************************************************************

 Density functional group PBE=PBEX+PBEC
 Functional: PBEX(Automatically generated (new) PBEX)                          Gradient terms: 1
 Functional: PBEC(Automatically generated (new) PBEC)                          Gradient terms: 1
 Use libxcgrid:  F
 Use grid at  1800.2

 Functional: PBEX                      Factor:  1.0000
 Functional: PBEC                      Factor:  1.0000

 Generated new metagrid on record  1800.2 with target accuracy 1.0D-08 and 63112 points in CPU time    0.2
 Computed new grid on record 1800.1 in CPU time    0.2
  465012 words reserved for DFT integration

 PROGRAM * RKS-SCF (Restricted closed shell Kohn-Sham)     Authors: W. Meyer, H.-J. Werner, P.J. Knowles, 1993

 NUMBER OF ELECTRONS:      10+   10-    SPACE SYMMETRY=1    SPIN SYMMETRY: Singlet 
 CONVERGENCE THRESHOLDS:    1.00E-04 (Density)    1.00E-08 (Energy)
 INTEGRAL THRESHOLDS:       1.00E-11 (Initial)    1.00E-11 (Final)
 MAX. NUMBER OF ITERATIONS:       60
 INTERPOLATION TYPE:            DIIS
 INTERPOLATION STEPS:              2 (START)      1 (STEP)
 LEVEL SHIFTS:                  0.00 (CLOSED)  0.00 (OPEN) 



 Use fine grid record 1800.2 for energy threshold  1.0D-08
 Orbital guess generated from atomic densities. Full valence occupancy:   14

 Molecular orbital dump at record        2101.2

 Initial occupancy:  10

 Direct Fock-matrix evaluation.        Authors: Roland Lindh & Martin Schuetz (1993/96)

 Integral Threshold:                  0.1D-10
 Threshold for writing integrals:     0.1D-06
 Prescreening on density matrix:        ON 
 Calculation will be performed fully direct        

 ITERATION   DDIFF            GRAD            ENERGY        2-EL.EN.            DIPOLE MOMENTS         DIIS   CPU(IT)  CPU(TOT)
    1      0.000D+00      0.000D+00      -152.60521202    216.137449    0.85528   -1.79893   -0.02506    0    184.1    194.9     start
    2      0.000D+00      0.653D-02      -151.83643791    183.202023   -0.38514    0.58189    0.01084    1    179.5    374.5     diag
    3      0.689D-02      0.147D-01      -152.77643006    206.880881    0.57241   -1.22831   -0.01677    2    179.7    554.2     diag
    4      0.483D-02      0.391D-03      -152.77726455    206.075021    0.54372   -1.18895   -0.01594    3    169.2    723.4     diag
    5      0.219D-03      0.895D-04      -152.77728798    206.167200    0.54661   -1.18301   -0.01601    4    157.3    880.7     diag
    6      0.385D-04      0.441D-04      -152.77729386    206.187377    0.54503   -1.18647   -0.01599    5    149.7   1030.4     diag
    7      0.209D-04      0.208D-04      -152.77729550    206.193755    0.54643   -1.18763   -0.01602    6    145.0   1175.3     diag
    8      0.725D-05      0.758D-06      -152.77729550    206.193334    0.54640   -1.18745   -0.01602    7    123.9   1299.2     diag
    9      0.258D-06      0.122D-06      -152.77729550    206.193410    0.54637   -1.18749   -0.01602    0     81.2   1380.4     orth

 Final occupancy:  10

 !RKS STATE  1.1 Energy              -152.777295499091
 Nuclear energy                        28.12880331
 One-electron energy                 -265.52591784
 Two-electron energy                  103.09670495
 Density functional                   -18.47688592     PBEX=-17.82820564 PBEC= -0.64868028
 Virial quotient                       -1.00339817
 !RKS STATE  1.1 Dipole moment          0.54637486    -1.18748706    -0.01601544
 Dipole moment /Debye                   1.38865543    -3.01809337    -0.04070451

 Orbital energies:

         1.1          2.1          3.1          4.1          5.1          6.1          7.1          8.1          9.1         10.1
    -18.760408   -18.747728    -0.936175    -0.923524    -0.488677    -0.475995    -0.349672    -0.336629    -0.271779    -0.259280

        11.1         12.1
     -0.041078    -0.024592


 HOMO     10.1    -0.259280 =      -7.0554eV
 LUMO     11.1    -0.041078 =      -1.1178eV
 LUMO-HOMO         0.218202 =       5.9376eV


 **********************************************************************************************************************************
 DATASETS  * FILE   NREC   LENGTH (MB)   RECORD NAMES
              1      19       42.11       500      610      700      900      950      970     1000      129      960     1100   
                                          VAR    BASINP    GEOM    SYMINP    ZMAT    AOBASIS   BASIS     P2S    ABASIS      S 
                                         1400     1410     1200     1210     1080     1600     1650     1700     1800   
                                           T        V       H0       H01     AOSYM     SMH    MOLCAS    OPER     GRID   

              2       5        9.55       700     1000      520     1800     2101   
                                         GEOM     BASIS   MCVARS    GRID      RKS  

 PROGRAMS   *        TOTAL   RKS-SCF       INT
 CPU TIMES  *      1382.08   1381.11      0.76
 REAL TIME  *      1393.51 SEC
 DISK USED  *        72.92 MB (local),      291.67 MB (total)
 SF USED    *         3.96 MB
 GA USED    *         2.09 MB       (max)       2.09 MB       (current)
 **********************************************************************************************************************************
 SETTING EAB_PBE        =      -152.77729550  AU                              

 Dummy atoms: H3  H4  O2


 Recomputing one-electron integrals since nuclear charges changed


 PROGRAM * SEWARD (Integral evaluation for generally contracted gaussian basis sets)     Author: Roland Lindh, 1990

 Geometry written to block  1 of record 700


 Point group  C1  



 ATOMIC COORDINATES

 NR  ATOM    CHARGE       X              Y              Z

   1  H1      1.00    0.033273831    1.210301855   -1.438746007
   2  H2      1.00   -0.025280454    1.193613952    1.425893811
   3  H3      0.00    0.045516310   10.633328373    0.002440884
   4  H4      0.00    1.860994761   12.849811316   -0.030871736
   5  O1      8.00    0.000000000    2.319083238    0.000000000
   6  O2      0.00    0.089274323   12.449525804    0.004787478

 Bond lengths in Bohr (Angstrom)

 1-5  1.816726005  2-5  1.816726005  3-6  1.816726005  4-6  1.816726006
     ( 0.961370000)     ( 0.961370000)     ( 0.961370001)     ( 0.961370001)

 Bond angles

  1-5-2  104.10700004   3-6-4  104.10699993

 NUCLEAR CHARGE:                   10
 NUMBER OF PRIMITIVE AOS:         830
 NUMBER OF SYMMETRY AOS:          620
 NUMBER OF CONTRACTIONS:          574   (  574A   )
 NUMBER OF CORE ORBITALS:           1   (    1A   )
 NUMBER OF VALENCE ORBITALS:        6   (    6A   )

 MOLECULE CHANGED: INITIALIZING OCCUPATION AND DUMP RECORDS


 NUCLEAR REPULSION ENERGY    9.15605699


 Eigenvalues of metric

         1 0.124E-04 0.134E-04 0.135E-04 0.141E-04 0.626E-04 0.709E-04 0.731E-04 0.776E-04


 OPERATOR DM      FOR CENTER  0  COORDINATES:    0.000000    0.000000    0.000000


 **********************************************************************************************************************************
 DATASETS  * FILE   NREC   LENGTH (MB)   RECORD NAMES
              1      19       42.11       500      610      700      900      950      970     1000      129      960     1100   
                                          VAR    BASINP    GEOM    SYMINP    ZMAT    AOBASIS   BASIS     P2S    ABASIS      S 
                                         1400     1410     1200     1210     1080     1600     1650     1700     1800   
                                           T        V       H0       H01     AOSYM     SMH    MOLCAS    OPER     GRID   

              2       5        9.55       700     1000      520     1800     2101   
                                         GEOM     BASIS   MCVARS    GRID      RKS  

 PROGRAMS   *        TOTAL       INT   RKS-SCF       INT
 CPU TIMES  *      1382.53      0.45   1381.11      0.76
 REAL TIME  *      1394.04 SEC
 DISK USED  *        72.92 MB (local),      291.67 MB (total)
 SF USED    *         3.96 MB
 GA USED    *         2.09 MB       (max)       2.09 MB       (current)
 **********************************************************************************************************************************

 Density functional group PBE=PBEX+PBEC
 Functional: PBEX(Automatically generated (new) PBEX)                          Gradient terms: 1
 Functional: PBEC(Automatically generated (new) PBEC)                          Gradient terms: 1
 Use libxcgrid:  F
 Use grid at  1800.2

 Functional: PBEX                      Factor:  1.0000
 Functional: PBEC                      Factor:  1.0000

 Generated new metagrid on record  1800.2 with target accuracy 1.0D-08 and 63112 points in CPU time    0.2
 Computed new grid on record 1800.1 in CPU time    0.2
  465012 words reserved for DFT integration

 PROGRAM * RKS-SCF (Restricted closed shell Kohn-Sham)     Authors: W. Meyer, H.-J. Werner, P.J. Knowles, 1993

 NUMBER OF ELECTRONS:       5+    5-    SPACE SYMMETRY=1    SPIN SYMMETRY: Singlet 
 CONVERGENCE THRESHOLDS:    1.00E-04 (Density)    1.00E-08 (Energy)
 INTEGRAL THRESHOLDS:       1.00E-11 (Initial)    1.00E-11 (Final)
 MAX. NUMBER OF ITERATIONS:       60
 INTERPOLATION TYPE:            DIIS
 INTERPOLATION STEPS:              2 (START)      1 (STEP)
 LEVEL SHIFTS:                  0.00 (CLOSED)  0.00 (OPEN) 



 Use fine grid record 1800.2 for energy threshold  1.0D-08
 Orbital guess generated from atomic densities. Full valence occupancy:    7

 Molecular orbital dump at record        2201.2

 Initial occupancy:   5

 Direct Fock-matrix evaluation.        Authors: Roland Lindh & Martin Schuetz (1993/96)

 Integral Threshold:                  0.1D-10
 Threshold for writing integrals:     0.1D-06
 Prescreening on density matrix:        ON 
 Calculation will be performed fully direct        

 ITERATION   DDIFF            GRAD            ENERGY        2-EL.EN.            DIPOLE MOMENTS         DIIS   CPU(IT)  CPU(TOT)
    1      0.000D+00      0.000D+00       -76.30159790     98.228135    0.00394   -1.10080   -0.00633    0    170.1    178.5     start
    2      0.000D+00      0.651D-02       -75.91028536     81.743517   -0.00151    0.45358    0.00262    1    174.7    353.2     diag
    3      0.492D-02      0.148D-01       -76.38773050     93.605782    0.00264   -0.73835   -0.00425    2    177.1    530.3     diag
    4      0.347D-02      0.390D-03       -76.38815499     93.200447    0.00253   -0.70824   -0.00407    3    157.6    688.0     diag
    5      0.157D-03      0.855D-04       -76.38816858     93.251456    0.00253   -0.70675   -0.00407    4    137.2    825.1     diag
    6      0.222D-04      0.191D-04       -76.38816935     93.261992    0.00253   -0.70910   -0.00408    5    120.5    945.7     diag
    7      0.452D-05      0.893D-06       -76.38816935     93.261748    0.00253   -0.70896   -0.00408    6     87.8   1033.4     diag
    8      0.216D-06      0.592D-07       -76.38816935     93.261835    0.00253   -0.70898   -0.00408    0     49.0   1082.4     orth

 Final occupancy:   5

 !RKS STATE  1.1 Energy               -76.388169354635
 Nuclear energy                         9.15605699
 One-electron energy                 -122.93681468
 Two-electron energy                   46.63091771
 Density functional                    -9.23832937     PBEX=-8.91399725 PBEC=-0.32433212
 Virial quotient                       -1.00338012
 !RKS STATE  1.1 Dipole moment          0.00253383    -0.70897563    -0.00407839
 Dipole moment /Debye                   0.00643992    -1.80191829    -0.01036557

 Orbital energies:

         1.1          2.1          3.1          4.1          5.1          6.1          7.1
    -18.755008    -0.930818    -0.483376    -0.343716    -0.266300    -0.034698     0.014466


 HOMO      5.1    -0.266300 =      -7.2464eV
 LUMO      6.1    -0.034698 =      -0.9442eV
 LUMO-HOMO         0.231602 =       6.3022eV


 **********************************************************************************************************************************
 DATASETS  * FILE   NREC   LENGTH (MB)   RECORD NAMES
              1      19       42.11       500      610      700      900      950      970     1000      129      960     1100   
                                          VAR    BASINP    GEOM    SYMINP    ZMAT    AOBASIS   BASIS     P2S    ABASIS      S 
                                         1400     1410     1200     1210     1080     1600     1650     1700     1800   
                                           T        V       H0       H01     AOSYM     SMH    MOLCAS    OPER     GRID   

              2       6       25.25       700     1000      520     1800     2101     2201   
                                         GEOM     BASIS   MCVARS    GRID      RKS      RKS  

 PROGRAMS   *        TOTAL   RKS-SCF       INT   RKS-SCF       INT
 CPU TIMES  *      2465.68   1083.15      0.45   1381.11      0.76
 REAL TIME  *      2483.63 SEC
 DISK USED  *        87.30 MB (local),      349.20 MB (total)
 SF USED    *         3.96 MB
 GA USED    *         2.09 MB       (max)       2.09 MB       (current)
 **********************************************************************************************************************************
 SETTING EA_PBE         =       -76.38816935  AU                              

 Dummy atoms: H1  H2  O1


 Recomputing one-electron integrals since nuclear charges changed


 PROGRAM * SEWARD (Integral evaluation for generally contracted gaussian basis sets)     Author: Roland Lindh, 1990

 Geometry written to block  1 of record 700


 Point group  C1  



 ATOMIC COORDINATES

 NR  ATOM    CHARGE       X              Y              Z

   1  H1      0.00    0.033273831    1.210301855   -1.438746007
   2  H2      0.00   -0.025280454    1.193613952    1.425893811
   3  H3      1.00    0.045516310   10.633328373    0.002440884
   4  H4      1.00    1.860994761   12.849811316   -0.030871736
   5  O1      0.00    0.000000000    2.319083238    0.000000000
   6  O2      8.00    0.089274323   12.449525804    0.004787478

 Bond lengths in Bohr (Angstrom)

 1-5  1.816726005  2-5  1.816726005  3-6  1.816726005  4-6  1.816726006
     ( 0.961370000)     ( 0.961370000)     ( 0.961370001)     ( 0.961370001)

 Bond angles

  1-5-2  104.10700004   3-6-4  104.10699993

 NUCLEAR CHARGE:                   10
 NUMBER OF PRIMITIVE AOS:         830
 NUMBER OF SYMMETRY AOS:          620
 NUMBER OF CONTRACTIONS:          574   (  574A   )
 NUMBER OF CORE ORBITALS:           1   (    1A   )
 NUMBER OF VALENCE ORBITALS:        6   (    6A   )

 MOLECULE CHANGED: INITIALIZING OCCUPATION AND DUMP RECORDS


 NUCLEAR REPULSION ENERGY    9.15605698


 Eigenvalues of metric

         1 0.124E-04 0.134E-04 0.135E-04 0.141E-04 0.626E-04 0.709E-04 0.731E-04 0.776E-04


 OPERATOR DM      FOR CENTER  0  COORDINATES:    0.000000    0.000000    0.000000


 **********************************************************************************************************************************
 DATASETS  * FILE   NREC   LENGTH (MB)   RECORD NAMES
              1      19       42.11       500      610      700      900      950      970     1000      129      960     1100   
                                          VAR    BASINP    GEOM    SYMINP    ZMAT    AOBASIS   BASIS     P2S    ABASIS      S 
                                         1400     1410     1200     1210     1080     1600     1650     1700     1800   
                                           T        V       H0       H01     AOSYM     SMH    MOLCAS    OPER     GRID   

              2       6       25.25       700     1000      520     1800     2101     2201   
                                         GEOM     BASIS   MCVARS    GRID      RKS      RKS  

 PROGRAMS   *        TOTAL       INT   RKS-SCF       INT   RKS-SCF       INT
 CPU TIMES  *      2466.12      0.43   1083.15      0.45   1381.11      0.76
 REAL TIME  *      2484.14 SEC
 DISK USED  *        87.30 MB (local),      349.20 MB (total)
 SF USED    *         3.96 MB
 GA USED    *         2.09 MB       (max)       2.09 MB       (current)
 **********************************************************************************************************************************

 Density functional group PBE=PBEX+PBEC
 Functional: PBEX(Automatically generated (new) PBEX)                          Gradient terms: 1
 Functional: PBEC(Automatically generated (new) PBEC)                          Gradient terms: 1
 Use libxcgrid:  F
 Use grid at  1800.2

 Functional: PBEX                      Factor:  1.0000
 Functional: PBEC                      Factor:  1.0000

  465012 words reserved for DFT integration

 PROGRAM * RKS-SCF (Restricted closed shell Kohn-Sham)     Authors: W. Meyer, H.-J. Werner, P.J. Knowles, 1993

 NUMBER OF ELECTRONS:       5+    5-    SPACE SYMMETRY=1    SPIN SYMMETRY: Singlet 
 CONVERGENCE THRESHOLDS:    1.00E-04 (Density)    1.00E-08 (Energy)
 INTEGRAL THRESHOLDS:       1.00E-11 (Initial)    1.00E-11 (Final)
 MAX. NUMBER OF ITERATIONS:       60
 INTERPOLATION TYPE:            DIIS
 INTERPOLATION STEPS:              2 (START)      1 (STEP)
 LEVEL SHIFTS:                  0.00 (CLOSED)  0.00 (OPEN) 



 Use fine grid record 1800.2 for energy threshold  1.0D-08
 Orbital guess generated from atomic densities. Full valence occupancy:    7

 Molecular orbital dump at record        2301.2

 Initial occupancy:   5

 Direct Fock-matrix evaluation.        Authors: Roland Lindh & Martin Schuetz (1993/96)

 Integral Threshold:                  0.1D-10
 Threshold for writing integrals:     0.1D-06
 Prescreening on density matrix:        ON 
 Calculation will be performed fully direct        

 ITERATION   DDIFF            GRAD            ENERGY        2-EL.EN.            DIPOLE MOMENTS         DIIS   CPU(IT)  CPU(TOT)
    1      0.000D+00      0.000D+00       -76.30159819     98.228128    0.85135   -0.69761   -0.01873    0    174.3    183.5     start
    2      0.000D+00      0.651D-02       -75.91004423     81.739296   -0.35174    0.29088    0.00774    1    177.3    360.7     diag
    3      0.486D-02      0.148D-01       -76.38772995     93.606073    0.57104   -0.46795   -0.01256    2    176.6    537.4     diag
    4      0.340D-02      0.390D-03       -76.38815521     93.200337    0.54776   -0.44883   -0.01205    3    161.6    699.0     diag
    5      0.154D-03      0.856D-04       -76.38816884     93.251428    0.54660   -0.44790   -0.01202    4    138.7    837.7     diag
    6      0.220D-04      0.192D-04       -76.38816962     93.261979    0.54842   -0.44938   -0.01206    5    118.7    956.3     diag
    7      0.450D-05      0.893D-06       -76.38816962     93.261737    0.54831   -0.44930   -0.01206    6     83.8   1040.2     diag
    8      0.219D-06      0.595D-07       -76.38816962     93.261825    0.54832   -0.44931   -0.01206    0     49.8   1090.0     orth

 Final occupancy:   5

 !RKS STATE  1.1 Energy               -76.388169619618
 Nuclear energy                         9.15605698
 One-electron energy                 -122.93681049
 Two-electron energy                   46.63091248
 Density functional                    -9.23832859     PBEX=-8.91399660 PBEC=-0.32433199
 Virial quotient                       -1.00337999
 !RKS STATE  1.1 Dipole moment          0.54832229    -0.44930574    -0.01206016
 Dipole moment /Debye                   1.39360497    -1.14194648    -0.03065185

 Orbital energies:

         1.1          2.1          3.1          4.1          5.1          6.1          7.1
    -18.755009    -0.930818    -0.483376    -0.343716    -0.266301    -0.034781     0.012935


 HOMO      5.1    -0.266301 =      -7.2464eV
 LUMO      6.1    -0.034781 =      -0.9464eV
 LUMO-HOMO         0.231520 =       6.3000eV


 **********************************************************************************************************************************
 DATASETS  * FILE   NREC   LENGTH (MB)   RECORD NAMES
              1      19       42.11       500      610      700      900      950      970     1000      129      960     1100   
                                          VAR    BASINP    GEOM    SYMINP    ZMAT    AOBASIS   BASIS     P2S    ABASIS      S 
                                         1400     1410     1200     1210     1080     1600     1650     1700     1800   
                                           T        V       H0       H01     AOSYM     SMH    MOLCAS    OPER     GRID   

              2       7       40.95       700     1000      520     1800     2101     2201     2301   
                                         GEOM     BASIS   MCVARS    GRID      RKS      RKS      RKS  

 PROGRAMS   *        TOTAL   RKS-SCF       INT   RKS-SCF       INT   RKS-SCF       INT
 CPU TIMES  *      3556.65   1090.53      0.43   1083.15      0.45   1381.11      0.76
 REAL TIME  *      3580.54 SEC
 DISK USED  *       103.00 MB (local),      412.01 MB (total)
 SF USED    *         3.96 MB
 GA USED    *         2.09 MB       (max)       2.09 MB       (current)
 **********************************************************************************************************************************
 SETTING EB_PBE         =       -76.38816962  AU                              
 SETTING E_AB_INT       =        -0.00095652  AU                              

 *** results in hartree
 E_AB_INT         =        -0.00095652 AU
 Molecular orbitals read from record     2301.2  Type=RKS/CANONICAL (state 1.1)
 Occupation numbers read from record     2301.2  Type=RKS/RHF (state 1.1)
 Orbital energies read from record       2301.2  Type=RKS/CANONICAL (state 1.1)
 Redundancy group numbers read from rec  2301.2  Type=RKS/RHF (state 1.1)

 RPBE/aug-cc-pV5Z energy=    -76.388169619618

         RKS-SCF         RKS-SCF         RKS-SCF
    -76.38816962    -76.38816935   -152.77729550
 **********************************************************************************************************************************
 Molpro calculation terminated
