
     Program PWSCF v.7.2 starts on 12Oct2023 at 16:18:49 

     This program is part of the open-source Quantum ESPRESSO suite
     for quantum simulation of materials; please cite
         "P. Giannozzi et al., J. Phys.:Condens. Matter 21 395502 (2009);
         "P. Giannozzi et al., J. Phys.:Condens. Matter 29 465901 (2017);
         "P. Giannozzi et al., J. Chem. Phys. 152 154105 (2020);
          URL http://www.quantum-espresso.org", 
     in publications or presentations arising from this work. More details at
     http://www.quantum-espresso.org/quote

     Parallel version (MPI), running on    32 processors

     MPI processes distributed on     1 nodes
     246656 MiB available memory on the printing compute node when the environment starts

     Reading input from H2O_NH3_dimer_O_H_contact_21_precision_dimer.in
Warning: card &CELL ignored
Warning: card / ignored

     Current dimensions of program PWSCF are:
     Max number of different atomic species (ntypx) = 10
     Max number of k-points (npk) =  40000
     Max angular momentum in pseudopotentials (lmaxx) =  4
     file H.pbe-kjpaw_psl.1.0.0.UPF: wavefunction(s)  1S renormalized
     file N.pbe-n-kjpaw_psl.1.0.0.UPF: wavefunction(s)  2S renormalized
     file O.pbe-n-kjpaw_psl.1.0.0.UPF: wavefunction(s)  2S 2P renormalized

     IMPORTANT: XC functional enforced from input :
     Exchange-correlation= PBE
                           (   1   4   3   4   0   0   0)
     Any further DFT definition will be discarded
     Please, verify this is what you really want


     gamma-point specific algorithms are used

     R & G space division:  proc/nbgrp/npool/nimage =      32
     Subspace diagonalization in iterative solution of the eigenvalue problem:
     a serial algorithm will be used


     Parallelization info
     --------------------
     sticks:   dense  smooth     PW     G-vecs:    dense   smooth      PW
     Min        6395    6395   1598              2177048  2177048  272114
     Max        6398    6398   1600              2177062  2177062  272124
     Sum      204693  204693  51189             69665707 69665707 8707803

     Using Slab Decomposition



     bravais-lattice index     =            0
     lattice parameter (alat)  =      66.1404  a.u.
     unit-cell volume          =  289334.8415 (a.u.)^3
     number of atoms/cell      =            7
     number of atomic types    =            3
     number of electrons       =        16.00
     number of Kohn-Sham states=            8
     kinetic-energy cutoff     =     147.0000  Ry
     charge density cutoff     =     588.0000  Ry
     scf convergence threshold =      1.0E-08
     mixing beta               =       0.7000
     number of iterations used =            8  plain     mixing
     Exchange-correlation= PBE
                           (   1   4   3   4   0   0   0)

     celldm(1)=  66.140414  celldm(2)=   0.000000  celldm(3)=   0.000000
     celldm(4)=   0.000000  celldm(5)=   0.000000  celldm(6)=   0.000000

     crystal axes: (cart. coord. in units of alat)
               a(1) = (   1.000000   0.000000   0.000000 )  
               a(2) = (   0.000000   1.000000   0.000000 )  
               a(3) = (   0.000000   0.000000   1.000000 )  

     reciprocal axes: (cart. coord. in units 2 pi/alat)
               b(1) = (  1.000000  0.000000  0.000000 )  
               b(2) = (  0.000000  1.000000  0.000000 )  
               b(3) = (  0.000000  0.000000  1.000000 )  


     PseudoPot. # 1 for H  read from file:
     /home/users/klimj2am/src/pslibrary.1.0.0/pbe/PSEUDOPOTENTIALS/H.pbe-kjpaw_psl.1.0.0.UPF
     MD5 check sum: 220281c0717fd894cece6904c624ceaa
     Pseudo is Projector augmented-wave, Zval =  1.0
     Generated using 'atomic' code by A. Dal Corso  v.7.2
     Shape of augmentation charge: PSQ
     Using radial grid of  929 points,  2 beta functions with: 
                l(1) =   0
                l(2) =   0
     Q(r) pseudized with 0 coefficients 


     PseudoPot. # 2 for N  read from file:
     /home/users/klimj2am/src/pslibrary.1.0.0/pbe/PSEUDOPOTENTIALS/N.pbe-n-kjpaw_psl.1.0.0.UPF
     MD5 check sum: ed3381810ced4c04e88f7c2008d4036c
     Pseudo is Projector augmented-wave + core cor, Zval =  5.0
     Generated using 'atomic' code by A. Dal Corso  v.7.2
     Shape of augmentation charge: PSQ
     Using radial grid of 1085 points,  4 beta functions with: 
                l(1) =   0
                l(2) =   0
                l(3) =   1
                l(4) =   1
     Q(r) pseudized with 0 coefficients 


     PseudoPot. # 3 for O  read from file:
     /home/users/klimj2am/src/pslibrary.1.0.0/pbe/PSEUDOPOTENTIALS/O.pbe-n-kjpaw_psl.1.0.0.UPF
     MD5 check sum: 48e285564fec6dca10ec424bc53b541b
     Pseudo is Projector augmented-wave + core cor, Zval =  6.0
     Generated using 'atomic' code by A. Dal Corso  v.7.2
     Shape of augmentation charge: PSQ
     Using radial grid of 1095 points,  4 beta functions with: 
                l(1) =   0
                l(2) =   0
                l(3) =   1
                l(4) =   1
     Q(r) pseudized with 0 coefficients 


     atomic species   valence    mass     pseudopotential
        H              1.00     1.00800     H ( 1.00)
        N              5.00    14.00700     N ( 1.00)
        O              6.00    15.99900     O ( 1.00)

     No symmetry found



   Cartesian axes

     site n.     atom                  positions (alat units)
         1           H   tau(   1) = (   0.0102885   0.0007027   0.0208215  )
         2           H   tau(   2) = (  -0.0005020   0.0388821  -0.0033142  )
         3           H   tau(   3) = (  -0.0293267   0.0024580  -0.0033137  )
         4           H   tau(   4) = (   0.0193129   0.1147497   0.0093150  )
         5           H   tau(   5) = (  -0.0162179   0.1166685  -0.0153954  )
         6           N   tau(   6) = (  -0.0014133   0.0099858  -0.0039396  )
         7           O   tau(   7) = (   0.0003984   0.0988612  -0.0026962  )

     number of k points=     1
                       cart. coord. in units 2pi/alat
        k(    1) = (   0.0000000   0.0000000   0.0000000), wk =   2.0000000

     Dense  grid: 34832854 G-vectors     FFT dimensions: ( 512, 512, 512)

     Estimated max dynamical RAM per process >       1.64 GB

     Estimated total dynamical RAM >      52.39 GB

     Initial potential from superposition of free atoms

     starting charge      15.9999, renormalised to      16.0000

     negative rho (up, down):  7.387E-04 0.000E+00
     Starting wfcs are   13 randomized atomic wfcs
     Checking if some PAW data can be deallocated... 

     total cpu time spent up to now is       42.7 secs

     Self-consistent Calculation

     iteration #  1     ecut=   147.00 Ry     beta= 0.70
     Davidson diagonalization with overlap
     ethr =  1.00E-02,  avg # of iterations =  3.0

     negative rho (up, down):  1.072E-03 0.000E+00

     total cpu time spent up to now is       55.6 secs

     total energy              =     -75.31791646 Ry
     estimated scf accuracy    <       1.16876275 Ry

     iteration #  2     ecut=   147.00 Ry     beta= 0.70
     Davidson diagonalization with overlap
     ethr =  7.30E-03,  avg # of iterations =  5.0

     negative rho (up, down):  1.115E-03 0.000E+00

     total cpu time spent up to now is       68.9 secs

     total energy              =     -75.69980090 Ry
     estimated scf accuracy    <       0.60565554 Ry

     iteration #  3     ecut=   147.00 Ry     beta= 0.70
     Davidson diagonalization with overlap
     ethr =  3.79E-03,  avg # of iterations =  2.0

     negative rho (up, down):  1.197E-03 0.000E+00

     total cpu time spent up to now is       80.7 secs

     total energy              =     -75.78967478 Ry
     estimated scf accuracy    <       0.04979069 Ry

     iteration #  4     ecut=   147.00 Ry     beta= 0.70
     Davidson diagonalization with overlap
     ethr =  3.11E-04,  avg # of iterations =  4.0

     negative rho (up, down):  1.384E-03 0.000E+00

     total cpu time spent up to now is       93.7 secs

     total energy              =     -75.83712173 Ry
     estimated scf accuracy    <       0.01164910 Ry

     iteration #  5     ecut=   147.00 Ry     beta= 0.70
     Davidson diagonalization with overlap
     ethr =  7.28E-05,  avg # of iterations =  5.0

     negative rho (up, down):  1.504E-03 0.000E+00

     total cpu time spent up to now is      106.2 secs

     total energy              =     -75.84078886 Ry
     estimated scf accuracy    <       0.00067778 Ry

     iteration #  6     ecut=   147.00 Ry     beta= 0.70
     Davidson diagonalization with overlap
     ethr =  4.24E-06,  avg # of iterations =  4.0

     negative rho (up, down):  1.521E-03 0.000E+00

     total cpu time spent up to now is      119.1 secs

     total energy              =     -75.84116314 Ry
     estimated scf accuracy    <       0.00043752 Ry

     iteration #  7     ecut=   147.00 Ry     beta= 0.70
     Davidson diagonalization with overlap
     ethr =  2.73E-06,  avg # of iterations =  2.0

     negative rho (up, down):  1.536E-03 0.000E+00

     total cpu time spent up to now is      131.1 secs

     total energy              =     -75.84110719 Ry
     estimated scf accuracy    <       0.00014504 Ry

     iteration #  8     ecut=   147.00 Ry     beta= 0.70
     Davidson diagonalization with overlap
     ethr =  9.06E-07,  avg # of iterations =  5.0

     negative rho (up, down):  1.535E-03 0.000E+00

     total cpu time spent up to now is      145.1 secs

     total energy              =     -75.84123498 Ry
     estimated scf accuracy    <       0.00041923 Ry

     iteration #  9     ecut=   147.00 Ry     beta= 0.70
     Davidson diagonalization with overlap
     ethr =  9.06E-07,  avg # of iterations =  2.0

     negative rho (up, down):  1.540E-03 0.000E+00

     total cpu time spent up to now is      157.0 secs

     total energy              =     -75.84112674 Ry
     estimated scf accuracy    <       0.00020318 Ry

     iteration # 10     ecut=   147.00 Ry     beta= 0.70
     Davidson diagonalization with overlap
     ethr =  9.06E-07,  avg # of iterations =  6.0

     negative rho (up, down):  1.540E-03 0.000E+00

     total cpu time spent up to now is      172.1 secs

     total energy              =     -75.84122610 Ry
     estimated scf accuracy    <       0.00009144 Ry

     iteration # 11     ecut=   147.00 Ry     beta= 0.70
     Davidson diagonalization with overlap
     ethr =  5.71E-07,  avg # of iterations =  2.0

     negative rho (up, down):  1.540E-03 0.000E+00

     total cpu time spent up to now is      184.0 secs

     total energy              =     -75.84121614 Ry
     estimated scf accuracy    <       0.00002687 Ry

     iteration # 12     ecut=   147.00 Ry     beta= 0.70
     Davidson diagonalization with overlap
     ethr =  1.68E-07,  avg # of iterations =  5.0

     negative rho (up, down):  1.541E-03 0.000E+00

     total cpu time spent up to now is      197.1 secs

     total energy              =     -75.84123044 Ry
     estimated scf accuracy    <       0.00000597 Ry

     iteration # 13     ecut=   147.00 Ry     beta= 0.70
     Davidson diagonalization with overlap
     ethr =  3.73E-08,  avg # of iterations =  2.0

     negative rho (up, down):  1.541E-03 0.000E+00

     total cpu time spent up to now is      209.0 secs

     total energy              =     -75.84123001 Ry
     estimated scf accuracy    <       0.00000351 Ry

     iteration # 14     ecut=   147.00 Ry     beta= 0.70
     Davidson diagonalization with overlap
     ethr =  2.20E-08,  avg # of iterations =  3.0

     negative rho (up, down):  1.541E-03 0.000E+00

     total cpu time spent up to now is      221.5 secs

     total energy              =     -75.84123046 Ry
     estimated scf accuracy    <       0.00000083 Ry

     iteration # 15     ecut=   147.00 Ry     beta= 0.70
     Davidson diagonalization with overlap
     ethr =  5.22E-09,  avg # of iterations =  2.0

     negative rho (up, down):  1.541E-03 0.000E+00

     total cpu time spent up to now is      233.4 secs

     total energy              =     -75.84123024 Ry
     estimated scf accuracy    <       0.00000061 Ry

     iteration # 16     ecut=   147.00 Ry     beta= 0.70
     Davidson diagonalization with overlap
     ethr =  3.84E-09,  avg # of iterations =  5.0

     negative rho (up, down):  1.541E-03 0.000E+00

     total cpu time spent up to now is      246.4 secs

     total energy              =     -75.84123047 Ry
     estimated scf accuracy    <       0.00000002 Ry

     iteration # 17     ecut=   147.00 Ry     beta= 0.70
     Davidson diagonalization with overlap
     ethr =  1.09E-10,  avg # of iterations =  4.0

     negative rho (up, down):  1.541E-03 0.000E+00

     total cpu time spent up to now is      258.6 secs

     End of self-consistent calculation

          k = 0.0000 0.0000 0.0000 (****** PWs)   bands (ev):

   -25.8096 -20.5733 -13.5465 -10.9043 -10.7236  -9.5556  -7.6541  -5.5393

     highest occupied level (ev):    -5.5393

!    total energy              =     -75.84123048 Ry
     total all-electron energy =      -265.986897 Ry
     estimated scf accuracy    <          6.2E-09 Ry

     The total energy is the sum of the following terms:
     one-electron contribution =    -172.74656169 Ry
     hartree contribution      =      89.27241985 Ry
     xc contribution           =     -16.79786164 Ry
     ewald contribution        =      41.99146784 Ry
     one-center paw contrib.   =     -17.56069485 Ry

     charge density inside the Wigner-Seitz cell:   16.00000000

     reference position (x0):        -0.08731055    3.78884128   -0.11476153 bohr

     Dipole moments (with respect to x0):
     Elect  -0.2161   1.1341   0.4428 au (Ha),  -0.5493   2.8826   1.1255 Debye
     Ionic  -0.0000   0.0000  -0.0000 au (Ha),  -0.0000   0.0000  -0.0000 Debye
     Total  -0.2161   1.1341   0.4428 au (Ha),  -0.5493   2.8826   1.1255 Debye

     Electrons quadrupole moment       -191.41143705 a.u. (Ha)
          Ions quadrupole moment        163.47691450 a.u. (Ha)
         Total quadrupole moment        -27.93452256 a.u. (Ha)

     *********    MAKOV-PAYNE CORRECTION    *********

     Makov-Payne correction with Madelung constant =   2.8373

     Makov-Payne correction     0.00000000 Ry =  0.000 eV (1st order, 1/a0)
                                0.00002214 Ry =  0.000 eV (2nd order, 1/a0^3)
                                0.00002214 Ry =  0.000 eV (total)

!    Total+Makov-Payne energy  =     -75.84120834 Ry
     Corrected vacuum level    =       0.00550123 eV

     convergence has been achieved in  17 iterations

     Writing all to output data dir ./pwscf.save/

     init_run     :     39.01s CPU     42.02s WALL (       1 calls)
     electrons    :    186.11s CPU    218.83s WALL (       1 calls)

     Called by init_run:
     wfcinit      :      1.90s CPU      2.17s WALL (       1 calls)
     potinit      :      4.68s CPU      5.64s WALL (       1 calls)
     hinit0       :      3.09s CPU      3.40s WALL (       1 calls)

     Called by electrons:
     c_bands      :     59.80s CPU     63.08s WALL (      17 calls)
     sum_band     :     52.36s CPU     62.87s WALL (      17 calls)
     v_of_rho     :     38.47s CPU     46.80s WALL (      18 calls)
     newd         :     22.92s CPU     32.89s WALL (      18 calls)
     PAW_pot      :      0.25s CPU      0.27s WALL (      18 calls)
     mix_rho      :     12.67s CPU     13.46s WALL (      17 calls)

     Called by c_bands:
     init_us_2    :      1.06s CPU      1.09s WALL (      35 calls)
     init_us_2:cp :      1.06s CPU      1.09s WALL (      35 calls)
     regterg      :     58.49s CPU     61.75s WALL (      17 calls)

     Called by *egterg:
     rdiaghg      :      0.01s CPU      0.02s WALL (      78 calls)
     h_psi        :     52.41s CPU     55.77s WALL (      79 calls)
     s_psi        :      1.53s CPU      1.55s WALL (      79 calls)
     g_psi        :      0.17s CPU      0.17s WALL (      61 calls)

     Called by h_psi:
     h_psi:calbec :      1.51s CPU      1.56s WALL (      79 calls)
     vloc_psi     :     49.02s CPU     52.31s WALL (      79 calls)
     add_vuspsi   :      1.53s CPU      1.53s WALL (      79 calls)

     General routines
     calbec       :      1.86s CPU      1.90s WALL (      96 calls)
     fft          :     32.33s CPU     38.47s WALL (     162 calls)
     ffts         :      2.88s CPU      3.46s WALL (      17 calls)
     fftw         :     45.27s CPU     48.92s WALL (     496 calls)

     Parallel routines

     PWSCF        :   3m47.05s CPU   4m25.42s WALL


   This run was terminated on:  16:23:14  12Oct2023            

=------------------------------------------------------------------------------=
   JOB DONE.
=------------------------------------------------------------------------------=
