
     Program PWSCF v.7.2 starts on 12Oct2023 at 16:23:16 

     This program is part of the open-source Quantum ESPRESSO suite
     for quantum simulation of materials; please cite
         "P. Giannozzi et al., J. Phys.:Condens. Matter 21 395502 (2009);
         "P. Giannozzi et al., J. Phys.:Condens. Matter 29 465901 (2017);
         "P. Giannozzi et al., J. Chem. Phys. 152 154105 (2020);
          URL http://www.quantum-espresso.org", 
     in publications or presentations arising from this work. More details at
     http://www.quantum-espresso.org/quote

     Parallel version (MPI), running on    32 processors

     MPI processes distributed on     1 nodes
     503697 MiB available memory on the printing compute node when the environment starts

     Reading input from H2O_NH3_dimer_O_H_contact_39_precision_dimer.in
Warning: card &CELL ignored
Warning: card / ignored

     Current dimensions of program PWSCF are:
     Max number of different atomic species (ntypx) = 10
     Max number of k-points (npk) =  40000
     Max angular momentum in pseudopotentials (lmaxx) =  4
     file H.pbe-kjpaw_psl.1.0.0.UPF: wavefunction(s)  1S renormalized
     file N.pbe-n-kjpaw_psl.1.0.0.UPF: wavefunction(s)  2S renormalized
     file O.pbe-n-kjpaw_psl.1.0.0.UPF: wavefunction(s)  2S 2P renormalized

     IMPORTANT: XC functional enforced from input :
     Exchange-correlation= PBE
                           (   1   4   3   4   0   0   0)
     Any further DFT definition will be discarded
     Please, verify this is what you really want


     gamma-point specific algorithms are used

     R & G space division:  proc/nbgrp/npool/nimage =      32
     Subspace diagonalization in iterative solution of the eigenvalue problem:
     a serial algorithm will be used


     Parallelization info
     --------------------
     sticks:   dense  smooth     PW     G-vecs:    dense   smooth      PW
     Min        6395    6395   1598              2177048  2177048  272114
     Max        6398    6398   1600              2177062  2177062  272124
     Sum      204693  204693  51189             69665707 69665707 8707803

     Using Slab Decomposition



     bravais-lattice index     =            0
     lattice parameter (alat)  =      66.1404  a.u.
     unit-cell volume          =  289334.8415 (a.u.)^3
     number of atoms/cell      =            7
     number of atomic types    =            3
     number of electrons       =        16.00
     number of Kohn-Sham states=            8
     kinetic-energy cutoff     =     147.0000  Ry
     charge density cutoff     =     588.0000  Ry
     scf convergence threshold =      1.0E-08
     mixing beta               =       0.7000
     number of iterations used =            8  plain     mixing
     Exchange-correlation= PBE
                           (   1   4   3   4   0   0   0)

     celldm(1)=  66.140414  celldm(2)=   0.000000  celldm(3)=   0.000000
     celldm(4)=   0.000000  celldm(5)=   0.000000  celldm(6)=   0.000000

     crystal axes: (cart. coord. in units of alat)
               a(1) = (   1.000000   0.000000   0.000000 )  
               a(2) = (   0.000000   1.000000   0.000000 )  
               a(3) = (   0.000000   0.000000   1.000000 )  

     reciprocal axes: (cart. coord. in units 2 pi/alat)
               b(1) = (  1.000000  0.000000  0.000000 )  
               b(2) = (  0.000000  1.000000  0.000000 )  
               b(3) = (  0.000000  0.000000  1.000000 )  


     PseudoPot. # 1 for H  read from file:
     /home/users/klimj2am/src/pslibrary.1.0.0/pbe/PSEUDOPOTENTIALS/H.pbe-kjpaw_psl.1.0.0.UPF
     MD5 check sum: 220281c0717fd894cece6904c624ceaa
     Pseudo is Projector augmented-wave, Zval =  1.0
     Generated using 'atomic' code by A. Dal Corso  v.7.2
     Shape of augmentation charge: PSQ
     Using radial grid of  929 points,  2 beta functions with: 
                l(1) =   0
                l(2) =   0
     Q(r) pseudized with 0 coefficients 


     PseudoPot. # 2 for N  read from file:
     /home/users/klimj2am/src/pslibrary.1.0.0/pbe/PSEUDOPOTENTIALS/N.pbe-n-kjpaw_psl.1.0.0.UPF
     MD5 check sum: ed3381810ced4c04e88f7c2008d4036c
     Pseudo is Projector augmented-wave + core cor, Zval =  5.0
     Generated using 'atomic' code by A. Dal Corso  v.7.2
     Shape of augmentation charge: PSQ
     Using radial grid of 1085 points,  4 beta functions with: 
                l(1) =   0
                l(2) =   0
                l(3) =   1
                l(4) =   1
     Q(r) pseudized with 0 coefficients 


     PseudoPot. # 3 for O  read from file:
     /home/users/klimj2am/src/pslibrary.1.0.0/pbe/PSEUDOPOTENTIALS/O.pbe-n-kjpaw_psl.1.0.0.UPF
     MD5 check sum: 48e285564fec6dca10ec424bc53b541b
     Pseudo is Projector augmented-wave + core cor, Zval =  6.0
     Generated using 'atomic' code by A. Dal Corso  v.7.2
     Shape of augmentation charge: PSQ
     Using radial grid of 1095 points,  4 beta functions with: 
                l(1) =   0
                l(2) =   0
                l(3) =   1
                l(4) =   1
     Q(r) pseudized with 0 coefficients 


     atomic species   valence    mass     pseudopotential
        H              1.00     1.00800     H ( 1.00)
        N              5.00    14.00700     N ( 1.00)
        O              6.00    15.99900     O ( 1.00)

     No symmetry found



   Cartesian axes

     site n.     atom                  positions (alat units)
         1           H   tau(   1) = (   0.0102885   0.0007027   0.0208215  )
         2           H   tau(   2) = (  -0.0005020   0.0388821  -0.0033142  )
         3           H   tau(   3) = (  -0.0293267   0.0024580  -0.0033137  )
         4           H   tau(   4) = (   0.0193129   0.1661783   0.0093150  )
         5           H   tau(   5) = (  -0.0162179   0.1680971  -0.0153954  )
         6           N   tau(   6) = (  -0.0014133   0.0099858  -0.0039396  )
         7           O   tau(   7) = (   0.0003984   0.1502898  -0.0026962  )

     number of k points=     1
                       cart. coord. in units 2pi/alat
        k(    1) = (   0.0000000   0.0000000   0.0000000), wk =   2.0000000

     Dense  grid: 34832854 G-vectors     FFT dimensions: ( 512, 512, 512)

     Estimated max dynamical RAM per process >       1.64 GB

     Estimated total dynamical RAM >      52.39 GB

     Initial potential from superposition of free atoms

     starting charge      15.9999, renormalised to      16.0000

     negative rho (up, down):  7.412E-04 0.000E+00
     Starting wfcs are   13 randomized atomic wfcs
     Checking if some PAW data can be deallocated... 

     total cpu time spent up to now is       39.9 secs

     Self-consistent Calculation

     iteration #  1     ecut=   147.00 Ry     beta= 0.70
     Davidson diagonalization with overlap
     ethr =  1.00E-02,  avg # of iterations =  3.0

     negative rho (up, down):  1.118E-03 0.000E+00

     total cpu time spent up to now is       52.3 secs

     total energy              =     -75.30205498 Ry
     estimated scf accuracy    <       1.19105079 Ry

     iteration #  2     ecut=   147.00 Ry     beta= 0.70
     Davidson diagonalization with overlap
     ethr =  7.44E-03,  avg # of iterations =  5.0

     negative rho (up, down):  1.130E-03 0.000E+00

     total cpu time spent up to now is       64.9 secs

     total energy              =     -75.68664707 Ry
     estimated scf accuracy    <       0.63904017 Ry

     iteration #  3     ecut=   147.00 Ry     beta= 0.70
     Davidson diagonalization with overlap
     ethr =  3.99E-03,  avg # of iterations =  2.0

     negative rho (up, down):  1.197E-03 0.000E+00

     total cpu time spent up to now is       76.1 secs

     total energy              =     -75.78106196 Ry
     estimated scf accuracy    <       0.04505095 Ry

     iteration #  4     ecut=   147.00 Ry     beta= 0.70
     Davidson diagonalization with overlap
     ethr =  2.82E-04,  avg # of iterations =  4.0

     negative rho (up, down):  1.381E-03 0.000E+00

     total cpu time spent up to now is       88.6 secs

     total energy              =     -75.83548709 Ry
     estimated scf accuracy    <       0.01309601 Ry

     iteration #  5     ecut=   147.00 Ry     beta= 0.70
     Davidson diagonalization with overlap
     ethr =  8.19E-05,  avg # of iterations =  2.0

     negative rho (up, down):  1.547E-03 0.000E+00

     total cpu time spent up to now is      100.0 secs

     total energy              =     -75.83569536 Ry
     estimated scf accuracy    <       0.00170720 Ry

     iteration #  6     ecut=   147.00 Ry     beta= 0.70
     Davidson diagonalization with overlap
     ethr =  1.07E-05,  avg # of iterations =  5.0

     negative rho (up, down):  1.528E-03 0.000E+00

     total cpu time spent up to now is      113.3 secs

     total energy              =     -75.83642651 Ry
     estimated scf accuracy    <       0.00539692 Ry

     iteration #  7     ecut=   147.00 Ry     beta= 0.70
     Davidson diagonalization with overlap
     ethr =  1.07E-05,  avg # of iterations =  4.0

     negative rho (up, down):  1.528E-03 0.000E+00

     total cpu time spent up to now is      126.0 secs

     total energy              =     -75.83730331 Ry
     estimated scf accuracy    <       0.00021151 Ry

     iteration #  8     ecut=   147.00 Ry     beta= 0.70
     Davidson diagonalization with overlap
     ethr =  1.32E-06,  avg # of iterations =  2.0

     negative rho (up, down):  1.560E-03 0.000E+00

     total cpu time spent up to now is      137.2 secs

     total energy              =     -75.83728781 Ry
     estimated scf accuracy    <       0.00007312 Ry

     iteration #  9     ecut=   147.00 Ry     beta= 0.70
     Davidson diagonalization with overlap
     ethr =  4.57E-07,  avg # of iterations =  6.0

     negative rho (up, down):  1.560E-03 0.000E+00

     total cpu time spent up to now is      150.5 secs

     total energy              =     -75.83732357 Ry
     estimated scf accuracy    <       0.00002822 Ry

     iteration # 10     ecut=   147.00 Ry     beta= 0.70
     Davidson diagonalization with overlap
     ethr =  1.76E-07,  avg # of iterations =  4.0

     negative rho (up, down):  1.559E-03 0.000E+00

     total cpu time spent up to now is      162.5 secs

     total energy              =     -75.83733093 Ry
     estimated scf accuracy    <       0.00003456 Ry

     iteration # 11     ecut=   147.00 Ry     beta= 0.70
     Davidson diagonalization with overlap
     ethr =  1.76E-07,  avg # of iterations =  1.0

     negative rho (up, down):  1.555E-03 0.000E+00

     total cpu time spent up to now is      173.5 secs

     total energy              =     -75.83731329 Ry
     estimated scf accuracy    <       0.00003529 Ry

     iteration # 12     ecut=   147.00 Ry     beta= 0.70
     Davidson diagonalization with overlap
     ethr =  1.76E-07,  avg # of iterations =  2.0

     negative rho (up, down):  1.552E-03 0.000E+00

     total cpu time spent up to now is      184.7 secs

     total energy              =     -75.83731125 Ry
     estimated scf accuracy    <       0.00000688 Ry

     iteration # 13     ecut=   147.00 Ry     beta= 0.70
     Davidson diagonalization with overlap
     ethr =  4.30E-08,  avg # of iterations =  4.0

     negative rho (up, down):  1.552E-03 0.000E+00

     total cpu time spent up to now is      197.5 secs

     total energy              =     -75.83731589 Ry
     estimated scf accuracy    <       0.00000117 Ry

     iteration # 14     ecut=   147.00 Ry     beta= 0.70
     Davidson diagonalization with overlap
     ethr =  7.28E-09,  avg # of iterations =  2.0

     negative rho (up, down):  1.552E-03 0.000E+00

     total cpu time spent up to now is      208.7 secs

     total energy              =     -75.83731591 Ry
     estimated scf accuracy    <       0.00000033 Ry

     iteration # 15     ecut=   147.00 Ry     beta= 0.70
     Davidson diagonalization with overlap
     ethr =  2.05E-09,  avg # of iterations =  2.0

     negative rho (up, down):  1.552E-03 0.000E+00

     total cpu time spent up to now is      220.0 secs

     total energy              =     -75.83731579 Ry
     estimated scf accuracy    <       0.00000025 Ry

     iteration # 16     ecut=   147.00 Ry     beta= 0.70
     Davidson diagonalization with overlap
     ethr =  1.53E-09,  avg # of iterations =  5.0

     negative rho (up, down):  1.552E-03 0.000E+00

     total cpu time spent up to now is      232.6 secs

     total energy              =     -75.83731591 Ry
     estimated scf accuracy    <       0.00000002 Ry

     iteration # 17     ecut=   147.00 Ry     beta= 0.70
     Davidson diagonalization with overlap
     ethr =  1.34E-10,  avg # of iterations =  5.0

     negative rho (up, down):  1.552E-03 0.000E+00

     total cpu time spent up to now is      244.7 secs

     total energy              =     -75.83731591 Ry
     estimated scf accuracy    <       0.00000003 Ry

     iteration # 18     ecut=   147.00 Ry     beta= 0.70
     Davidson diagonalization with overlap
     ethr =  1.34E-10,  avg # of iterations =  2.0

     negative rho (up, down):  1.552E-03 0.000E+00

     total cpu time spent up to now is      256.0 secs

     total energy              =     -75.83731592 Ry
     estimated scf accuracy    <       0.00000003 Ry

     iteration # 19     ecut=   147.00 Ry     beta= 0.70
     Davidson diagonalization with overlap
     ethr =  1.34E-10,  avg # of iterations =  2.0

     negative rho (up, down):  1.552E-03 0.000E+00

     total cpu time spent up to now is      267.6 secs

     total energy              =     -75.83731591 Ry
     estimated scf accuracy    <       0.00000005 Ry

     iteration # 20     ecut=   147.00 Ry     beta= 0.70
     Davidson diagonalization with overlap
     ethr =  1.34E-10,  avg # of iterations =  2.0

     negative rho (up, down):  1.552E-03 0.000E+00

     total cpu time spent up to now is      278.8 secs

     total energy              =     -75.83731589 Ry
     estimated scf accuracy    <       0.00000003 Ry

     iteration # 21     ecut=   147.00 Ry     beta= 0.70
     Davidson diagonalization with overlap
     ethr =  1.34E-10,  avg # of iterations =  4.0

     negative rho (up, down):  1.552E-03 0.000E+00

     total cpu time spent up to now is      290.2 secs

     End of self-consistent calculation

          k = 0.0000 0.0000 0.0000 (****** PWs)   bands (ev):

   -25.5008 -21.0009 -13.2525 -11.0975 -11.0731  -9.4401  -7.3458  -5.9368

     highest occupied level (ev):    -5.9368

!    total energy              =     -75.83731590 Ry
     total all-electron energy =      -265.982983 Ry
     estimated scf accuracy    <          2.8E-09 Ry

     The total energy is the sum of the following terms:
     one-electron contribution =    -157.18237486 Ry
     hartree contribution      =      81.45344197 Ry
     xc contribution           =     -16.77963045 Ry
     ewald contribution        =      34.23234732 Ry
     one-center paw contrib.   =     -17.56109988 Ry

     charge density inside the Wigner-Seitz cell:   16.00000000

     reference position (x0):        -0.08731055    5.48959479   -0.11476153 bohr

     Dipole moments (with respect to x0):
     Elect  -0.2234   0.9683   0.4482 au (Ha),  -0.5679   2.4611   1.1391 Debye
     Ionic  -0.0000   0.0000  -0.0000 au (Ha),  -0.0000   0.0000  -0.0000 Debye
     Total  -0.2234   0.9683   0.4482 au (Ha),  -0.5679   2.4611   1.1391 Debye

     Electrons quadrupole moment       -400.60057663 a.u. (Ha)
          Ions quadrupole moment        374.57923257 a.u. (Ha)
         Total quadrupole moment        -26.02134405 a.u. (Ha)

     *********    MAKOV-PAYNE CORRECTION    *********

     Makov-Payne correction with Madelung constant =   2.8373

     Makov-Payne correction     0.00000000 Ry =  0.000 eV (1st order, 1/a0)
                                0.00001720 Ry =  0.000 eV (2nd order, 1/a0^3)
                                0.00001720 Ry =  0.000 eV (total)

!    Total+Makov-Payne energy  =     -75.83729869 Ry
     Corrected vacuum level    =       0.00511567 eV

     convergence has been achieved in  21 iterations

     Writing all to output data dir ./pwscf.save/

     init_run     :     36.51s CPU     39.22s WALL (       1 calls)
     electrons    :    215.18s CPU    253.04s WALL (       1 calls)

     Called by init_run:
     wfcinit      :      1.91s CPU      2.13s WALL (       1 calls)
     potinit      :      4.42s CPU      5.29s WALL (       1 calls)
     hinit0       :      4.97s CPU      5.32s WALL (       1 calls)

     Called by electrons:
     c_bands      :     66.44s CPU     70.53s WALL (      21 calls)
     sum_band     :     60.59s CPU     72.95s WALL (      21 calls)
     v_of_rho     :     45.10s CPU     54.77s WALL (      22 calls)
     newd         :     27.40s CPU     38.51s WALL (      22 calls)
     PAW_pot      :      0.32s CPU      0.33s WALL (      22 calls)
     mix_rho      :     15.30s CPU     16.22s WALL (      21 calls)

     Called by c_bands:
     init_us_2    :      1.24s CPU      1.29s WALL (      43 calls)
     init_us_2:cp :      1.24s CPU      1.29s WALL (      43 calls)
     regterg      :     64.87s CPU     68.93s WALL (      21 calls)

     Called by *egterg:
     rdiaghg      :      0.01s CPU      0.03s WALL (      89 calls)
     h_psi        :     57.69s CPU     61.81s WALL (      90 calls)
     s_psi        :      1.63s CPU      1.64s WALL (      90 calls)
     g_psi        :      0.20s CPU      0.20s WALL (      68 calls)

     Called by h_psi:
     h_psi:calbec :      1.54s CPU      1.59s WALL (      90 calls)
     vloc_psi     :     54.16s CPU     58.17s WALL (      90 calls)
     add_vuspsi   :      1.61s CPU      1.64s WALL (      90 calls)

     General routines
     calbec       :      1.94s CPU      1.99s WALL (     111 calls)
     fft          :     37.91s CPU     45.34s WALL (     198 calls)
     ffts         :      3.14s CPU      3.83s WALL (      21 calls)
     fftw         :     50.71s CPU     55.23s WALL (     586 calls)

     Parallel routines

     PWSCF        :   4m13.73s CPU   4m56.99s WALL


   This run was terminated on:  16:28:13  12Oct2023            

=------------------------------------------------------------------------------=
   JOB DONE.
=------------------------------------------------------------------------------=
