
 Primary working directories    : /scratch/sirous/43083/molpro.IkTNP2Uuwz
 Secondary working directories  : /scratch/sirous/43083/molpro.IkTNP2Uuwz
 Wavefunction directory         : /scratch/sirous/43083/
 Main file repository           : /scratch/sirous/43083/molpro.IkTNP2Uuwz/

 id        : karlovklimes

 Nodes                      nprocs
 nc-10.cc.karlov.mff.cuni.cz    4

 Using customized tuning parameters: mindgm=1; mindgv=20; mindgc=4; mindgr=1; noblas=0; minvec=7
 default implementation of scratch files=sf  


 Variables initialized (934), CPU time= 0.01 sec
 ***,CH3C6H4CN+CF3CN+BF3
 memory,500,m
 gdirect
 gthresh,energy=1.d-8,twoint=1.d-19,oneint=1.d-19,zero=1.d-15,orbital=1.d-8,grid=1.d-8
 symmetry,nosym
 geomtyp=xyz
                                                                                 ! Geometry
 geometry={
 O1        -0.702196054    -0.056060256     0.009942262
 H1        -1.022193224    0.846775782     -0.011488714
 H2        0.257521062    0.042121496     0.005218999
 O2        3.877968561609676    0.013714986855680957     -0.003260749084838452
 H3        4.2545901766096765    -0.42466507914431906     0.7628636329151616
 H4        4.250232878609677    -0.462497988144319     -0.7486632510848384
 }
 
 
 
 basis=avqz
 
 
 
                                                                                 ! Dimer Calculation
 {rks,pbe,accu=1.d-8;orbital,2101.2}
 eab_PBE=energy
 
 
                                                                                 !monomer A
 dummy,4,5,6;                                                                    ! NOW MONOMER B IS DUMMY
 {rks,pbe,accu=1.d-8;orbital,2201.2}
 ea_PBE=energy
                                                                                 !monomer B
 dummy,1,2,3;                                                                    !NOW MONOMER A IS DUMMY
 {rks,pbe,accu=1.d-8;orbital,2301.2}
 eb_PBE=energy
 
 E_AB_int=eab_PBE-ea_PBE-eb_PBE
 
 
 text,results in hartree
 show,E_AB_int
 
 Commands  initialized (763), CPU time= 0.01 sec, 617 directives.
 Default parameters read. Elapsed time= 0.22 sec

 Checking input...
 Passed
1


                                         ***  PROGRAM SYSTEM MOLPRO  ***
                                       Copyright, TTI GmbH Stuttgart, 2015
                                    Version 2019.2 linked Jun  8 2019 11:26:33


 **********************************************************************************************************************************
 LABEL *   CH3C6H4CN+CF3CN+BF3                                                           
  64 bit mpp version                                                                     DATE: 06-Oct-19          TIME: 17:46:05  
 **********************************************************************************************************************************

 SHA1:             8135a10abc80eafa5b3ae28ffc55be4890dc4c84
 **********************************************************************************************************************************

 THRESHOLDS:

 ZERO    =  1.00D-15  ONEINT  =  1.00D-19  TWOINT  =  1.00D-19  PREFAC  =  1.00D-14  XXXXXX  =  1.00D-09  EORDER  =  1.00D-04
 ENERGY  =  1.00D-08  ETEST   =  0.00D+00  EDENS   =  0.00D+00  THRDEDEF=  1.00D-06  GRADIENT=  1.00D-02  STEP    =  1.00D-03
 ORBITAL =  1.00D-08  CIVEC   =  1.00D-05  COEFF   =  1.00D-04  PRINTCI =  5.00D-02  PUNCHCI =  9.90D+01  OPTGRAD =  3.00D-04
 OPTENERG=  1.00D-06  OPTSTEP =  3.00D-04  THRGRAD =  1.00D-10  COMPRESS=  1.00D-11  VARMIN  =  1.00D-07  VARMAX  =  1.00D-03
 THRDOUB =  0.00D+00  THRDIV  =  1.00D-05  THRRED  =  1.00D-07  THRPSP  =  1.00D+00  THRDC   =  1.00D-10  THRCS   =  1.00D-10
 THRNRM  =  1.00D-08  THREQ   =  0.00D+00  THRDE   =  1.00D+00  THRREF  =  1.00D-05  SPARFAC =  1.00D+00  THRDLP  =  1.00D-07
 THRDIA  =  1.00D-10  THRDLS  =  1.00D-07  THRGPS  =  0.00D+00  THRKEX  =  0.00D+00  THRDIS  =  2.00D-01  THRVAR  =  1.00D-10
 THRLOC  =  1.00D-06  THRGAP  =  1.00D-06  THRLOCT = -1.00D+00  THRGAPT = -1.00D+00  THRORB  =  1.00D-06  THRMLTP =  0.00D+00
 THRCPQCI=  1.00D-10  KEXTA   =  0.00D+00  THRCOARS=  0.00D+00  SYMTOL  =  1.00D-06  GRADTOL =  1.00D-06  THROVL  =  1.00D-08
 THRORTH =  1.00D-08  GRID    =  1.00D-08  GRIDMAX =  1.00D-03  DTMAX   =  0.00D+00  THROCCDE=  1.00D-01  THROCCDE=  1.00D-01
 THRPRINT=  2.50D-01


 Variable memory set to  500000000 words,  buffer space 

 SETTING GEOMTYP        =    XYZ
 ZSYMEL=NOSYM

 SETTING BASIS          =    AVQZ


 Recomputing integrals since basis changed


 Using spherical harmonics

 Library entry O      S aug-cc-pVQZ          selected for orbital group  1
 Library entry O      P aug-cc-pVQZ          selected for orbital group  1
 Library entry O      D aug-cc-pVQZ          selected for orbital group  1
 Library entry O      F aug-cc-pVQZ          selected for orbital group  1
 Library entry O      G aug-cc-pVQZ          selected for orbital group  1
 Library entry H      S aug-cc-pVQZ          selected for orbital group  2
 Library entry H      P aug-cc-pVQZ          selected for orbital group  2
 Library entry H      D aug-cc-pVQZ          selected for orbital group  2
 Library entry H      F aug-cc-pVQZ          selected for orbital group  2


 PROGRAM * SEWARD (Integral evaluation for generally contracted gaussian basis sets)     Author: Roland Lindh, 1990

 Geometry written to block  1 of record 700


 Point group  C1  



 ATOMIC COORDINATES

 NR  ATOM    CHARGE       X              Y              Z

   1  O1      8.00   -1.326958228   -0.105938530    0.018788152
   2  H1      1.00   -1.931665240    1.600174317   -0.021710523
   3  H2      1.00    0.486644278    0.079598091    0.009862479
   4  O2      8.00    7.328298501    0.025917569   -0.006161923
   5  H3      1.00    8.040010206   -0.802500694    1.441603337
   6  H4      1.00    8.031776106   -0.873994531   -1.414768504

 Bond lengths in Bohr (Angstrom)

 1-2  1.810561173  1-3  1.823090112  4-5  1.813514438  4-6  1.813531094
     ( 0.958107712)     ( 0.964737741)     ( 0.959670512)     ( 0.959679326)

 Bond angles

  2-1-3  103.66482512   5-4-6  103.95523303

 NUCLEAR CHARGE:                   20
 NUMBER OF PRIMITIVE AOS:         464
 NUMBER OF SYMMETRY AOS:          378
 NUMBER OF CONTRACTIONS:          344   (  344A   )
 NUMBER OF CORE ORBITALS:           2   (    2A   )
 NUMBER OF VALENCE ORBITALS:       12   (   12A   )


 NUCLEAR REPULSION ENERGY   29.87955877


 Eigenvalues of metric

         1 0.641E-04 0.742E-04 0.921E-04 0.104E-03 0.305E-03 0.352E-03 0.381E-03 0.554E-03


 OPERATOR DM      FOR CENTER  0  COORDINATES:    0.000000    0.000000    0.000000


 **********************************************************************************************************************************
 DATASETS  * FILE   NREC   LENGTH (MB)   RECORD NAMES
              1      18       34.41       500      610      700      900      950      970     1000      129      960     1100   
                                          VAR    BASINP    GEOM    SYMINP    ZMAT    AOBASIS   BASIS     P2S    ABASIS      S 
                                         1400     1410     1200     1210     1080     1600     1650     1700   
                                           T        V       H0       H01     AOSYM     SMH    MOLCAS    OPER   

 PROGRAMS   *        TOTAL       INT
 CPU TIMES  *         0.66      0.47
 REAL TIME  *         1.90 SEC
 DISK USED  *        34.87 MB (local),      139.46 MB (total)
 GA USED    *         0.00 MB       (max)       0.00 MB       (current)
 **********************************************************************************************************************************

 Density functional group PBE=PBEX+PBEC
 Functional: PBEX(Automatically generated (new) PBEX)                          Gradient terms: 1
 Functional: PBEC(Automatically generated (new) PBEC)                          Gradient terms: 1
 Use libxcgrid:  F
 Use grid at  1800.2

 Functional: PBEX                      Factor:  1.0000
 Functional: PBEC                      Factor:  1.0000

 Generated new metagrid on record  1800.2 with target accuracy 1.0D-08 and 60992 points in CPU time    0.2
 Computed new grid on record 1800.1 in CPU time    0.2
  278712 words reserved for DFT integration

 PROGRAM * RKS-SCF (Restricted closed shell Kohn-Sham)     Authors: W. Meyer, H.-J. Werner, P.J. Knowles, 1993

 NUMBER OF ELECTRONS:      10+   10-    SPACE SYMMETRY=1    SPIN SYMMETRY: Singlet 
 CONVERGENCE THRESHOLDS:    1.00E-04 (Density)    1.00E-08 (Energy)
 INTEGRAL THRESHOLDS:       1.00E-11 (Initial)    1.00E-11 (Final)
 MAX. NUMBER OF ITERATIONS:       60
 INTERPOLATION TYPE:            DIIS
 INTERPOLATION STEPS:              2 (START)      1 (STEP)
 LEVEL SHIFTS:                  0.00 (CLOSED)  0.00 (OPEN) 



 Use fine grid record 1800.2 for energy threshold  1.0D-08
 Orbital guess generated from atomic densities. Full valence occupancy:   14

 Molecular orbital dump at record        2101.2

 Initial occupancy:  10

 Direct Fock-matrix evaluation.        Authors: Roland Lindh & Martin Schuetz (1993/96)

 Integral Threshold:                  0.1D-10
 Threshold for writing integrals:     0.1D-06
 Prescreening on density matrix:        ON 
 Calculation will be performed fully direct        

 ITERATION   DDIFF            GRAD            ENERGY        2-EL.EN.            DIPOLE MOMENTS         DIIS   CPU(IT)  CPU(TOT)
    1      0.000D+00      0.000D+00      -152.60423434    219.543979    1.29627    0.07845   -0.00502    0     17.3     20.6     start
    2      0.000D+00      0.844D-02      -151.85465092    186.976031   -0.26117   -0.03021    0.00135    1     16.0     36.7     diag
    3      0.114D-01      0.189D-01      -152.77365320    210.346381    0.90794    0.05165   -0.00343    2     16.1     52.7     diag
    4      0.799D-02      0.503D-03      -152.77446933    209.552370    0.88179    0.04596   -0.00323    3     15.1     67.9     diag
    5      0.306D-03      0.109D-03      -152.77449272    209.639905    0.87851    0.05020   -0.00333    4     15.0     82.9     diag
    6      0.454D-04      0.412D-04      -152.77449515    209.660307    0.88035    0.04629   -0.00324    5     13.7     96.6     diag
    7      0.268D-04      0.263D-04      -152.77449671    209.665305    0.88098    0.04808   -0.00328    6     13.0    109.5     diag
    8      0.118D-04      0.802D-06      -152.77449671    209.665166    0.88091    0.04805   -0.00328    7     11.2    120.8     diag
    9      0.312D-06      0.521D-07      -152.77449671    209.665274    0.88092    0.04805   -0.00328    0      9.2    129.9     orth

 Final occupancy:  10

 !RKS STATE  1.1 Energy              -152.774496707974
 Nuclear energy                        29.87955877
 One-electron energy                 -269.00694680
 Two-electron energy                  104.83263710
 Density functional                   -18.47974578     PBEX=-17.83080600 PBEC= -0.64893978
 Virial quotient                       -1.00343966
 !RKS STATE  1.1 Dipole moment          0.88092051     0.04805011    -0.00328293
 Dipole moment /Debye                   2.23892996     0.12212321    -0.00834382

 Orbital energies:

         1.1          2.1          3.1          4.1          5.1          6.1          7.1          8.1          9.1         10.1
    -18.761448   -18.745599    -0.939474    -0.922876    -0.491139    -0.473975    -0.352479    -0.336423    -0.274536    -0.258418

        11.1         12.1
     -0.043182    -0.020197


 HOMO     10.1    -0.258418 =      -7.0319eV
 LUMO     11.1    -0.043182 =      -1.1750eV
 LUMO-HOMO         0.215236 =       5.8569eV


 **********************************************************************************************************************************
 DATASETS  * FILE   NREC   LENGTH (MB)   RECORD NAMES
              1      19       34.41       500      610      700      900      950      970     1000      129      960     1100   
                                          VAR    BASINP    GEOM    SYMINP    ZMAT    AOBASIS   BASIS     P2S    ABASIS      S 
                                         1400     1410     1200     1210     1080     1600     1650     1700     1800   
                                           T        V       H0       H01     AOSYM     SMH    MOLCAS    OPER     GRID   

              2       5        5.27       700     1000      520     1800     2101   
                                         GEOM     BASIS   MCVARS    GRID      RKS  

 PROGRAMS   *        TOTAL   RKS-SCF       INT
 CPU TIMES  *       130.92    130.26      0.47
 REAL TIME  *       134.88 SEC
 DISK USED  *        47.36 MB (local),      189.46 MB (total)
 SF USED    *         1.42 MB
 GA USED    *         2.02 MB       (max)       2.02 MB       (current)
 **********************************************************************************************************************************
 SETTING EAB_PBE        =      -152.77449671  AU                              

 Dummy atoms: O2  H3  H4


 Recomputing one-electron integrals since nuclear charges changed


 PROGRAM * SEWARD (Integral evaluation for generally contracted gaussian basis sets)     Author: Roland Lindh, 1990

 Geometry written to block  1 of record 700


 Point group  C1  



 ATOMIC COORDINATES

 NR  ATOM    CHARGE       X              Y              Z

   1  O1      8.00   -1.326958228   -0.105938530    0.018788152
   2  H1      1.00   -1.931665240    1.600174317   -0.021710523
   3  H2      1.00    0.486644278    0.079598091    0.009862479
   4  O2      0.00    7.328298501    0.025917569   -0.006161923
   5  H3      0.00    8.040010206   -0.802500694    1.441603337
   6  H4      0.00    8.031776106   -0.873994531   -1.414768504

 Bond lengths in Bohr (Angstrom)

 1-2  1.810561173  1-3  1.823090112  4-5  1.813514438  4-6  1.813531094
     ( 0.958107712)     ( 0.964737741)     ( 0.959670512)     ( 0.959679326)

 Bond angles

  2-1-3  103.66482512   5-4-6  103.95523303

 NUCLEAR CHARGE:                   10
 NUMBER OF PRIMITIVE AOS:         464
 NUMBER OF SYMMETRY AOS:          378
 NUMBER OF CONTRACTIONS:          344   (  344A   )
 NUMBER OF CORE ORBITALS:           1   (    1A   )
 NUMBER OF VALENCE ORBITALS:        6   (    6A   )

 MOLECULE CHANGED: INITIALIZING OCCUPATION AND DUMP RECORDS


 NUCLEAR REPULSION ENERGY    9.15671413


 Eigenvalues of metric

         1 0.641E-04 0.742E-04 0.921E-04 0.104E-03 0.305E-03 0.352E-03 0.381E-03 0.554E-03


 OPERATOR DM      FOR CENTER  0  COORDINATES:    0.000000    0.000000    0.000000


 **********************************************************************************************************************************
 DATASETS  * FILE   NREC   LENGTH (MB)   RECORD NAMES
              1      19       34.41       500      610      700      900      950      970     1000      129      960     1100   
                                          VAR    BASINP    GEOM    SYMINP    ZMAT    AOBASIS   BASIS     P2S    ABASIS      S 
                                         1400     1410     1200     1210     1080     1600     1650     1700     1800   
                                           T        V       H0       H01     AOSYM     SMH    MOLCAS    OPER     GRID   

              2       5        5.27       700     1000      520     1800     2101   
                                         GEOM     BASIS   MCVARS    GRID      RKS  

 PROGRAMS   *        TOTAL       INT   RKS-SCF       INT
 CPU TIMES  *       131.07      0.13    130.26      0.47
 REAL TIME  *       135.10 SEC
 DISK USED  *        47.36 MB (local),      189.46 MB (total)
 SF USED    *         1.42 MB
 GA USED    *         2.02 MB       (max)       2.02 MB       (current)
 **********************************************************************************************************************************

 Density functional group PBE=PBEX+PBEC
 Functional: PBEX(Automatically generated (new) PBEX)                          Gradient terms: 1
 Functional: PBEC(Automatically generated (new) PBEC)                          Gradient terms: 1
 Use libxcgrid:  F
 Use grid at  1800.2

 Functional: PBEX                      Factor:  1.0000
 Functional: PBEC                      Factor:  1.0000

 Generated new metagrid on record  1800.2 with target accuracy 1.0D-08 and 60992 points in CPU time    0.2
 Computed new grid on record 1800.1 in CPU time    0.2
  278712 words reserved for DFT integration

 PROGRAM * RKS-SCF (Restricted closed shell Kohn-Sham)     Authors: W. Meyer, H.-J. Werner, P.J. Knowles, 1993

 NUMBER OF ELECTRONS:       5+    5-    SPACE SYMMETRY=1    SPIN SYMMETRY: Singlet 
 CONVERGENCE THRESHOLDS:    1.00E-04 (Density)    1.00E-08 (Energy)
 INTEGRAL THRESHOLDS:       1.00E-11 (Initial)    1.00E-11 (Final)
 MAX. NUMBER OF ITERATIONS:       60
 INTERPOLATION TYPE:            DIIS
 INTERPOLATION STEPS:              2 (START)      1 (STEP)
 LEVEL SHIFTS:                  0.00 (CLOSED)  0.00 (OPEN) 



 Use fine grid record 1800.2 for energy threshold  1.0D-08
 Orbital guess generated from atomic densities. Full valence occupancy:    7

 Molecular orbital dump at record        2201.2

 Initial occupancy:   5

 Direct Fock-matrix evaluation.        Authors: Roland Lindh & Martin Schuetz (1993/96)

 Integral Threshold:                  0.1D-10
 Threshold for writing integrals:     0.1D-06
 Prescreening on density matrix:        ON 
 Calculation will be performed fully direct        

 ITERATION   DDIFF            GRAD            ENERGY        2-EL.EN.            DIPOLE MOMENTS         DIIS   CPU(IT)  CPU(TOT)
    1      0.000D+00      0.000D+00       -76.30037595     98.206664    0.59668    0.92900   -0.02428    0     16.9     21.6     start
    2      0.000D+00      0.840D-02       -75.91392344     81.825106   -0.25363   -0.36549    0.00960    1     16.0     37.6     diag
    3      0.803D-02      0.190D-01       -76.38590540     93.601336    0.39815    0.62444   -0.01631    2     16.5     54.1     diag
    4      0.559D-02      0.499D-03       -76.38632049     93.200699    0.38141    0.59941   -0.01566    3     14.6     68.7     diag
    5      0.221D-03      0.109D-03       -76.38633364     93.250267    0.38073    0.59815   -0.01562    4     13.2     82.0     diag
    6      0.281D-04      0.245D-04       -76.38633441     93.261001    0.38196    0.60007   -0.01567    5     12.0     94.0     diag
    7      0.709D-05      0.981D-06       -76.38633441     93.261013    0.38190    0.59998   -0.01567    6      9.2    103.2     diag
    8      0.258D-06      0.807D-07       -76.38633441     93.261118    0.38191    0.60000   -0.01567    0      7.2    110.4     orth

 Final occupancy:   5

 !RKS STATE  1.1 Energy               -76.386334414074
 Nuclear energy                         9.15671413
 One-electron energy                 -122.93465908
 Two-electron energy                   46.63055891
 Density functional                    -9.23894838     PBEX=-8.91452736 PBEC=-0.32442102
 Virial quotient                       -1.00344126
 !RKS STATE  1.1 Dipole moment          0.38191237     0.59999568    -0.01567216
 Dipole moment /Debye                   0.97066083     1.52493703    -0.03983206

 Orbital energies:

         1.1          2.1          3.1          4.1          5.1          6.1          7.1
    -18.754058    -0.931344    -0.482587    -0.344551    -0.266391    -0.034680     0.014217


 HOMO      5.1    -0.266391 =      -7.2489eV
 LUMO      6.1    -0.034680 =      -0.9437eV
 LUMO-HOMO         0.231711 =       6.3052eV


 **********************************************************************************************************************************
 DATASETS  * FILE   NREC   LENGTH (MB)   RECORD NAMES
              1      19       34.41       500      610      700      900      950      970     1000      129      960     1100   
                                          VAR    BASINP    GEOM    SYMINP    ZMAT    AOBASIS   BASIS     P2S    ABASIS      S 
                                         1400     1410     1200     1210     1080     1600     1650     1700     1800   
                                           T        V       H0       H01     AOSYM     SMH    MOLCAS    OPER     GRID   

              2       6       12.51       700     1000      520     1800     2101     2201   
                                         GEOM     BASIS   MCVARS    GRID      RKS      RKS  

 PROGRAMS   *        TOTAL   RKS-SCF       INT   RKS-SCF       INT
 CPU TIMES  *       241.76    110.70      0.13    130.26      0.47
 REAL TIME  *       247.34 SEC
 DISK USED  *        54.13 MB (local),      216.52 MB (total)
 SF USED    *         1.42 MB
 GA USED    *         2.02 MB       (max)       2.02 MB       (current)
 **********************************************************************************************************************************
 SETTING EA_PBE         =       -76.38633441  AU                              

 Dummy atoms: O1  H1  H2


 Recomputing one-electron integrals since nuclear charges changed


 PROGRAM * SEWARD (Integral evaluation for generally contracted gaussian basis sets)     Author: Roland Lindh, 1990

 Geometry written to block  1 of record 700


 Point group  C1  



 ATOMIC COORDINATES

 NR  ATOM    CHARGE       X              Y              Z

   1  O1      0.00   -1.326958228   -0.105938530    0.018788152
   2  H1      0.00   -1.931665240    1.600174317   -0.021710523
   3  H2      0.00    0.486644278    0.079598091    0.009862479
   4  O2      8.00    7.328298501    0.025917569   -0.006161923
   5  H3      1.00    8.040010206   -0.802500694    1.441603337
   6  H4      1.00    8.031776106   -0.873994531   -1.414768504

 Bond lengths in Bohr (Angstrom)

 1-2  1.810561173  1-3  1.823090112  4-5  1.813514438  4-6  1.813531094
     ( 0.958107712)     ( 0.964737741)     ( 0.959670512)     ( 0.959679326)

 Bond angles

  2-1-3  103.66482512   5-4-6  103.95523303

 NUCLEAR CHARGE:                   10
 NUMBER OF PRIMITIVE AOS:         464
 NUMBER OF SYMMETRY AOS:          378
 NUMBER OF CONTRACTIONS:          344   (  344A   )
 NUMBER OF CORE ORBITALS:           1   (    1A   )
 NUMBER OF VALENCE ORBITALS:        6   (    6A   )

 MOLECULE CHANGED: INITIALIZING OCCUPATION AND DUMP RECORDS


 NUCLEAR REPULSION ENERGY    9.17259115


 Eigenvalues of metric

         1 0.641E-04 0.742E-04 0.921E-04 0.104E-03 0.305E-03 0.352E-03 0.381E-03 0.554E-03


 OPERATOR DM      FOR CENTER  0  COORDINATES:    0.000000    0.000000    0.000000


 **********************************************************************************************************************************
 DATASETS  * FILE   NREC   LENGTH (MB)   RECORD NAMES
              1      19       34.41       500      610      700      900      950      970     1000      129      960     1100   
                                          VAR    BASINP    GEOM    SYMINP    ZMAT    AOBASIS   BASIS     P2S    ABASIS      S 
                                         1400     1410     1200     1210     1080     1600     1650     1700     1800   
                                           T        V       H0       H01     AOSYM     SMH    MOLCAS    OPER     GRID   

              2       6       12.51       700     1000      520     1800     2101     2201   
                                         GEOM     BASIS   MCVARS    GRID      RKS      RKS  

 PROGRAMS   *        TOTAL       INT   RKS-SCF       INT   RKS-SCF       INT
 CPU TIMES  *       241.91      0.14    110.70      0.13    130.26      0.47
 REAL TIME  *       247.56 SEC
 DISK USED  *        54.13 MB (local),      216.52 MB (total)
 SF USED    *         1.42 MB
 GA USED    *         2.02 MB       (max)       2.02 MB       (current)
 **********************************************************************************************************************************

 Density functional group PBE=PBEX+PBEC
 Functional: PBEX(Automatically generated (new) PBEX)                          Gradient terms: 1
 Functional: PBEC(Automatically generated (new) PBEC)                          Gradient terms: 1
 Use libxcgrid:  F
 Use grid at  1800.2

 Functional: PBEX                      Factor:  1.0000
 Functional: PBEC                      Factor:  1.0000

 Generated new metagrid on record  1800.2 with target accuracy 1.0D-08 and 60992 points in CPU time    0.2
 Computed new grid on record 1800.1 in CPU time    0.2
  278712 words reserved for DFT integration

 PROGRAM * RKS-SCF (Restricted closed shell Kohn-Sham)     Authors: W. Meyer, H.-J. Werner, P.J. Knowles, 1993

 NUMBER OF ELECTRONS:       5+    5-    SPACE SYMMETRY=1    SPIN SYMMETRY: Singlet 
 CONVERGENCE THRESHOLDS:    1.00E-04 (Density)    1.00E-08 (Energy)
 INTEGRAL THRESHOLDS:       1.00E-11 (Initial)    1.00E-11 (Final)
 MAX. NUMBER OF ITERATIONS:       60
 INTERPOLATION TYPE:            DIIS
 INTERPOLATION STEPS:              2 (START)      1 (STEP)
 LEVEL SHIFTS:                  0.00 (CLOSED)  0.00 (OPEN) 



 Use fine grid record 1800.2 for energy threshold  1.0D-08
 Orbital guess generated from atomic densities. Full valence occupancy:    7

 Molecular orbital dump at record        2301.2

 Initial occupancy:   5

 Direct Fock-matrix evaluation.        Authors: Roland Lindh & Martin Schuetz (1993/96)

 Integral Threshold:                  0.1D-10
 Threshold for writing integrals:     0.1D-06
 Prescreening on density matrix:        ON 
 Calculation will be performed fully direct        

 ITERATION   DDIFF            GRAD            ENERGY        2-EL.EN.            DIPOLE MOMENTS         DIIS   CPU(IT)  CPU(TOT)
    1      0.000D+00      0.000D+00       -76.30014229     98.243725    0.69656   -0.85060    0.01927    0     17.1     20.9     start
    2      0.000D+00      0.842D-02       -75.91387557     81.842249   -0.27712    0.34152   -0.00773    1     17.1     38.0     diag
    3      0.821D-02      0.190D-01       -76.38587566     93.632667    0.46811   -0.57146    0.01295    2     16.5     54.5     diag
    4      0.587D-02      0.502D-03       -76.38629597     93.229535    0.44908   -0.54822    0.01242    3     14.4     68.9     diag
    5      0.221D-03      0.109D-03       -76.38630918     93.279369    0.44819   -0.54711    0.01240    4     13.2     82.2     diag
    6      0.288D-04      0.245D-04       -76.38630995     93.290024    0.44962   -0.54887    0.01244    5     13.2     95.3     diag
    7      0.713D-05      0.980D-06       -76.38630995     93.290052    0.44956   -0.54878    0.01243    6     10.2    105.6     diag
    8      0.254D-06      0.796D-07       -76.38630995     93.290157    0.44957   -0.54880    0.01244    0      7.4    113.0     orth

 Final occupancy:   5

 !RKS STATE  1.1 Energy               -76.386309950033
 Nuclear energy                         9.17259115
 One-electron energy                 -122.96341920
 Two-electron energy                   46.64507841
 Density functional                    -9.24056031     PBEX=-8.91607087 PBEC=-0.32448944
 Virial quotient                       -1.00336751
 !RKS STATE  1.1 Dipole moment          0.44956673    -0.54879629     0.01243526
 Dipole moment /Debye                   1.14260981    -1.39480967     0.03160522

 Orbital energies:

         1.1          2.1          3.1          4.1          5.1          6.1          7.1
    -18.753689    -0.931860    -0.483707    -0.344118    -0.266476    -0.034378     0.016164


 HOMO      5.1    -0.266476 =      -7.2512eV
 LUMO      6.1    -0.034378 =      -0.9355eV
 LUMO-HOMO         0.232098 =       6.3157eV


 **********************************************************************************************************************************
 DATASETS  * FILE   NREC   LENGTH (MB)   RECORD NAMES
              1      19       34.41       500      610      700      900      950      970     1000      129      960     1100   
                                          VAR    BASINP    GEOM    SYMINP    ZMAT    AOBASIS   BASIS     P2S    ABASIS      S 
                                         1400     1410     1200     1210     1080     1600     1650     1700     1800   
                                           T        V       H0       H01     AOSYM     SMH    MOLCAS    OPER     GRID   

              2       7       19.75       700     1000      520     1800     2101     2201     2301   
                                         GEOM     BASIS   MCVARS    GRID      RKS      RKS      RKS  

 PROGRAMS   *        TOTAL   RKS-SCF       INT   RKS-SCF       INT   RKS-SCF       INT
 CPU TIMES  *       355.22    113.31      0.14    110.70      0.13    130.26      0.47
 REAL TIME  *       362.49 SEC
 DISK USED  *        61.37 MB (local),      245.48 MB (total)
 SF USED    *         1.42 MB
 GA USED    *         2.02 MB       (max)       2.02 MB       (current)
 **********************************************************************************************************************************
 SETTING EB_PBE         =       -76.38630995  AU                              
 SETTING E_AB_INT       =        -0.00185234  AU                              

 *** results in hartree
 E_AB_INT         =        -0.00185234 AU
 Molecular orbitals read from record     2301.2  Type=RKS/CANONICAL (state 1.1)
 Occupation numbers read from record     2301.2  Type=RKS/RHF (state 1.1)
 Orbital energies read from record       2301.2  Type=RKS/CANONICAL (state 1.1)
 Redundancy group numbers read from rec  2301.2  Type=RKS/RHF (state 1.1)

 RPBE/aug-cc-pVQZ energy=    -76.386309950033

         RKS-SCF         RKS-SCF         RKS-SCF
    -76.38630995    -76.38633441   -152.77449671
 **********************************************************************************************************************************
 Molpro calculation terminated
