
     Program PWSCF v.7.2 starts on 12Oct2023 at 18:15:53 

     This program is part of the open-source Quantum ESPRESSO suite
     for quantum simulation of materials; please cite
         "P. Giannozzi et al., J. Phys.:Condens. Matter 21 395502 (2009);
         "P. Giannozzi et al., J. Phys.:Condens. Matter 29 465901 (2017);
         "P. Giannozzi et al., J. Chem. Phys. 152 154105 (2020);
          URL http://www.quantum-espresso.org", 
     in publications or presentations arising from this work. More details at
     http://www.quantum-espresso.org/quote

     Parallel version (MPI), running on    32 processors

     MPI processes distributed on     1 nodes
     248968 MiB available memory on the printing compute node when the environment starts

     Reading input from 02WaterMeOH100_precision_monomer_2.in
Warning: card &CELL ignored
Warning: card / ignored

     Current dimensions of program PWSCF are:
     Max number of different atomic species (ntypx) = 10
     Max number of k-points (npk) =  40000
     Max angular momentum in pseudopotentials (lmaxx) =  4
     file O.pbe-n-kjpaw_psl.1.0.0.UPF: wavefunction(s)  2S 2P renormalized
     file H.pbe-kjpaw_psl.1.0.0.UPF: wavefunction(s)  1S renormalized
     file C.pbe-n-kjpaw_psl.1.0.0.UPF: wavefunction(s)  2S 2P renormalized

     IMPORTANT: XC functional enforced from input :
     Exchange-correlation= PBE
                           (   1   4   3   4   0   0   0)
     Any further DFT definition will be discarded
     Please, verify this is what you really want


     gamma-point specific algorithms are used

     R & G space division:  proc/nbgrp/npool/nimage =      32
     Subspace diagonalization in iterative solution of the eigenvalue problem:
     a serial algorithm will be used


     Parallelization info
     --------------------
     sticks:   dense  smooth     PW     G-vecs:    dense   smooth      PW
     Min        6395    6395   1598              2177048  2177048  272114
     Max        6398    6398   1600              2177062  2177062  272124
     Sum      204693  204693  51189             69665707 69665707 8707803

     Using Slab Decomposition



     bravais-lattice index     =            0
     lattice parameter (alat)  =      66.1404  a.u.
     unit-cell volume          =  289334.8415 (a.u.)^3
     number of atoms/cell      =            6
     number of atomic types    =            3
     number of electrons       =        14.00
     number of Kohn-Sham states=            7
     kinetic-energy cutoff     =     147.0000  Ry
     charge density cutoff     =     588.0000  Ry
     scf convergence threshold =      1.0E-08
     mixing beta               =       0.7000
     number of iterations used =            8  plain     mixing
     Exchange-correlation= PBE
                           (   1   4   3   4   0   0   0)

     celldm(1)=  66.140414  celldm(2)=   0.000000  celldm(3)=   0.000000
     celldm(4)=   0.000000  celldm(5)=   0.000000  celldm(6)=   0.000000

     crystal axes: (cart. coord. in units of alat)
               a(1) = (   1.000000   0.000000   0.000000 )  
               a(2) = (   0.000000   1.000000   0.000000 )  
               a(3) = (   0.000000   0.000000   1.000000 )  

     reciprocal axes: (cart. coord. in units 2 pi/alat)
               b(1) = (  1.000000  0.000000  0.000000 )  
               b(2) = (  0.000000  1.000000  0.000000 )  
               b(3) = (  0.000000  0.000000  1.000000 )  


     PseudoPot. # 1 for O  read from file:
     /home/users/klimj2am/src/pslibrary.1.0.0/pbe/PSEUDOPOTENTIALS/O.pbe-n-kjpaw_psl.1.0.0.UPF
     MD5 check sum: 48e285564fec6dca10ec424bc53b541b
     Pseudo is Projector augmented-wave + core cor, Zval =  6.0
     Generated using 'atomic' code by A. Dal Corso  v.7.2
     Shape of augmentation charge: PSQ
     Using radial grid of 1095 points,  4 beta functions with: 
                l(1) =   0
                l(2) =   0
                l(3) =   1
                l(4) =   1
     Q(r) pseudized with 0 coefficients 


     PseudoPot. # 2 for H  read from file:
     /home/users/klimj2am/src/pslibrary.1.0.0/pbe/PSEUDOPOTENTIALS/H.pbe-kjpaw_psl.1.0.0.UPF
     MD5 check sum: 220281c0717fd894cece6904c624ceaa
     Pseudo is Projector augmented-wave, Zval =  1.0
     Generated using 'atomic' code by A. Dal Corso  v.7.2
     Shape of augmentation charge: PSQ
     Using radial grid of  929 points,  2 beta functions with: 
                l(1) =   0
                l(2) =   0
     Q(r) pseudized with 0 coefficients 


     PseudoPot. # 3 for C  read from file:
     /home/users/klimj2am/src/pslibrary.1.0.0/pbe/PSEUDOPOTENTIALS/C.pbe-n-kjpaw_psl.1.0.0.UPF
     MD5 check sum: 9d4797b4e2669f30c50dcc814f8da1dd
     Pseudo is Projector augmented-wave + core cor, Zval =  4.0
     Generated using 'atomic' code by A. Dal Corso  v.7.2
     Shape of augmentation charge: PSQ
     Using radial grid of 1073 points,  4 beta functions with: 
                l(1) =   0
                l(2) =   0
                l(3) =   1
                l(4) =   1
     Q(r) pseudized with 0 coefficients 


     atomic species   valence    mass     pseudopotential
        O              6.00    15.99900     O ( 1.00)
        H              1.00     1.00800     H ( 1.00)
        C              4.00    12.01100     C ( 1.00)

     No symmetry found



   Cartesian axes

     site n.     atom                  positions (alat units)
         1           O   tau(   1) = (   0.0674384   0.0012907   0.0021480  )
         2           H   tau(   2) = (   0.0779522  -0.0150544   0.0215060  )
         3           C   tau(   3) = (   0.0807242  -0.0121844  -0.0339136  )
         4           H   tau(   4) = (   0.0684152   0.0064182  -0.0554312  )
         5           H   tau(   5) = (   0.1117518  -0.0107332  -0.0360368  )
         6           H   tau(   6) = (   0.0713430  -0.0413236  -0.0396017  )

     number of k points=     1
                       cart. coord. in units 2pi/alat
        k(    1) = (   0.0000000   0.0000000   0.0000000), wk =   2.0000000

     Dense  grid: 34832854 G-vectors     FFT dimensions: ( 512, 512, 512)

     Estimated max dynamical RAM per process >       1.61 GB

     Estimated total dynamical RAM >      51.68 GB

     Initial potential from superposition of free atoms

     starting charge      13.9999, renormalised to      14.0000

     negative rho (up, down):  6.495E-04 0.000E+00
     Starting wfcs are   12 randomized atomic wfcs
     Checking if some PAW data can be deallocated... 

     total cpu time spent up to now is       42.7 secs

     Self-consistent Calculation

     iteration #  1     ecut=   147.00 Ry     beta= 0.70
     Davidson diagonalization with overlap
     ethr =  1.00E-02,  avg # of iterations =  3.0

     negative rho (up, down):  7.657E-04 0.000E+00

     total cpu time spent up to now is       55.9 secs

     total energy              =     -64.60066640 Ry
     estimated scf accuracy    <       0.61940748 Ry

     iteration #  2     ecut=   147.00 Ry     beta= 0.70
     Davidson diagonalization with overlap
     ethr =  4.42E-03,  avg # of iterations =  4.0

     negative rho (up, down):  8.474E-04 0.000E+00

     total cpu time spent up to now is       68.7 secs

     total energy              =     -64.75629795 Ry
     estimated scf accuracy    <       0.12790858 Ry

     iteration #  3     ecut=   147.00 Ry     beta= 0.70
     Davidson diagonalization with overlap
     ethr =  9.14E-04,  avg # of iterations =  4.0

     negative rho (up, down):  1.046E-03 0.000E+00

     total cpu time spent up to now is       81.8 secs

     total energy              =     -64.79490263 Ry
     estimated scf accuracy    <       0.02051041 Ry

     iteration #  4     ecut=   147.00 Ry     beta= 0.70
     Davidson diagonalization with overlap
     ethr =  1.47E-04,  avg # of iterations =  5.0

     negative rho (up, down):  1.164E-03 0.000E+00

     total cpu time spent up to now is       96.0 secs

     total energy              =     -64.80955780 Ry
     estimated scf accuracy    <       0.01782684 Ry

     iteration #  5     ecut=   147.00 Ry     beta= 0.70
     Davidson diagonalization with overlap
     ethr =  1.27E-04,  avg # of iterations =  4.0

     negative rho (up, down):  1.235E-03 0.000E+00

     total cpu time spent up to now is      108.8 secs

     total energy              =     -64.81523516 Ry
     estimated scf accuracy    <       0.00241527 Ry

     iteration #  6     ecut=   147.00 Ry     beta= 0.70
     Davidson diagonalization with overlap
     ethr =  1.73E-05,  avg # of iterations =  3.0

     negative rho (up, down):  1.238E-03 0.000E+00

     total cpu time spent up to now is      121.2 secs

     total energy              =     -64.81570184 Ry
     estimated scf accuracy    <       0.00297372 Ry

     iteration #  7     ecut=   147.00 Ry     beta= 0.70
     Davidson diagonalization with overlap
     ethr =  1.73E-05,  avg # of iterations =  2.0

     negative rho (up, down):  1.230E-03 0.000E+00

     total cpu time spent up to now is      133.1 secs

     total energy              =     -64.81517969 Ry
     estimated scf accuracy    <       0.00143334 Ry

     iteration #  8     ecut=   147.00 Ry     beta= 0.70
     Davidson diagonalization with overlap
     ethr =  1.02E-05,  avg # of iterations =  4.0

     negative rho (up, down):  1.233E-03 0.000E+00

     total cpu time spent up to now is      146.3 secs

     total energy              =     -64.81554254 Ry
     estimated scf accuracy    <       0.00006607 Ry

     iteration #  9     ecut=   147.00 Ry     beta= 0.70
     Davidson diagonalization with overlap
     ethr =  4.72E-07,  avg # of iterations = 10.0

     negative rho (up, down):  1.238E-03 0.000E+00

     total cpu time spent up to now is      165.6 secs

     total energy              =     -64.81571375 Ry
     estimated scf accuracy    <       0.00040718 Ry

     iteration # 10     ecut=   147.00 Ry     beta= 0.70
     Davidson diagonalization with overlap
     ethr =  4.72E-07,  avg # of iterations =  2.0

     negative rho (up, down):  1.245E-03 0.000E+00

     total cpu time spent up to now is      178.0 secs

     total energy              =     -64.81557149 Ry
     estimated scf accuracy    <       0.00022177 Ry

     iteration # 11     ecut=   147.00 Ry     beta= 0.70
     Davidson diagonalization with overlap
     ethr =  4.72E-07,  avg # of iterations =  8.0

     negative rho (up, down):  1.242E-03 0.000E+00

     total cpu time spent up to now is      196.0 secs

     total energy              =     -64.81568536 Ry
     estimated scf accuracy    <       0.00021972 Ry

     iteration # 12     ecut=   147.00 Ry     beta= 0.70
     Davidson diagonalization with overlap
     ethr =  4.72E-07,  avg # of iterations =  2.0

     negative rho (up, down):  1.240E-03 0.000E+00

     total cpu time spent up to now is      208.4 secs

     total energy              =     -64.81565236 Ry
     estimated scf accuracy    <       0.00007531 Ry

     iteration # 13     ecut=   147.00 Ry     beta= 0.70
     Davidson diagonalization with overlap
     ethr =  4.72E-07,  avg # of iterations =  7.0

     negative rho (up, down):  1.241E-03 0.000E+00

     total cpu time spent up to now is      223.9 secs

     total energy              =     -64.81570591 Ry
     estimated scf accuracy    <       0.00003176 Ry

     iteration # 14     ecut=   147.00 Ry     beta= 0.70
     Davidson diagonalization with overlap
     ethr =  2.27E-07,  avg # of iterations =  1.0

     negative rho (up, down):  1.242E-03 0.000E+00

     total cpu time spent up to now is      235.5 secs

     total energy              =     -64.81570262 Ry
     estimated scf accuracy    <       0.00001862 Ry

     iteration # 15     ecut=   147.00 Ry     beta= 0.70
     Davidson diagonalization with overlap
     ethr =  1.33E-07,  avg # of iterations =  2.0

     negative rho (up, down):  1.242E-03 0.000E+00

     total cpu time spent up to now is      247.7 secs

     total energy              =     -64.81570342 Ry
     estimated scf accuracy    <       0.00000798 Ry

     iteration # 16     ecut=   147.00 Ry     beta= 0.70
     Davidson diagonalization with overlap
     ethr =  5.70E-08,  avg # of iterations =  2.0

     negative rho (up, down):  1.242E-03 0.000E+00

     total cpu time spent up to now is      259.6 secs

     total energy              =     -64.81570279 Ry
     estimated scf accuracy    <       0.00000465 Ry

     iteration # 17     ecut=   147.00 Ry     beta= 0.70
     Davidson diagonalization with overlap
     ethr =  3.32E-08,  avg # of iterations =  2.0

     negative rho (up, down):  1.242E-03 0.000E+00

     total cpu time spent up to now is      271.5 secs

     total energy              =     -64.81570206 Ry
     estimated scf accuracy    <       0.00000209 Ry

     iteration # 18     ecut=   147.00 Ry     beta= 0.70
     Davidson diagonalization with overlap
     ethr =  1.49E-08,  avg # of iterations =  6.0

     negative rho (up, down):  1.242E-03 0.000E+00

     total cpu time spent up to now is      286.4 secs

     total energy              =     -64.81570363 Ry
     estimated scf accuracy    <       0.00000094 Ry

     iteration # 19     ecut=   147.00 Ry     beta= 0.70
     Davidson diagonalization with overlap
     ethr =  6.68E-09,  avg # of iterations =  2.0

     negative rho (up, down):  1.242E-03 0.000E+00

     total cpu time spent up to now is      298.7 secs

     total energy              =     -64.81570370 Ry
     estimated scf accuracy    <       0.00000010 Ry

     iteration # 20     ecut=   147.00 Ry     beta= 0.70
     Davidson diagonalization with overlap
     ethr =  6.91E-10,  avg # of iterations =  7.0

     negative rho (up, down):  1.242E-03 0.000E+00

     total cpu time spent up to now is      316.0 secs

     total energy              =     -64.81570388 Ry
     estimated scf accuracy    <       0.00000022 Ry

     iteration # 21     ecut=   147.00 Ry     beta= 0.70
     Davidson diagonalization with overlap
     ethr =  6.91E-10,  avg # of iterations =  1.0

     negative rho (up, down):  1.242E-03 0.000E+00

     total cpu time spent up to now is      327.5 secs

     total energy              =     -64.81570380 Ry
     estimated scf accuracy    <       0.00000015 Ry

     iteration # 22     ecut=   147.00 Ry     beta= 0.70
     Davidson diagonalization with overlap
     ethr =  6.91E-10,  avg # of iterations =  5.0

     negative rho (up, down):  1.242E-03 0.000E+00

     total cpu time spent up to now is      342.0 secs

     total energy              =     -64.81570386 Ry
     estimated scf accuracy    <       0.00000003 Ry

     iteration # 23     ecut=   147.00 Ry     beta= 0.70
     Davidson diagonalization with overlap
     ethr =  2.07E-10,  avg # of iterations =  1.0

     negative rho (up, down):  1.242E-03 0.000E+00

     total cpu time spent up to now is      353.5 secs

     total energy              =     -64.81570385 Ry
     estimated scf accuracy    <       0.00000003 Ry

     iteration # 24     ecut=   147.00 Ry     beta= 0.70
     Davidson diagonalization with overlap
     ethr =  1.91E-10,  avg # of iterations =  2.0

     negative rho (up, down):  1.242E-03 0.000E+00

     total cpu time spent up to now is      364.4 secs

     End of self-consistent calculation

          k = 0.0000 0.0000 0.0000 (****** PWs)   bands (ev):

   -25.4974 -16.9019 -12.5037 -10.6880 -10.3608  -8.0233  -6.2984

     highest occupied level (ev):    -6.2984

!    total energy              =     -64.81570385 Ry
     total all-electron energy =      -231.426674 Ry
     estimated scf accuracy    <          5.1E-09 Ry

     The total energy is the sum of the following terms:
     one-electron contribution =    -157.35833616 Ry
     hartree contribution      =      81.07507962 Ry
     xc contribution           =     -14.95358534 Ry
     ewald contribution        =      42.17117263 Ry
     one-center paw contrib.   =     -15.75003460 Ry

     charge density inside the Wigner-Seitz cell:   14.00000000

     reference position (x0):         4.99355046   -0.48039911   -1.09760061 bohr

     Dipole moments (with respect to x0):
     Elect   0.3814  -0.5005  -0.0847 au (Ha),   0.9693  -1.2722  -0.2153 Debye
     Ionic   0.0000   0.0000  -0.0000 au (Ha),   0.0000   0.0000  -0.0000 Debye
     Total   0.3814  -0.5005  -0.0847 au (Ha),   0.9693  -1.2722  -0.2153 Debye

     Electrons quadrupole moment        -77.45054325 a.u. (Ha)
          Ions quadrupole moment         48.19661000 a.u. (Ha)
         Total quadrupole moment        -29.25393326 a.u. (Ha)

     *********    MAKOV-PAYNE CORRECTION    *********

     Makov-Payne correction with Madelung constant =   2.8373

     Makov-Payne correction     0.00000000 Ry =  0.000 eV (1st order, 1/a0)
                                0.00000584 Ry =  0.000 eV (2nd order, 1/a0^3)
                                0.00000584 Ry =  0.000 eV (total)

!    Total+Makov-Payne energy  =     -64.81569801 Ry
     Corrected vacuum level    =       0.00575970 eV

     convergence has been achieved in  24 iterations

     Writing all to output data dir ./pwscf.save/

     init_run     :     39.46s CPU     42.08s WALL (       1 calls)
     electrons    :    279.02s CPU    324.57s WALL (       1 calls)

     Called by init_run:
     wfcinit      :      1.63s CPU      1.92s WALL (       1 calls)
     potinit      :      4.72s CPU      5.48s WALL (       1 calls)
     hinit0       :      2.49s CPU      2.76s WALL (       1 calls)

     Called by electrons:
     c_bands      :    100.16s CPU    105.38s WALL (      24 calls)
     sum_band     :     74.82s CPU     89.06s WALL (      24 calls)
     v_of_rho     :     52.99s CPU     64.61s WALL (      25 calls)
     newd         :     31.85s CPU     44.78s WALL (      25 calls)
     PAW_pot      :      0.25s CPU      0.30s WALL (      25 calls)
     mix_rho      :     18.94s CPU     20.23s WALL (      24 calls)

     Called by c_bands:
     init_us_2    :      1.40s CPU      1.48s WALL (      49 calls)
     init_us_2:cp :      1.40s CPU      1.48s WALL (      49 calls)
     regterg      :     98.40s CPU    103.57s WALL (      24 calls)

     Called by *egterg:
     rdiaghg      :      0.02s CPU      0.03s WALL (     113 calls)
     h_psi        :     83.57s CPU     88.84s WALL (     114 calls)
     s_psi        :      3.27s CPU      3.28s WALL (     114 calls)
     g_psi        :      0.27s CPU      0.28s WALL (      89 calls)

     Called by h_psi:
     h_psi:calbec :      2.57s CPU      2.59s WALL (     114 calls)
     vloc_psi     :     77.24s CPU     82.48s WALL (     114 calls)
     add_vuspsi   :      3.23s CPU      3.24s WALL (     114 calls)

     General routines
     calbec       :      3.31s CPU      3.34s WALL (     138 calls)
     fft          :     44.92s CPU     53.76s WALL (     225 calls)
     ffts         :      4.05s CPU      4.93s WALL (      24 calls)
     fftw         :     70.17s CPU     75.86s WALL (     772 calls)

     Parallel routines

     PWSCF        :   5m20.44s CPU   6m11.16s WALL


   This run was terminated on:  18:22: 4  12Oct2023            

=------------------------------------------------------------------------------=
   JOB DONE.
=------------------------------------------------------------------------------=
