
     Program PWSCF v.7.2 starts on 12Oct2023 at 18:19:11 

     This program is part of the open-source Quantum ESPRESSO suite
     for quantum simulation of materials; please cite
         "P. Giannozzi et al., J. Phys.:Condens. Matter 21 395502 (2009);
         "P. Giannozzi et al., J. Phys.:Condens. Matter 29 465901 (2017);
         "P. Giannozzi et al., J. Chem. Phys. 152 154105 (2020);
          URL http://www.quantum-espresso.org", 
     in publications or presentations arising from this work. More details at
     http://www.quantum-espresso.org/quote

     Parallel version (MPI), running on    32 processors

     MPI processes distributed on     1 nodes
     251107 MiB available memory on the printing compute node when the environment starts

     Reading input from 18WaterPyridine100_precision_monomer_2.in
Warning: card &CELL ignored
Warning: card / ignored

     Current dimensions of program PWSCF are:
     Max number of different atomic species (ntypx) = 10
     Max number of k-points (npk) =  40000
     Max angular momentum in pseudopotentials (lmaxx) =  4
     file N.pbe-n-kjpaw_psl.1.0.0.UPF: wavefunction(s)  2S renormalized
     file C.pbe-n-kjpaw_psl.1.0.0.UPF: wavefunction(s)  2S 2P renormalized
     file H.pbe-kjpaw_psl.1.0.0.UPF: wavefunction(s)  1S renormalized

     IMPORTANT: XC functional enforced from input :
     Exchange-correlation= PBE
                           (   1   4   3   4   0   0   0)
     Any further DFT definition will be discarded
     Please, verify this is what you really want


     gamma-point specific algorithms are used
     Message from routine setup:
     using ibrav=0 with symmetry is DISCOURAGED, use correct ibrav instead

     R & G space division:  proc/nbgrp/npool/nimage =      32
     Subspace diagonalization in iterative solution of the eigenvalue problem:
     a serial algorithm will be used


     Parallelization info
     --------------------
     sticks:   dense  smooth     PW     G-vecs:    dense   smooth      PW
     Min        6395    6395   1598              2177048  2177048  272114
     Max        6398    6398   1600              2177062  2177062  272124
     Sum      204693  204693  51189             69665707 69665707 8707803

     Using Slab Decomposition



     bravais-lattice index     =            0
     lattice parameter (alat)  =      66.1404  a.u.
     unit-cell volume          =  289334.8415 (a.u.)^3
     number of atoms/cell      =           11
     number of atomic types    =            3
     number of electrons       =        30.00
     number of Kohn-Sham states=           15
     kinetic-energy cutoff     =     147.0000  Ry
     charge density cutoff     =     588.0000  Ry
     scf convergence threshold =      1.0E-08
     mixing beta               =       0.7000
     number of iterations used =            8  plain     mixing
     Exchange-correlation= PBE
                           (   1   4   3   4   0   0   0)

     celldm(1)=  66.140414  celldm(2)=   0.000000  celldm(3)=   0.000000
     celldm(4)=   0.000000  celldm(5)=   0.000000  celldm(6)=   0.000000

     crystal axes: (cart. coord. in units of alat)
               a(1) = (   1.000000   0.000000   0.000000 )  
               a(2) = (   0.000000   1.000000   0.000000 )  
               a(3) = (   0.000000   0.000000   1.000000 )  

     reciprocal axes: (cart. coord. in units 2 pi/alat)
               b(1) = (  1.000000  0.000000  0.000000 )  
               b(2) = (  0.000000  1.000000  0.000000 )  
               b(3) = (  0.000000  0.000000  1.000000 )  


     PseudoPot. # 1 for N  read from file:
     /home/users/klimj2am/src/pslibrary.1.0.0/pbe/PSEUDOPOTENTIALS/N.pbe-n-kjpaw_psl.1.0.0.UPF
     MD5 check sum: ed3381810ced4c04e88f7c2008d4036c
     Pseudo is Projector augmented-wave + core cor, Zval =  5.0
     Generated using 'atomic' code by A. Dal Corso  v.7.2
     Shape of augmentation charge: PSQ
     Using radial grid of 1085 points,  4 beta functions with: 
                l(1) =   0
                l(2) =   0
                l(3) =   1
                l(4) =   1
     Q(r) pseudized with 0 coefficients 


     PseudoPot. # 2 for C  read from file:
     /home/users/klimj2am/src/pslibrary.1.0.0/pbe/PSEUDOPOTENTIALS/C.pbe-n-kjpaw_psl.1.0.0.UPF
     MD5 check sum: 9d4797b4e2669f30c50dcc814f8da1dd
     Pseudo is Projector augmented-wave + core cor, Zval =  4.0
     Generated using 'atomic' code by A. Dal Corso  v.7.2
     Shape of augmentation charge: PSQ
     Using radial grid of 1073 points,  4 beta functions with: 
                l(1) =   0
                l(2) =   0
                l(3) =   1
                l(4) =   1
     Q(r) pseudized with 0 coefficients 


     PseudoPot. # 3 for H  read from file:
     /home/users/klimj2am/src/pslibrary.1.0.0/pbe/PSEUDOPOTENTIALS/H.pbe-kjpaw_psl.1.0.0.UPF
     MD5 check sum: 220281c0717fd894cece6904c624ceaa
     Pseudo is Projector augmented-wave, Zval =  1.0
     Generated using 'atomic' code by A. Dal Corso  v.7.2
     Shape of augmentation charge: PSQ
     Using radial grid of  929 points,  2 beta functions with: 
                l(1) =   0
                l(2) =   0
     Q(r) pseudized with 0 coefficients 


     atomic species   valence    mass     pseudopotential
        N              5.00    14.00700     N ( 1.00)
        C              4.00    12.01100     C ( 1.00)
        H              1.00     1.00800     H ( 1.00)

      2 Sym. Ops. (no inversion) found



   Cartesian axes

     site n.     atom                  positions (alat units)
         1           N   tau(   1) = (   0.0687327   0.0028207   0.0000044  )
         2           C   tau(   2) = (   0.0886157   0.0018501   0.0327115  )
         3           H   tau(   3) = (   0.0719108   0.0025247   0.0587363  )
         4           C   tau(   4) = (   0.1283021  -0.0000123   0.0341400  )
         5           H   tau(   5) = (   0.1427566  -0.0007224   0.0614065  )
         6           C   tau(   6) = (   0.1486211  -0.0009588  -0.0000003  )
         7           H   tau(   7) = (   0.1794736  -0.0024380  -0.0000026  )
         8           C   tau(   8) = (   0.1282980  -0.0000142  -0.0341375  )
         9           H   tau(   9) = (   0.1427493  -0.0007249  -0.0614061  )
        10           C   tau(  10) = (   0.0886114   0.0018485  -0.0327048  )
        11           H   tau(  11) = (   0.0719037   0.0025228  -0.0587274  )

     number of k points=     1
                       cart. coord. in units 2pi/alat
        k(    1) = (   0.0000000   0.0000000   0.0000000), wk =   2.0000000

     Dense  grid: 34832854 G-vectors     FFT dimensions: ( 512, 512, 512)

     Estimated max dynamical RAM per process >       1.72 GB

     Estimated total dynamical RAM >      54.92 GB

     Initial potential from superposition of free atoms

     starting charge      29.9997, renormalised to      30.0000

     negative rho (up, down):  5.386E-04 0.000E+00
     Starting wfcs are   29 randomized atomic wfcs
     Checking if some PAW data can be deallocated... 

     total cpu time spent up to now is       45.6 secs

     Self-consistent Calculation

     iteration #  1     ecut=   147.00 Ry     beta= 0.70
     Davidson diagonalization with overlap
     ethr =  1.00E-02,  avg # of iterations =  2.0

     negative rho (up, down):  8.480E-04 0.000E+00

     total cpu time spent up to now is       63.6 secs

     total energy              =    -125.96993456 Ry
     estimated scf accuracy    <       1.21315745 Ry

     iteration #  2     ecut=   147.00 Ry     beta= 0.70
     Davidson diagonalization with overlap
     ethr =  4.04E-03,  avg # of iterations =  2.0

     negative rho (up, down):  8.834E-04 0.000E+00

     total cpu time spent up to now is       81.3 secs

     total energy              =    -126.21533629 Ry
     estimated scf accuracy    <       0.22581366 Ry

     iteration #  3     ecut=   147.00 Ry     beta= 0.70
     Davidson diagonalization with overlap
     ethr =  7.53E-04,  avg # of iterations =  2.0

     negative rho (up, down):  9.523E-04 0.000E+00

     total cpu time spent up to now is       98.2 secs

     total energy              =    -126.25857776 Ry
     estimated scf accuracy    <       0.00802226 Ry

     iteration #  4     ecut=   147.00 Ry     beta= 0.70
     Davidson diagonalization with overlap
     ethr =  2.67E-05,  avg # of iterations =  2.0

     negative rho (up, down):  9.653E-04 0.000E+00

     total cpu time spent up to now is      115.7 secs

     total energy              =    -126.26027316 Ry
     estimated scf accuracy    <       0.00098411 Ry

     iteration #  5     ecut=   147.00 Ry     beta= 0.70
     Davidson diagonalization with overlap
     ethr =  3.28E-06,  avg # of iterations =  2.0

     negative rho (up, down):  9.716E-04 0.000E+00

     total cpu time spent up to now is      132.6 secs

     total energy              =    -126.26038067 Ry
     estimated scf accuracy    <       0.00009965 Ry

     iteration #  6     ecut=   147.00 Ry     beta= 0.70
     Davidson diagonalization with overlap
     ethr =  3.32E-07,  avg # of iterations =  5.0

     negative rho (up, down):  9.721E-04 0.000E+00

     total cpu time spent up to now is      151.5 secs

     total energy              =    -126.26041083 Ry
     estimated scf accuracy    <       0.00002700 Ry

     iteration #  7     ecut=   147.00 Ry     beta= 0.70
     Davidson diagonalization with overlap
     ethr =  9.00E-08,  avg # of iterations =  5.0

     negative rho (up, down):  9.729E-04 0.000E+00

     total cpu time spent up to now is      170.4 secs

     total energy              =    -126.26041697 Ry
     estimated scf accuracy    <       0.00001151 Ry

     iteration #  8     ecut=   147.00 Ry     beta= 0.70
     Davidson diagonalization with overlap
     ethr =  3.84E-08,  avg # of iterations =  5.0

     negative rho (up, down):  9.731E-04 0.000E+00

     total cpu time spent up to now is      187.1 secs

     total energy              =    -126.26041914 Ry
     estimated scf accuracy    <       0.00000017 Ry

     iteration #  9     ecut=   147.00 Ry     beta= 0.70
     Davidson diagonalization with overlap
     ethr =  5.72E-10,  avg # of iterations =  5.0

     negative rho (up, down):  9.731E-04 0.000E+00

     total cpu time spent up to now is      208.1 secs

     total energy              =    -126.26041928 Ry
     estimated scf accuracy    <       0.00000014 Ry

     iteration # 10     ecut=   147.00 Ry     beta= 0.70
     Davidson diagonalization with overlap
     ethr =  4.68E-10,  avg # of iterations =  5.0

     negative rho (up, down):  9.731E-04 0.000E+00

     total cpu time spent up to now is      225.9 secs

     total energy              =    -126.26041931 Ry
     estimated scf accuracy    <       0.00000001 Ry

     iteration # 11     ecut=   147.00 Ry     beta= 0.70
     Davidson diagonalization with overlap
     ethr =  3.62E-11,  avg # of iterations =  5.0

     negative rho (up, down):  9.731E-04 0.000E+00

     total cpu time spent up to now is      244.2 secs

     End of self-consistent calculation

          k = 0.0000 0.0000 0.0000 (****** PWs)   bands (ev):

   -23.5457 -20.0478 -18.9484 -15.6241 -15.5775 -13.1128 -11.8562 -11.5299
   -10.5013  -9.9361  -9.8298  -8.8177  -7.2979  -6.7087  -5.8753

     highest occupied level (ev):    -5.8753

!    total energy              =    -126.26041931 Ry
     total all-electron energy =      -496.379682 Ry
     estimated scf accuracy    <          4.7E-09 Ry

     The total energy is the sum of the following terms:
     one-electron contribution =    -459.09837066 Ry
     hartree contribution      =     233.33988102 Ry
     xc contribution           =     -32.34089378 Ry
     ewald contribution        =     170.66266156 Ry
     one-center paw contrib.   =     -38.82369744 Ry

     charge density inside the Wigner-Seitz cell:   30.00000000

     reference position (x0):         7.23631441    0.05758340    0.00014192 bohr

     Dipole moments (with respect to x0):
     Elect   0.8775  -0.0442  -0.0001 au (Ha),   2.2305  -0.1123  -0.0001 Debye
     Ionic  -0.0000   0.0000  -0.0000 au (Ha),  -0.0000   0.0000  -0.0000 Debye
     Total   0.8775  -0.0442  -0.0001 au (Ha),   2.2305  -0.1123  -0.0001 Debye

     Electrons quadrupole moment       -352.43745751 a.u. (Ha)
          Ions quadrupole moment        275.91860968 a.u. (Ha)
         Total quadrupole moment        -76.51884783 a.u. (Ha)

     *********    MAKOV-PAYNE CORRECTION    *********

     Makov-Payne correction with Madelung constant =   2.8373

     Makov-Payne correction     0.00000000 Ry =  0.000 eV (1st order, 1/a0)
                                0.00001118 Ry =  0.000 eV (2nd order, 1/a0^3)
                                0.00001118 Ry =  0.000 eV (total)

!    Total+Makov-Payne energy  =    -126.26040813 Ry
     Corrected vacuum level    =       0.01506976 eV

     convergence has been achieved in  11 iterations

     Writing all to output data dir ./pwscf.save/

     init_run     :     42.01s CPU     44.85s WALL (       1 calls)
     electrons    :    176.96s CPU    201.62s WALL (       1 calls)

     Called by init_run:
     wfcinit      :      4.21s CPU      4.70s WALL (       1 calls)
     potinit      :      4.58s CPU      5.43s WALL (       1 calls)
     hinit0       :      5.39s CPU      5.70s WALL (       1 calls)

     Called by electrons:
     c_bands      :     86.03s CPU     90.56s WALL (      11 calls)
     sum_band     :     42.43s CPU     49.72s WALL (      11 calls)
     v_of_rho     :     25.78s CPU     31.47s WALL (      12 calls)
     newd         :     16.75s CPU     23.32s WALL (      12 calls)
     PAW_pot      :      0.18s CPU      0.20s WALL (      12 calls)
     mix_rho      :      6.75s CPU      7.38s WALL (      11 calls)

     Called by c_bands:
     init_us_2    :      1.01s CPU      1.12s WALL (      23 calls)
     init_us_2:cp :      1.00s CPU      1.12s WALL (      23 calls)
     regterg      :     84.29s CPU     88.74s WALL (      11 calls)

     Called by *egterg:
     rdiaghg      :      0.02s CPU      0.03s WALL (      51 calls)
     h_psi        :     72.88s CPU     77.62s WALL (      52 calls)
     s_psi        :      4.06s CPU      4.07s WALL (      52 calls)
     g_psi        :      0.22s CPU      0.22s WALL (      40 calls)

     Called by h_psi:
     h_psi:calbec :      3.31s CPU      3.41s WALL (      52 calls)
     vloc_psi     :     65.05s CPU     69.65s WALL (      52 calls)
     add_vuspsi   :      4.07s CPU      4.09s WALL (      52 calls)

     General routines
     calbec       :      4.23s CPU      4.32s WALL (      63 calls)
     fft          :     21.45s CPU     25.82s WALL (     108 calls)
     ffts         :      1.87s CPU      2.22s WALL (      11 calls)
     fftw         :     59.34s CPU     64.44s WALL (     662 calls)

     Parallel routines

     PWSCF        :   3m41.54s CPU   4m12.05s WALL


   This run was terminated on:  18:23:23  12Oct2023            

=------------------------------------------------------------------------------=
   JOB DONE.
=------------------------------------------------------------------------------=
