
     Program PWSCF v.7.2 starts on 12Oct2023 at 18:24:20 

     This program is part of the open-source Quantum ESPRESSO suite
     for quantum simulation of materials; please cite
         "P. Giannozzi et al., J. Phys.:Condens. Matter 21 395502 (2009);
         "P. Giannozzi et al., J. Phys.:Condens. Matter 29 465901 (2017);
         "P. Giannozzi et al., J. Chem. Phys. 152 154105 (2020);
          URL http://www.quantum-espresso.org", 
     in publications or presentations arising from this work. More details at
     http://www.quantum-espresso.org/quote

     Parallel version (MPI), running on    32 processors

     MPI processes distributed on     1 nodes
     489829 MiB available memory on the printing compute node when the environment starts

     Reading input from 36NeopentaneNeopentane100_precision_monomer_2.in
Warning: card &CELL ignored
Warning: card / ignored

     Current dimensions of program PWSCF are:
     Max number of different atomic species (ntypx) = 10
     Max number of k-points (npk) =  40000
     Max angular momentum in pseudopotentials (lmaxx) =  4
     file C.pbe-n-kjpaw_psl.1.0.0.UPF: wavefunction(s)  2S 2P renormalized
     file H.pbe-kjpaw_psl.1.0.0.UPF: wavefunction(s)  1S renormalized

     IMPORTANT: XC functional enforced from input :
     Exchange-correlation= PBE
                           (   1   4   3   4   0   0   0)
     Any further DFT definition will be discarded
     Please, verify this is what you really want


     gamma-point specific algorithms are used

     R & G space division:  proc/nbgrp/npool/nimage =      32
     Subspace diagonalization in iterative solution of the eigenvalue problem:
     a serial algorithm will be used


     Parallelization info
     --------------------
     sticks:   dense  smooth     PW     G-vecs:    dense   smooth      PW
     Min        6395    6395   1598              2177048  2177048  272114
     Max        6398    6398   1600              2177062  2177062  272124
     Sum      204693  204693  51189             69665707 69665707 8707803

     Using Slab Decomposition



     bravais-lattice index     =            0
     lattice parameter (alat)  =      66.1404  a.u.
     unit-cell volume          =  289334.8415 (a.u.)^3
     number of atoms/cell      =           17
     number of atomic types    =            2
     number of electrons       =        32.00
     number of Kohn-Sham states=           16
     kinetic-energy cutoff     =     147.0000  Ry
     charge density cutoff     =     588.0000  Ry
     scf convergence threshold =      1.0E-08
     mixing beta               =       0.7000
     number of iterations used =            8  plain     mixing
     Exchange-correlation= PBE
                           (   1   4   3   4   0   0   0)

     celldm(1)=  66.140414  celldm(2)=   0.000000  celldm(3)=   0.000000
     celldm(4)=   0.000000  celldm(5)=   0.000000  celldm(6)=   0.000000

     crystal axes: (cart. coord. in units of alat)
               a(1) = (   1.000000   0.000000   0.000000 )  
               a(2) = (   0.000000   1.000000   0.000000 )  
               a(3) = (   0.000000   0.000000   1.000000 )  

     reciprocal axes: (cart. coord. in units 2 pi/alat)
               b(1) = (  1.000000  0.000000  0.000000 )  
               b(2) = (  0.000000  1.000000  0.000000 )  
               b(3) = (  0.000000  0.000000  1.000000 )  


     PseudoPot. # 1 for C  read from file:
     /home/users/klimj2am/src/pslibrary.1.0.0/pbe/PSEUDOPOTENTIALS/C.pbe-n-kjpaw_psl.1.0.0.UPF
     MD5 check sum: 9d4797b4e2669f30c50dcc814f8da1dd
     Pseudo is Projector augmented-wave + core cor, Zval =  4.0
     Generated using 'atomic' code by A. Dal Corso  v.7.2
     Shape of augmentation charge: PSQ
     Using radial grid of 1073 points,  4 beta functions with: 
                l(1) =   0
                l(2) =   0
                l(3) =   1
                l(4) =   1
     Q(r) pseudized with 0 coefficients 


     PseudoPot. # 2 for H  read from file:
     /home/users/klimj2am/src/pslibrary.1.0.0/pbe/PSEUDOPOTENTIALS/H.pbe-kjpaw_psl.1.0.0.UPF
     MD5 check sum: 220281c0717fd894cece6904c624ceaa
     Pseudo is Projector augmented-wave, Zval =  1.0
     Generated using 'atomic' code by A. Dal Corso  v.7.2
     Shape of augmentation charge: PSQ
     Using radial grid of  929 points,  2 beta functions with: 
                l(1) =   0
                l(2) =   0
     Q(r) pseudized with 0 coefficients 


     atomic species   valence    mass     pseudopotential
        C              4.00    12.01100     C ( 1.00)
        H              1.00     1.00800     H ( 1.00)

     No symmetry found



   Cartesian axes

     site n.     atom                  positions (alat units)
         1           C   tau(   1) = (  -0.0109100   0.0020164   0.1718086  )
         2           C   tau(   2) = (   0.0297418  -0.0113826   0.1634258  )
         3           H   tau(   3) = (   0.0350115  -0.0125063   0.1327252  )
         4           H   tau(   4) = (   0.0506399   0.0079794   0.1760753  )
         5           H   tau(   5) = (   0.0346636  -0.0398685   0.1750863  )
         6           C   tau(   6) = (  -0.0168070   0.0419181   0.1552135  )
         7           H   tau(   7) = (  -0.0457202   0.0521177   0.1608377  )
         8           H   tau(   8) = (   0.0032192   0.0622345   0.1677769  )
         9           H   tau(   9) = (  -0.0124325   0.0419238   0.1243522  )
        10           C   tau(  10) = (  -0.0172041   0.0031643   0.2149473  )
        11           H   tau(  11) = (  -0.0460960   0.0127150   0.2216922  )
        12           H   tau(  12) = (   0.0028677   0.0227342   0.2285712  )
        13           H   tau(  13) = (  -0.0131880  -0.0250792   0.2275031  )
        14           C   tau(  14) = (  -0.0393803  -0.0256344   0.1537187  )
        15           H   tau(  15) = (  -0.0356967  -0.0544051   0.1651353  )
        16           H   tau(  16) = (  -0.0686914  -0.0166695   0.1593869  )
        17           H   tau(  17) = (  -0.0355316  -0.0269765   0.1228165  )

     number of k points=     1
                       cart. coord. in units 2pi/alat
        k(    1) = (   0.0000000   0.0000000   0.0000000), wk =   2.0000000

     Dense  grid: 34832854 G-vectors     FFT dimensions: ( 512, 512, 512)

     Estimated max dynamical RAM per process >       1.81 GB

     Estimated total dynamical RAM >      57.96 GB

     Initial potential from superposition of free atoms

     starting charge      31.9997, renormalised to      32.0000

     negative rho (up, down):  4.308E-04 0.000E+00
     Starting wfcs are   32 randomized atomic wfcs
     Checking if some PAW data can be deallocated... 

     total cpu time spent up to now is       34.4 secs

     Self-consistent Calculation

     iteration #  1     ecut=   147.00 Ry     beta= 0.70
     Davidson diagonalization with overlap
     ethr =  1.00E-02,  avg # of iterations =  2.0

     negative rho (up, down):  3.515E-04 0.000E+00

     total cpu time spent up to now is       50.6 secs

     total energy              =    -105.84094749 Ry
     estimated scf accuracy    <       2.10633971 Ry

     iteration #  2     ecut=   147.00 Ry     beta= 0.70
     Davidson diagonalization with overlap
     ethr =  6.58E-03,  avg # of iterations =  2.0

     negative rho (up, down):  3.963E-04 0.000E+00

     total cpu time spent up to now is       66.9 secs

     total energy              =    -106.35618817 Ry
     estimated scf accuracy    <       0.67144889 Ry

     iteration #  3     ecut=   147.00 Ry     beta= 0.70
     Davidson diagonalization with overlap
     ethr =  2.10E-03,  avg # of iterations =  2.0

     negative rho (up, down):  4.327E-04 0.000E+00

     total cpu time spent up to now is       82.6 secs

     total energy              =    -106.45998100 Ry
     estimated scf accuracy    <       0.02470031 Ry

     iteration #  4     ecut=   147.00 Ry     beta= 0.70
     Davidson diagonalization with overlap
     ethr =  7.72E-05,  avg # of iterations =  3.0

     negative rho (up, down):  4.333E-04 0.000E+00

     total cpu time spent up to now is       99.9 secs

     total energy              =    -106.46843222 Ry
     estimated scf accuracy    <       0.00829963 Ry

     iteration #  5     ecut=   147.00 Ry     beta= 0.70
     Davidson diagonalization with overlap
     ethr =  2.59E-05,  avg # of iterations =  2.0

     negative rho (up, down):  4.302E-04 0.000E+00

     total cpu time spent up to now is      115.1 secs

     total energy              =    -106.46801827 Ry
     estimated scf accuracy    <       0.00194040 Ry

     iteration #  6     ecut=   147.00 Ry     beta= 0.70
     Davidson diagonalization with overlap
     ethr =  6.06E-06,  avg # of iterations =  3.0

     negative rho (up, down):  4.309E-04 0.000E+00

     total cpu time spent up to now is      132.5 secs

     total energy              =    -106.46859078 Ry
     estimated scf accuracy    <       0.00026027 Ry

     iteration #  7     ecut=   147.00 Ry     beta= 0.70
     Davidson diagonalization with overlap
     ethr =  8.13E-07,  avg # of iterations =  3.0

     negative rho (up, down):  4.309E-04 0.000E+00

     total cpu time spent up to now is      150.3 secs

     total energy              =    -106.46867155 Ry
     estimated scf accuracy    <       0.00008704 Ry

     iteration #  8     ecut=   147.00 Ry     beta= 0.70
     Davidson diagonalization with overlap
     ethr =  2.72E-07,  avg # of iterations =  1.0

     negative rho (up, down):  4.309E-04 0.000E+00

     total cpu time spent up to now is      164.6 secs

     total energy              =    -106.46866526 Ry
     estimated scf accuracy    <       0.00001766 Ry

     iteration #  9     ecut=   147.00 Ry     beta= 0.70
     Davidson diagonalization with overlap
     ethr =  5.52E-08,  avg # of iterations =  3.0

     negative rho (up, down):  4.309E-04 0.000E+00

     total cpu time spent up to now is      182.3 secs

     total energy              =    -106.46867446 Ry
     estimated scf accuracy    <       0.00000413 Ry

     iteration # 10     ecut=   147.00 Ry     beta= 0.70
     Davidson diagonalization with overlap
     ethr =  1.29E-08,  avg # of iterations =  1.0

     negative rho (up, down):  4.309E-04 0.000E+00

     total cpu time spent up to now is      196.7 secs

     total energy              =    -106.46867353 Ry
     estimated scf accuracy    <       0.00000240 Ry

     iteration # 11     ecut=   147.00 Ry     beta= 0.70
     Davidson diagonalization with overlap
     ethr =  7.49E-09,  avg # of iterations =  2.0

     negative rho (up, down):  4.309E-04 0.000E+00

     total cpu time spent up to now is      211.9 secs

     total energy              =    -106.46867361 Ry
     estimated scf accuracy    <       0.00000029 Ry

     iteration # 12     ecut=   147.00 Ry     beta= 0.70
     Davidson diagonalization with overlap
     ethr =  8.91E-10,  avg # of iterations =  3.0

     negative rho (up, down):  4.309E-04 0.000E+00

     total cpu time spent up to now is      230.2 secs

     total energy              =    -106.46867377 Ry
     estimated scf accuracy    <       0.00000003 Ry

     iteration # 13     ecut=   147.00 Ry     beta= 0.70
     Davidson diagonalization with overlap
     ethr =  1.06E-10,  avg # of iterations =  2.0

     negative rho (up, down):  4.309E-04 0.000E+00

     total cpu time spent up to now is      245.8 secs

     total energy              =    -106.46867376 Ry
     estimated scf accuracy    <       0.00000004 Ry

     iteration # 14     ecut=   147.00 Ry     beta= 0.70
     Davidson diagonalization with overlap
     ethr =  1.06E-10,  avg # of iterations =  2.0

     negative rho (up, down):  4.309E-04 0.000E+00

     total cpu time spent up to now is      261.2 secs

     End of self-consistent calculation

          k = 0.0000 0.0000 0.0000 (****** PWs)   bands (ev):

   -20.3986 -16.7969 -16.7968 -16.7947 -12.9567 -10.9303 -10.9303 -10.9212
    -9.6458  -9.6457  -8.6356  -8.6328  -8.6327  -7.6301  -7.6299  -7.6277

     highest occupied level (ev):    -7.6277

!    total energy              =    -106.46867376 Ry
     total all-electron energy =      -395.289108 Ry
     estimated scf accuracy    <          4.7E-10 Ry

     The total energy is the sum of the following terms:
     one-electron contribution =    -470.93333111 Ry
     hartree contribution      =     239.54968516 Ry
     xc contribution           =     -31.91595053 Ry
     ewald contribution        =     187.65338496 Ry
     one-center paw contrib.   =     -30.82246224 Ry

     charge density inside the Wigner-Seitz cell:   32.00000000

     reference position (x0):        -0.72174230    0.13336913   11.36460627 bohr

     Dipole moments (with respect to x0):
     Elect   0.0001   0.0000  -0.0005 au (Ha),   0.0002   0.0000  -0.0014 Debye
     Ionic  -0.0000  -0.0000   0.0000 au (Ha),  -0.0000  -0.0000   0.0000 Debye
     Total   0.0001   0.0000  -0.0005 au (Ha),   0.0002   0.0000  -0.0014 Debye

     Electrons quadrupole moment       -414.02111164 a.u. (Ha)
          Ions quadrupole moment        334.88639202 a.u. (Ha)
         Total quadrupole moment        -79.13471962 a.u. (Ha)

     *********    MAKOV-PAYNE CORRECTION    *********

     Makov-Payne correction with Madelung constant =   2.8373

     Makov-Payne correction     0.00000000 Ry =  0.000 eV (1st order, 1/a0)
                                0.00000000 Ry =  0.000 eV (2nd order, 1/a0^3)
                                0.00000000 Ry =  0.000 eV (total)

!    Total+Makov-Payne energy  =    -106.46867376 Ry
     Corrected vacuum level    =       0.01560889 eV

     convergence has been achieved in  14 iterations

     Writing all to output data dir ./pwscf.save/

     init_run     :     30.74s CPU     33.91s WALL (       1 calls)
     electrons    :    174.98s CPU    229.29s WALL (       1 calls)

     Called by init_run:
     wfcinit      :      4.04s CPU      4.56s WALL (       1 calls)
     potinit      :      3.14s CPU      4.39s WALL (       1 calls)
     hinit0       :      1.46s CPU      1.76s WALL (       1 calls)

     Called by electrons:
     c_bands      :     81.13s CPU     92.47s WALL (      14 calls)
     sum_band     :     40.28s CPU     54.42s WALL (      14 calls)
     v_of_rho     :     27.95s CPU     43.97s WALL (      15 calls)
     newd         :     16.72s CPU     25.82s WALL (      15 calls)
     PAW_pot      :      0.28s CPU      0.30s WALL (      15 calls)
     mix_rho      :      9.00s CPU     13.14s WALL (      14 calls)

     Called by c_bands:
     init_us_2    :      1.25s CPU      1.32s WALL (      29 calls)
     init_us_2:cp :      1.25s CPU      1.32s WALL (      29 calls)
     regterg      :     79.04s CPU     90.33s WALL (      14 calls)

     Called by *egterg:
     rdiaghg      :      0.01s CPU      0.03s WALL (      45 calls)
     h_psi        :     72.42s CPU     82.07s WALL (      46 calls)
     s_psi        :      2.36s CPU      2.38s WALL (      46 calls)
     g_psi        :      0.24s CPU      0.24s WALL (      31 calls)

     Called by h_psi:
     h_psi:calbec :      2.03s CPU      2.08s WALL (      46 calls)
     vloc_psi     :     67.48s CPU     77.02s WALL (      46 calls)
     add_vuspsi   :      2.37s CPU      2.38s WALL (      46 calls)

     General routines
     calbec       :      2.54s CPU      2.59s WALL (      60 calls)
     fft          :     24.83s CPU     32.38s WALL (     135 calls)
     ffts         :      2.17s CPU      2.77s WALL (      14 calls)
     fftw         :     61.00s CPU     71.75s WALL (     772 calls)

     Parallel routines

     PWSCF        :   3m27.68s CPU   4m27.84s WALL


   This run was terminated on:  18:28:48  12Oct2023            

=------------------------------------------------------------------------------=
   JOB DONE.
=------------------------------------------------------------------------------=
