
     Program PWSCF v.7.2 starts on 12Oct2023 at 18:30:15 

     This program is part of the open-source Quantum ESPRESSO suite
     for quantum simulation of materials; please cite
         "P. Giannozzi et al., J. Phys.:Condens. Matter 21 395502 (2009);
         "P. Giannozzi et al., J. Phys.:Condens. Matter 29 465901 (2017);
         "P. Giannozzi et al., J. Chem. Phys. 152 154105 (2020);
          URL http://www.quantum-espresso.org", 
     in publications or presentations arising from this work. More details at
     http://www.quantum-espresso.org/quote

     Parallel version (MPI), running on    32 processors

     MPI processes distributed on     1 nodes
     501996 MiB available memory on the printing compute node when the environment starts

     Reading input from 59EthyneWaterCHO100_precision_monomer_2.in
Warning: card &CELL ignored
Warning: card / ignored

     Current dimensions of program PWSCF are:
     Max number of different atomic species (ntypx) = 10
     Max number of k-points (npk) =  40000
     Max angular momentum in pseudopotentials (lmaxx) =  4
     file O.pbe-n-kjpaw_psl.1.0.0.UPF: wavefunction(s)  2S 2P renormalized
     file H.pbe-kjpaw_psl.1.0.0.UPF: wavefunction(s)  1S renormalized

     IMPORTANT: XC functional enforced from input :
     Exchange-correlation= PBE
                           (   1   4   3   4   0   0   0)
     Any further DFT definition will be discarded
     Please, verify this is what you really want


     gamma-point specific algorithms are used

     R & G space division:  proc/nbgrp/npool/nimage =      32
     Subspace diagonalization in iterative solution of the eigenvalue problem:
     a serial algorithm will be used


     Parallelization info
     --------------------
     sticks:   dense  smooth     PW     G-vecs:    dense   smooth      PW
     Min        6395    6395   1598              2177048  2177048  272114
     Max        6398    6398   1600              2177062  2177062  272124
     Sum      204693  204693  51189             69665707 69665707 8707803

     Using Slab Decomposition



     bravais-lattice index     =            0
     lattice parameter (alat)  =      66.1404  a.u.
     unit-cell volume          =  289334.8415 (a.u.)^3
     number of atoms/cell      =            3
     number of atomic types    =            2
     number of electrons       =         8.00
     number of Kohn-Sham states=            4
     kinetic-energy cutoff     =     147.0000  Ry
     charge density cutoff     =     588.0000  Ry
     scf convergence threshold =      1.0E-08
     mixing beta               =       0.7000
     number of iterations used =            8  plain     mixing
     Exchange-correlation= PBE
                           (   1   4   3   4   0   0   0)

     celldm(1)=  66.140414  celldm(2)=   0.000000  celldm(3)=   0.000000
     celldm(4)=   0.000000  celldm(5)=   0.000000  celldm(6)=   0.000000

     crystal axes: (cart. coord. in units of alat)
               a(1) = (   1.000000   0.000000   0.000000 )  
               a(2) = (   0.000000   1.000000   0.000000 )  
               a(3) = (   0.000000   0.000000   1.000000 )  

     reciprocal axes: (cart. coord. in units 2 pi/alat)
               b(1) = (  1.000000  0.000000  0.000000 )  
               b(2) = (  0.000000  1.000000  0.000000 )  
               b(3) = (  0.000000  0.000000  1.000000 )  


     PseudoPot. # 1 for O  read from file:
     /home/users/klimj2am/src/pslibrary.1.0.0/pbe/PSEUDOPOTENTIALS/O.pbe-n-kjpaw_psl.1.0.0.UPF
     MD5 check sum: 48e285564fec6dca10ec424bc53b541b
     Pseudo is Projector augmented-wave + core cor, Zval =  6.0
     Generated using 'atomic' code by A. Dal Corso  v.7.2
     Shape of augmentation charge: PSQ
     Using radial grid of 1095 points,  4 beta functions with: 
                l(1) =   0
                l(2) =   0
                l(3) =   1
                l(4) =   1
     Q(r) pseudized with 0 coefficients 


     PseudoPot. # 2 for H  read from file:
     /home/users/klimj2am/src/pslibrary.1.0.0/pbe/PSEUDOPOTENTIALS/H.pbe-kjpaw_psl.1.0.0.UPF
     MD5 check sum: 220281c0717fd894cece6904c624ceaa
     Pseudo is Projector augmented-wave, Zval =  1.0
     Generated using 'atomic' code by A. Dal Corso  v.7.2
     Shape of augmentation charge: PSQ
     Using radial grid of  929 points,  2 beta functions with: 
                l(1) =   0
                l(2) =   0
     Q(r) pseudized with 0 coefficients 


     atomic species   valence    mass     pseudopotential
        O              6.00    15.99900     O ( 1.00)
        H              1.00     1.00800     H ( 1.00)

     No symmetry found



   Cartesian axes

     site n.     atom                  positions (alat units)
         1           O   tau(   1) = (   0.0653878  -0.0041862  -0.0033203  )
         2           H   tau(   2) = (   0.0816837  -0.0210368   0.0108805  )
         3           H   tau(   3) = (   0.0817305   0.0058420  -0.0229024  )

     number of k points=     1
                       cart. coord. in units 2pi/alat
        k(    1) = (   0.0000000   0.0000000   0.0000000), wk =   2.0000000

     Dense  grid: 34832854 G-vectors     FFT dimensions: ( 512, 512, 512)

     Estimated max dynamical RAM per process >       1.52 GB

     Estimated total dynamical RAM >      48.61 GB

     Initial potential from superposition of free atoms

     starting charge       8.0000, renormalised to       8.0000

     negative rho (up, down):  6.414E-04 0.000E+00
     Starting wfcs are    6 randomized atomic wfcs
     Checking if some PAW data can be deallocated... 

     total cpu time spent up to now is       36.3 secs

     Self-consistent Calculation

     iteration #  1     ecut=   147.00 Ry     beta= 0.70
     Davidson diagonalization with overlap
     ethr =  1.00E-02,  avg # of iterations =  3.0

     negative rho (up, down):  8.499E-04 0.000E+00

     total cpu time spent up to now is       44.8 secs

     total energy              =     -43.77836179 Ry
     estimated scf accuracy    <       0.50014704 Ry

     iteration #  2     ecut=   147.00 Ry     beta= 0.70
     Davidson diagonalization with overlap
     ethr =  6.25E-03,  avg # of iterations =  5.0

     negative rho (up, down):  9.075E-04 0.000E+00

     total cpu time spent up to now is       53.6 secs

     total energy              =     -43.97399088 Ry
     estimated scf accuracy    <       0.17380293 Ry

     iteration #  3     ecut=   147.00 Ry     beta= 0.70
     Davidson diagonalization with overlap
     ethr =  2.17E-03,  avg # of iterations =  3.0

     negative rho (up, down):  1.103E-03 0.000E+00

     total cpu time spent up to now is       61.8 secs

     total energy              =     -43.99830171 Ry
     estimated scf accuracy    <       0.03535127 Ry

     iteration #  4     ecut=   147.00 Ry     beta= 0.70
     Davidson diagonalization with overlap
     ethr =  4.42E-04,  avg # of iterations =  8.0

     negative rho (up, down):  1.210E-03 0.000E+00

     total cpu time spent up to now is       71.4 secs

     total energy              =     -44.03602002 Ry
     estimated scf accuracy    <       0.01093431 Ry

     iteration #  5     ecut=   147.00 Ry     beta= 0.70
     Davidson diagonalization with overlap
     ethr =  1.37E-04,  avg # of iterations =  2.0

     negative rho (up, down):  1.212E-03 0.000E+00

     total cpu time spent up to now is       79.0 secs

     total energy              =     -44.03815594 Ry
     estimated scf accuracy    <       0.00163563 Ry

     iteration #  6     ecut=   147.00 Ry     beta= 0.70
     Davidson diagonalization with overlap
     ethr =  2.04E-05,  avg # of iterations =  6.0

     negative rho (up, down):  1.234E-03 0.000E+00

     total cpu time spent up to now is       88.1 secs

     total energy              =     -44.03916770 Ry
     estimated scf accuracy    <       0.00098743 Ry

     iteration #  7     ecut=   147.00 Ry     beta= 0.70
     Davidson diagonalization with overlap
     ethr =  1.23E-05,  avg # of iterations =  1.0

     negative rho (up, down):  1.267E-03 0.000E+00

     total cpu time spent up to now is       95.5 secs

     total energy              =     -44.03914247 Ry
     estimated scf accuracy    <       0.00035324 Ry

     iteration #  8     ecut=   147.00 Ry     beta= 0.70
     Davidson diagonalization with overlap
     ethr =  4.42E-06,  avg # of iterations =  2.0

     negative rho (up, down):  1.265E-03 0.000E+00

     total cpu time spent up to now is      103.6 secs

     total energy              =     -44.03919459 Ry
     estimated scf accuracy    <       0.00010186 Ry

     iteration #  9     ecut=   147.00 Ry     beta= 0.70
     Davidson diagonalization with overlap
     ethr =  1.27E-06,  avg # of iterations =  5.0

     negative rho (up, down):  1.266E-03 0.000E+00

     total cpu time spent up to now is      112.6 secs

     total energy              =     -44.03923873 Ry
     estimated scf accuracy    <       0.00002433 Ry

     iteration # 10     ecut=   147.00 Ry     beta= 0.70
     Davidson diagonalization with overlap
     ethr =  3.04E-07,  avg # of iterations =  4.0

     negative rho (up, down):  1.264E-03 0.000E+00

     total cpu time spent up to now is      120.9 secs

     total energy              =     -44.03924675 Ry
     estimated scf accuracy    <       0.00002378 Ry

     iteration # 11     ecut=   147.00 Ry     beta= 0.70
     Davidson diagonalization with overlap
     ethr =  2.97E-07,  avg # of iterations =  1.0

     negative rho (up, down):  1.265E-03 0.000E+00

     total cpu time spent up to now is      128.5 secs

     total energy              =     -44.03930612 Ry
     estimated scf accuracy    <       0.00002795 Ry

     iteration # 12     ecut=   147.00 Ry     beta= 0.70
     Davidson diagonalization with overlap
     ethr =  2.97E-07,  avg # of iterations = 10.0

     negative rho (up, down):  1.261E-03 0.000E+00

     total cpu time spent up to now is      140.3 secs

     total energy              =     -44.03937019 Ry
     estimated scf accuracy    <       0.00069860 Ry

     iteration # 13     ecut=   147.00 Ry     beta= 0.70
     Davidson diagonalization with overlap
     ethr =  2.97E-07,  avg # of iterations =  1.0

     negative rho (up, down):  1.259E-03 0.000E+00

     total cpu time spent up to now is      147.9 secs

     total energy              =     -44.03925902 Ry
     estimated scf accuracy    <       0.00057920 Ry

     iteration # 14     ecut=   147.00 Ry     beta= 0.70
     Davidson diagonalization with overlap
     ethr =  2.97E-07,  avg # of iterations =  8.0

     negative rho (up, down):  1.258E-03 0.000E+00

     total cpu time spent up to now is      158.6 secs

     total energy              =     -44.03922187 Ry
     estimated scf accuracy    <       0.00024725 Ry

     iteration # 15     ecut=   147.00 Ry     beta= 0.70
     Davidson diagonalization with overlap
     ethr =  2.97E-07,  avg # of iterations =  5.0

     negative rho (up, down):  1.258E-03 0.000E+00

     total cpu time spent up to now is      167.7 secs

     total energy              =     -44.03922513 Ry
     estimated scf accuracy    <       0.00004818 Ry

     iteration # 16     ecut=   147.00 Ry     beta= 0.70
     Davidson diagonalization with overlap
     ethr =  2.97E-07,  avg # of iterations =  4.0

     negative rho (up, down):  1.258E-03 0.000E+00

     total cpu time spent up to now is      176.2 secs

     total energy              =     -44.03923569 Ry
     estimated scf accuracy    <       0.00000355 Ry

     iteration # 17     ecut=   147.00 Ry     beta= 0.70
     Davidson diagonalization with overlap
     ethr =  4.43E-08,  avg # of iterations =  6.0

     negative rho (up, down):  1.257E-03 0.000E+00

     total cpu time spent up to now is      185.4 secs

     total energy              =     -44.03924160 Ry
     estimated scf accuracy    <       0.00000203 Ry

     iteration # 18     ecut=   147.00 Ry     beta= 0.70
     Davidson diagonalization with overlap
     ethr =  2.54E-08,  avg # of iterations =  2.0

     negative rho (up, down):  1.258E-03 0.000E+00

     total cpu time spent up to now is      193.2 secs

     total energy              =     -44.03924131 Ry
     estimated scf accuracy    <       0.00000446 Ry

     iteration # 19     ecut=   147.00 Ry     beta= 0.70
     Davidson diagonalization with overlap
     ethr =  2.54E-08,  avg # of iterations =  1.0

     negative rho (up, down):  1.258E-03 0.000E+00

     total cpu time spent up to now is      200.8 secs

     total energy              =     -44.03924055 Ry
     estimated scf accuracy    <       0.00000385 Ry

     iteration # 20     ecut=   147.00 Ry     beta= 0.70
     Davidson diagonalization with overlap
     ethr =  2.54E-08,  avg # of iterations =  1.0

     negative rho (up, down):  1.258E-03 0.000E+00

     total cpu time spent up to now is      208.4 secs

     total energy              =     -44.03924066 Ry
     estimated scf accuracy    <       0.00000283 Ry

     iteration # 21     ecut=   147.00 Ry     beta= 0.70
     Davidson diagonalization with overlap
     ethr =  2.54E-08,  avg # of iterations =  1.0

     negative rho (up, down):  1.258E-03 0.000E+00

     total cpu time spent up to now is      216.0 secs

     total energy              =     -44.03924048 Ry
     estimated scf accuracy    <       0.00000309 Ry

     iteration # 22     ecut=   147.00 Ry     beta= 0.70
     Davidson diagonalization with overlap
     ethr =  2.54E-08,  avg # of iterations =  1.0

     negative rho (up, down):  1.258E-03 0.000E+00

     total cpu time spent up to now is      223.7 secs

     total energy              =     -44.03924029 Ry
     estimated scf accuracy    <       0.00000279 Ry

     iteration # 23     ecut=   147.00 Ry     beta= 0.70
     Davidson diagonalization with overlap
     ethr =  2.54E-08,  avg # of iterations =  1.0

     negative rho (up, down):  1.258E-03 0.000E+00

     total cpu time spent up to now is      231.3 secs

     total energy              =     -44.03924023 Ry
     estimated scf accuracy    <       0.00000230 Ry

     iteration # 24     ecut=   147.00 Ry     beta= 0.70
     Davidson diagonalization with overlap
     ethr =  2.54E-08,  avg # of iterations =  1.0

     negative rho (up, down):  1.259E-03 0.000E+00

     total cpu time spent up to now is      239.0 secs

     total energy              =     -44.03923935 Ry
     estimated scf accuracy    <       0.00000226 Ry

     iteration # 25     ecut=   147.00 Ry     beta= 0.70
     Davidson diagonalization with overlap
     ethr =  2.54E-08,  avg # of iterations =  1.0

     negative rho (up, down):  1.259E-03 0.000E+00

     total cpu time spent up to now is      246.6 secs

     total energy              =     -44.03923882 Ry
     estimated scf accuracy    <       0.00000082 Ry

     iteration # 26     ecut=   147.00 Ry     beta= 0.70
     Davidson diagonalization with overlap
     ethr =  1.03E-08,  avg # of iterations = 10.0

     negative rho (up, down):  1.259E-03 0.000E+00

     total cpu time spent up to now is      258.5 secs

     total energy              =     -44.03923912 Ry
     estimated scf accuracy    <       0.00000241 Ry

     iteration # 27     ecut=   147.00 Ry     beta= 0.70
     Davidson diagonalization with overlap
     ethr =  1.03E-08,  avg # of iterations =  5.0

     negative rho (up, down):  1.259E-03 0.000E+00

     total cpu time spent up to now is      267.8 secs

     total energy              =     -44.03923952 Ry
     estimated scf accuracy    <       0.00000008 Ry

     iteration # 28     ecut=   147.00 Ry     beta= 0.70
     Davidson diagonalization with overlap
     ethr =  9.69E-10,  avg # of iterations =  5.0

     negative rho (up, down):  1.259E-03 0.000E+00

     total cpu time spent up to now is      276.9 secs

     total energy              =     -44.03923966 Ry
     estimated scf accuracy    <       0.00000020 Ry

     iteration # 29     ecut=   147.00 Ry     beta= 0.70
     Davidson diagonalization with overlap
     ethr =  9.69E-10,  avg # of iterations =  2.0

     negative rho (up, down):  1.259E-03 0.000E+00

     total cpu time spent up to now is      284.8 secs

     total energy              =     -44.03923964 Ry
     estimated scf accuracy    <       0.00000007 Ry

     iteration # 30     ecut=   147.00 Ry     beta= 0.70
     Davidson diagonalization with overlap
     ethr =  8.59E-10,  avg # of iterations =  2.0

     negative rho (up, down):  1.259E-03 0.000E+00

     total cpu time spent up to now is      291.8 secs

     End of self-consistent calculation

          k = 0.0000 0.0000 0.0000 (****** PWs)   bands (ev):

   -25.4290 -13.1645  -9.3374  -7.2497

     highest occupied level (ev):    -7.2497

!    total energy              =     -44.03923965 Ry
     total all-electron energy =      -152.886121 Ry
     estimated scf accuracy    <          8.6E-09 Ry

     The total energy is the sum of the following terms:
     one-electron contribution =     -76.83015572 Ry
     hartree contribution      =      40.05678672 Ry
     xc contribution           =      -8.87492648 Ry
     ewald contribution        =      11.19558045 Ry
     one-center paw contrib.   =      -9.58652462 Ry

     charge density inside the Wigner-Seitz cell:    8.00000000

     reference position (x0):         4.59461779   -0.33328074   -0.26409595 bohr

     Dipole moments (with respect to x0):
     Elect   0.6909  -0.1445  -0.1139 au (Ha),   1.7560  -0.3673  -0.2895 Debye
     Ionic  -0.0000   0.0000   0.0000 au (Ha),  -0.0000   0.0000   0.0000 Debye
     Total   0.6909  -0.1445  -0.1139 au (Ha),   1.7560  -0.3673  -0.2895 Debye

     Electrons quadrupole moment        -20.03541169 a.u. (Ha)
          Ions quadrupole moment          5.94794627 a.u. (Ha)
         Total quadrupole moment        -14.08746543 a.u. (Ha)

     *********    MAKOV-PAYNE CORRECTION    *********

     Makov-Payne correction with Madelung constant =   2.8373

     Makov-Payne correction     0.00000000 Ry =  0.000 eV (1st order, 1/a0)
                                0.00000740 Ry =  0.000 eV (2nd order, 1/a0^3)
                                0.00000740 Ry =  0.000 eV (total)

!    Total+Makov-Payne energy  =     -44.03923225 Ry
     Corrected vacuum level    =       0.00277540 eV

     convergence has been achieved in  30 iterations

     Writing all to output data dir ./pwscf.save/

     init_run     :     33.74s CPU     35.90s WALL (       1 calls)
     electrons    :    221.70s CPU    258.25s WALL (       1 calls)

     Called by init_run:
     wfcinit      :      0.80s CPU      0.94s WALL (       1 calls)
     potinit      :      3.83s CPU      4.73s WALL (       1 calls)
     hinit0       :      1.88s CPU      2.25s WALL (       1 calls)

     Called by electrons:
     c_bands      :     58.80s CPU     62.12s WALL (      30 calls)
     sum_band     :     52.89s CPU     62.58s WALL (      30 calls)
     v_of_rho     :     60.82s CPU     74.62s WALL (      31 calls)
     newd         :     24.62s CPU     32.82s WALL (      31 calls)
     PAW_pot      :      0.33s CPU      0.37s WALL (      31 calls)
     mix_rho      :     23.19s CPU     24.49s WALL (      30 calls)

     Called by c_bands:
     init_us_2    :      1.17s CPU      1.18s WALL (      61 calls)
     init_us_2:cp :      1.17s CPU      1.18s WALL (      61 calls)
     regterg      :     57.50s CPU     60.81s WALL (      30 calls)

     Called by *egterg:
     rdiaghg      :      0.01s CPU      0.03s WALL (     137 calls)
     h_psi        :     51.32s CPU     54.69s WALL (     138 calls)
     s_psi        :      0.88s CPU      0.89s WALL (     138 calls)
     g_psi        :      0.19s CPU      0.19s WALL (     107 calls)

     Called by h_psi:
     h_psi:calbec :      0.96s CPU      0.98s WALL (     138 calls)
     vloc_psi     :     49.14s CPU     52.49s WALL (     138 calls)
     add_vuspsi   :      0.85s CPU      0.86s WALL (     138 calls)

     General routines
     calbec       :      1.23s CPU      1.25s WALL (     168 calls)
     fft          :     50.35s CPU     60.81s WALL (     279 calls)
     ffts         :      4.72s CPU      5.52s WALL (      30 calls)
     fftw         :     44.55s CPU     48.15s WALL (     518 calls)

     Parallel routines

     PWSCF        :   4m17.26s CPU   4m57.94s WALL


   This run was terminated on:  18:35:13  12Oct2023            

=------------------------------------------------------------------------------=
   JOB DONE.
=------------------------------------------------------------------------------=
