
     Program PWSCF v.7.2 starts on 12Oct2023 at 18:30:53 

     This program is part of the open-source Quantum ESPRESSO suite
     for quantum simulation of materials; please cite
         "P. Giannozzi et al., J. Phys.:Condens. Matter 21 395502 (2009);
         "P. Giannozzi et al., J. Phys.:Condens. Matter 29 465901 (2017);
         "P. Giannozzi et al., J. Chem. Phys. 152 154105 (2020);
          URL http://www.quantum-espresso.org", 
     in publications or presentations arising from this work. More details at
     http://www.quantum-espresso.org/quote

     Parallel version (MPI), running on    32 processors

     MPI processes distributed on     1 nodes
     501687 MiB available memory on the printing compute node when the environment starts

     Reading input from 63BenzeneAcOH100_precision_monomer_2.in
Warning: card &CELL ignored
Warning: card / ignored

     Current dimensions of program PWSCF are:
     Max number of different atomic species (ntypx) = 10
     Max number of k-points (npk) =  40000
     Max angular momentum in pseudopotentials (lmaxx) =  4
     file C.pbe-n-kjpaw_psl.1.0.0.UPF: wavefunction(s)  2S 2P renormalized
     file O.pbe-n-kjpaw_psl.1.0.0.UPF: wavefunction(s)  2S 2P renormalized
     file H.pbe-kjpaw_psl.1.0.0.UPF: wavefunction(s)  1S renormalized

     IMPORTANT: XC functional enforced from input :
     Exchange-correlation= PBE
                           (   1   4   3   4   0   0   0)
     Any further DFT definition will be discarded
     Please, verify this is what you really want


     gamma-point specific algorithms are used

     R & G space division:  proc/nbgrp/npool/nimage =      32
     Subspace diagonalization in iterative solution of the eigenvalue problem:
     a serial algorithm will be used


     Parallelization info
     --------------------
     sticks:   dense  smooth     PW     G-vecs:    dense   smooth      PW
     Min        6395    6395   1598              2177048  2177048  272114
     Max        6398    6398   1600              2177062  2177062  272124
     Sum      204693  204693  51189             69665707 69665707 8707803

     Using Slab Decomposition



     bravais-lattice index     =            0
     lattice parameter (alat)  =      66.1404  a.u.
     unit-cell volume          =  289334.8415 (a.u.)^3
     number of atoms/cell      =            8
     number of atomic types    =            3
     number of electrons       =        24.00
     number of Kohn-Sham states=           12
     kinetic-energy cutoff     =     147.0000  Ry
     charge density cutoff     =     588.0000  Ry
     scf convergence threshold =      1.0E-08
     mixing beta               =       0.7000
     number of iterations used =            8  plain     mixing
     Exchange-correlation= PBE
                           (   1   4   3   4   0   0   0)

     celldm(1)=  66.140414  celldm(2)=   0.000000  celldm(3)=   0.000000
     celldm(4)=   0.000000  celldm(5)=   0.000000  celldm(6)=   0.000000

     crystal axes: (cart. coord. in units of alat)
               a(1) = (   1.000000   0.000000   0.000000 )  
               a(2) = (   0.000000   1.000000   0.000000 )  
               a(3) = (   0.000000   0.000000   1.000000 )  

     reciprocal axes: (cart. coord. in units 2 pi/alat)
               b(1) = (  1.000000  0.000000  0.000000 )  
               b(2) = (  0.000000  1.000000  0.000000 )  
               b(3) = (  0.000000  0.000000  1.000000 )  


     PseudoPot. # 1 for C  read from file:
     /home/users/klimj2am/src/pslibrary.1.0.0/pbe/PSEUDOPOTENTIALS/C.pbe-n-kjpaw_psl.1.0.0.UPF
     MD5 check sum: 9d4797b4e2669f30c50dcc814f8da1dd
     Pseudo is Projector augmented-wave + core cor, Zval =  4.0
     Generated using 'atomic' code by A. Dal Corso  v.7.2
     Shape of augmentation charge: PSQ
     Using radial grid of 1073 points,  4 beta functions with: 
                l(1) =   0
                l(2) =   0
                l(3) =   1
                l(4) =   1
     Q(r) pseudized with 0 coefficients 


     PseudoPot. # 2 for O  read from file:
     /home/users/klimj2am/src/pslibrary.1.0.0/pbe/PSEUDOPOTENTIALS/O.pbe-n-kjpaw_psl.1.0.0.UPF
     MD5 check sum: 48e285564fec6dca10ec424bc53b541b
     Pseudo is Projector augmented-wave + core cor, Zval =  6.0
     Generated using 'atomic' code by A. Dal Corso  v.7.2
     Shape of augmentation charge: PSQ
     Using radial grid of 1095 points,  4 beta functions with: 
                l(1) =   0
                l(2) =   0
                l(3) =   1
                l(4) =   1
     Q(r) pseudized with 0 coefficients 


     PseudoPot. # 3 for H  read from file:
     /home/users/klimj2am/src/pslibrary.1.0.0/pbe/PSEUDOPOTENTIALS/H.pbe-kjpaw_psl.1.0.0.UPF
     MD5 check sum: 220281c0717fd894cece6904c624ceaa
     Pseudo is Projector augmented-wave, Zval =  1.0
     Generated using 'atomic' code by A. Dal Corso  v.7.2
     Shape of augmentation charge: PSQ
     Using radial grid of  929 points,  2 beta functions with: 
                l(1) =   0
                l(2) =   0
     Q(r) pseudized with 0 coefficients 


     atomic species   valence    mass     pseudopotential
        C              4.00    12.01100     C ( 1.00)
        O              6.00    15.99900     O ( 1.00)
        H              1.00     1.00800     H ( 1.00)

     No symmetry found



   Cartesian axes

     site n.     atom                  positions (alat units)
         1           C   tau(   1) = (   0.0119492  -0.0077301   0.1151928  )
         2           O   tau(   2) = (   0.0461061  -0.0030458   0.1173789  )
         3           O   tau(   3) = (  -0.0046080  -0.0423417   0.1208910  )
         4           H   tau(   4) = (   0.0163763  -0.0595162   0.1264064  )
         5           C   tau(   5) = (  -0.0172475   0.0220965   0.1060305  )
         6           H   tau(   6) = (  -0.0035820   0.0498378   0.1046927  )
         7           H   tau(   7) = (  -0.0301847   0.0154337   0.0785245  )
         8           H   tau(   8) = (  -0.0396718   0.0219383   0.1275304  )

     number of k points=     1
                       cart. coord. in units 2pi/alat
        k(    1) = (   0.0000000   0.0000000   0.0000000), wk =   2.0000000

     Dense  grid: 34832854 G-vectors     FFT dimensions: ( 512, 512, 512)

     Estimated max dynamical RAM per process >       1.66 GB

     Estimated total dynamical RAM >      53.04 GB

     Initial potential from superposition of free atoms

     starting charge      23.9999, renormalised to      24.0000

     negative rho (up, down):  8.827E-04 0.000E+00
     Starting wfcs are   20 randomized atomic wfcs
     Checking if some PAW data can be deallocated... 

     total cpu time spent up to now is       34.9 secs

     Self-consistent Calculation

     iteration #  1     ecut=   147.00 Ry     beta= 0.70
     Davidson diagonalization with overlap
     ethr =  1.00E-02,  avg # of iterations =  2.0

     negative rho (up, down):  6.041E-04 0.000E+00

     total cpu time spent up to now is       50.1 secs

     total energy              =    -124.53376677 Ry
     estimated scf accuracy    <       0.91942620 Ry

     iteration #  2     ecut=   147.00 Ry     beta= 0.70
     Davidson diagonalization with overlap
     ethr =  3.83E-03,  avg # of iterations =  4.0

     negative rho (up, down):  9.229E-04 0.000E+00

     total cpu time spent up to now is       65.8 secs

     total energy              =    -124.85249020 Ry
     estimated scf accuracy    <       0.09772245 Ry

     iteration #  3     ecut=   147.00 Ry     beta= 0.70
     Davidson diagonalization with overlap
     ethr =  4.07E-04,  avg # of iterations =  8.0

     negative rho (up, down):  9.541E-04 0.000E+00

     total cpu time spent up to now is       86.1 secs

     total energy              =    -124.97520749 Ry
     estimated scf accuracy    <       0.22492406 Ry

     iteration #  4     ecut=   147.00 Ry     beta= 0.70
     Davidson diagonalization with overlap
     ethr =  4.07E-04,  avg # of iterations =  2.0

     negative rho (up, down):  1.367E-03 0.000E+00

     total cpu time spent up to now is       99.7 secs

     total energy              =    -124.87899145 Ry
     estimated scf accuracy    <       0.13910737 Ry

     iteration #  5     ecut=   147.00 Ry     beta= 0.70
     Davidson diagonalization with overlap
     ethr =  4.07E-04,  avg # of iterations =  8.0

     negative rho (up, down):  1.494E-03 0.000E+00

     total cpu time spent up to now is      121.1 secs

     total energy              =    -124.96415805 Ry
     estimated scf accuracy    <       0.15435492 Ry

     iteration #  6     ecut=   147.00 Ry     beta= 0.70
     Davidson diagonalization with overlap
     ethr =  4.07E-04,  avg # of iterations =  1.0

     negative rho (up, down):  1.653E-03 0.000E+00

     total cpu time spent up to now is      134.5 secs

     total energy              =    -124.91879992 Ry
     estimated scf accuracy    <       0.09474614 Ry

     iteration #  7     ecut=   147.00 Ry     beta= 0.70
     Davidson diagonalization with overlap
     ethr =  3.95E-04,  avg # of iterations =  5.0

     negative rho (up, down):  1.643E-03 0.000E+00

     total cpu time spent up to now is      150.6 secs

     total energy              =    -124.95169086 Ry
     estimated scf accuracy    <       0.00564150 Ry

     iteration #  8     ecut=   147.00 Ry     beta= 0.70
     Davidson diagonalization with overlap
     ethr =  2.35E-05,  avg # of iterations =  6.0

     negative rho (up, down):  1.645E-03 0.000E+00

     total cpu time spent up to now is      168.8 secs

     total energy              =    -124.95299979 Ry
     estimated scf accuracy    <       0.00797312 Ry

     iteration #  9     ecut=   147.00 Ry     beta= 0.70
     Davidson diagonalization with overlap
     ethr =  2.35E-05,  avg # of iterations =  2.0

     negative rho (up, down):  1.632E-03 0.000E+00

     total cpu time spent up to now is      183.3 secs

     total energy              =    -124.95327142 Ry
     estimated scf accuracy    <       0.00236906 Ry

     iteration # 10     ecut=   147.00 Ry     beta= 0.70
     Davidson diagonalization with overlap
     ethr =  9.87E-06,  avg # of iterations = 15.0

     negative rho (up, down):  1.637E-03 0.000E+00

     total cpu time spent up to now is      212.3 secs

     total energy              =    -124.95611122 Ry
     estimated scf accuracy    <       0.06574696 Ry

     iteration # 11     ecut=   147.00 Ry     beta= 0.70
     Davidson diagonalization with overlap
     ethr =  9.87E-06,  avg # of iterations = 10.0

     negative rho (up, down):  1.662E-03 0.000E+00

     total cpu time spent up to now is      233.2 secs

     total energy              =    -124.95085549 Ry
     estimated scf accuracy    <       0.02075683 Ry

     iteration # 12     ecut=   147.00 Ry     beta= 0.70
     Davidson diagonalization with overlap
     ethr =  9.87E-06,  avg # of iterations = 12.0

     negative rho (up, down):  1.669E-03 0.000E+00

     total cpu time spent up to now is      254.9 secs

     total energy              =    -124.95421633 Ry
     estimated scf accuracy    <       0.00014391 Ry

     iteration # 13     ecut=   147.00 Ry     beta= 0.70
     Davidson diagonalization with overlap
     ethr =  6.00E-07,  avg # of iterations =  9.0

     negative rho (up, down):  1.666E-03 0.000E+00

     total cpu time spent up to now is      272.3 secs

     total energy              =    -124.95432473 Ry
     estimated scf accuracy    <       0.00001252 Ry

     iteration # 14     ecut=   147.00 Ry     beta= 0.70
     Davidson diagonalization with overlap
     ethr =  5.22E-08,  avg # of iterations =  5.0

     negative rho (up, down):  1.666E-03 0.000E+00

     total cpu time spent up to now is      289.7 secs

     total energy              =    -124.95432470 Ry
     estimated scf accuracy    <       0.00001077 Ry

     iteration # 15     ecut=   147.00 Ry     beta= 0.70
     Davidson diagonalization with overlap
     ethr =  4.49E-08,  avg # of iterations =  8.0

     negative rho (up, down):  1.668E-03 0.000E+00

     total cpu time spent up to now is      308.6 secs

     total energy              =    -124.95434106 Ry
     estimated scf accuracy    <       0.00003419 Ry

     iteration # 16     ecut=   147.00 Ry     beta= 0.70
     Davidson diagonalization with overlap
     ethr =  4.49E-08,  avg # of iterations =  1.0

     negative rho (up, down):  1.669E-03 0.000E+00

     total cpu time spent up to now is      322.2 secs

     total energy              =    -124.95432587 Ry
     estimated scf accuracy    <       0.00004038 Ry

     iteration # 17     ecut=   147.00 Ry     beta= 0.70
     Davidson diagonalization with overlap
     ethr =  4.49E-08,  avg # of iterations =  5.0

     negative rho (up, down):  1.669E-03 0.000E+00

     total cpu time spent up to now is      338.0 secs

     total energy              =    -124.95432914 Ry
     estimated scf accuracy    <       0.00000333 Ry

     iteration # 18     ecut=   147.00 Ry     beta= 0.70
     Davidson diagonalization with overlap
     ethr =  1.39E-08,  avg # of iterations =  2.0

     negative rho (up, down):  1.669E-03 0.000E+00

     total cpu time spent up to now is      352.3 secs

     total energy              =    -124.95432861 Ry
     estimated scf accuracy    <       0.00000216 Ry

     iteration # 19     ecut=   147.00 Ry     beta= 0.70
     Davidson diagonalization with overlap
     ethr =  9.00E-09,  avg # of iterations =  6.0

     negative rho (up, down):  1.669E-03 0.000E+00

     total cpu time spent up to now is      368.6 secs

     total energy              =    -124.95432980 Ry
     estimated scf accuracy    <       0.00000023 Ry

     iteration # 20     ecut=   147.00 Ry     beta= 0.70
     Davidson diagonalization with overlap
     ethr =  9.55E-10,  avg # of iterations =  6.0

     negative rho (up, down):  1.668E-03 0.000E+00

     total cpu time spent up to now is      386.2 secs

     total energy              =    -124.95432971 Ry
     estimated scf accuracy    <       0.00000083 Ry

     iteration # 21     ecut=   147.00 Ry     beta= 0.70
     Davidson diagonalization with overlap
     ethr =  9.55E-10,  avg # of iterations =  2.0

     negative rho (up, down):  1.668E-03 0.000E+00

     total cpu time spent up to now is      400.1 secs

     total energy              =    -124.95432951 Ry
     estimated scf accuracy    <       0.00000046 Ry

     iteration # 22     ecut=   147.00 Ry     beta= 0.70
     Davidson diagonalization with overlap
     ethr =  9.55E-10,  avg # of iterations =  7.0

     negative rho (up, down):  1.668E-03 0.000E+00

     total cpu time spent up to now is      417.9 secs

     total energy              =    -124.95432974 Ry
     estimated scf accuracy    <       0.00000009 Ry

     iteration # 23     ecut=   147.00 Ry     beta= 0.70
     Davidson diagonalization with overlap
     ethr =  3.79E-10,  avg # of iterations =  2.0

     negative rho (up, down):  1.668E-03 0.000E+00

     total cpu time spent up to now is      431.9 secs

     total energy              =    -124.95432972 Ry
     estimated scf accuracy    <       0.00000008 Ry

     iteration # 24     ecut=   147.00 Ry     beta= 0.70
     Davidson diagonalization with overlap
     ethr =  3.50E-10,  avg # of iterations =  1.0

     negative rho (up, down):  1.668E-03 0.000E+00

     total cpu time spent up to now is      445.4 secs

     total energy              =    -124.95432971 Ry
     estimated scf accuracy    <       0.00000004 Ry

     iteration # 25     ecut=   147.00 Ry     beta= 0.70
     Davidson diagonalization with overlap
     ethr =  1.64E-10,  avg # of iterations =  2.0

     negative rho (up, down):  1.668E-03 0.000E+00

     total cpu time spent up to now is      459.6 secs

     total energy              =    -124.95432971 Ry
     estimated scf accuracy    <       0.00000003 Ry

     iteration # 26     ecut=   147.00 Ry     beta= 0.70
     Davidson diagonalization with overlap
     ethr =  1.05E-10,  avg # of iterations =  2.0

     negative rho (up, down):  1.668E-03 0.000E+00

     total cpu time spent up to now is      473.6 secs

     total energy              =    -124.95432971 Ry
     estimated scf accuracy    <       0.00000002 Ry

     iteration # 27     ecut=   147.00 Ry     beta= 0.70
     Davidson diagonalization with overlap
     ethr =  7.60E-11,  avg # of iterations =  2.0

     negative rho (up, down):  1.668E-03 0.000E+00

     total cpu time spent up to now is      486.8 secs

     End of self-consistent calculation

          k = 0.0000 0.0000 0.0000 (****** PWs)   bands (ev):

   -27.9391 -25.5533 -19.0113 -15.2379 -12.0658 -11.7231 -11.6965 -10.1253
    -9.6618  -9.6162  -7.8685  -6.5343

     highest occupied level (ev):    -6.5343

!    total energy              =    -124.95432971 Ry
     total all-electron energy =      -458.176287 Ry
     estimated scf accuracy    <          7.1E-09 Ry

     The total energy is the sum of the following terms:
     one-electron contribution =    -363.29242405 Ry
     hartree contribution      =     185.54822552 Ry
     xc contribution           =     -26.97079688 Ry
     ewald contribution        =     111.27413749 Ry
     one-center paw contrib.   =     -31.51347179 Ry

     charge density inside the Wigner-Seitz cell:   24.00000000

     reference position (x0):         0.47051375   -0.51580153    7.58318205 bohr

     Dipole moments (with respect to x0):
     Elect  -0.6755  -0.0902  -0.0538 au (Ha),  -1.7170  -0.2294  -0.1369 Debye
     Ionic  -0.0000   0.0000  -0.0000 au (Ha),  -0.0000   0.0000  -0.0000 Debye
     Total  -0.6755  -0.0902  -0.0538 au (Ha),  -1.7170  -0.2294  -0.1369 Debye

     Electrons quadrupole moment       -213.49117479 a.u. (Ha)
          Ions quadrupole moment        160.85245239 a.u. (Ha)
         Total quadrupole moment        -52.63872240 a.u. (Ha)

     *********    MAKOV-PAYNE CORRECTION    *********

     Makov-Payne correction with Madelung constant =   2.8373

     Makov-Payne correction     0.00000000 Ry =  0.000 eV (1st order, 1/a0)
                                0.00000677 Ry =  0.000 eV (2nd order, 1/a0^3)
                                0.00000677 Ry =  0.000 eV (total)

!    Total+Makov-Payne energy  =    -124.95432294 Ry
     Corrected vacuum level    =       0.01036870 eV

     convergence has been achieved in  27 iterations

     Writing all to output data dir ./pwscf.save/

     init_run     :     30.96s CPU     34.26s WALL (       1 calls)
     electrons    :    377.86s CPU    454.53s WALL (       1 calls)

     Called by init_run:
     wfcinit      :      2.36s CPU      2.82s WALL (       1 calls)
     potinit      :      3.87s CPU      5.17s WALL (       1 calls)
     hinit0       :      2.12s CPU      2.49s WALL (       1 calls)

     Called by electrons:
     c_bands      :    163.20s CPU    172.05s WALL (      27 calls)
     sum_band     :     95.71s CPU    126.17s WALL (      27 calls)
     v_of_rho     :     53.51s CPU     70.75s WALL (      28 calls)
     newd         :     42.04s CPU     61.74s WALL (      28 calls)
     PAW_pot      :      0.34s CPU      0.41s WALL (      28 calls)
     mix_rho      :     22.64s CPU     23.77s WALL (      27 calls)

     Called by c_bands:
     init_us_2    :      1.60s CPU      1.70s WALL (      55 calls)
     init_us_2:cp :      1.60s CPU      1.70s WALL (      55 calls)
     regterg      :    160.46s CPU    169.23s WALL (      27 calls)

     Called by *egterg:
     rdiaghg      :      0.03s CPU      0.05s WALL (     162 calls)
     h_psi        :    137.87s CPU    146.67s WALL (     163 calls)
     s_psi        :      4.89s CPU      4.92s WALL (     163 calls)
     g_psi        :      0.52s CPU      0.52s WALL (     135 calls)

     Called by h_psi:
     h_psi:calbec :      4.48s CPU      4.55s WALL (     163 calls)
     vloc_psi     :    127.45s CPU    136.14s WALL (     163 calls)
     add_vuspsi   :      4.91s CPU      4.92s WALL (     163 calls)

     General routines
     calbec       :      5.14s CPU      5.22s WALL (     190 calls)
     fft          :     44.80s CPU     55.39s WALL (     252 calls)
     ffts         :      3.98s CPU      4.70s WALL (      27 calls)
     fftw         :    110.67s CPU    120.25s WALL (    1408 calls)

     Parallel routines

     PWSCF        :   6m50.80s CPU   8m13.26s WALL


   This run was terminated on:  18:39: 6  12Oct2023            

=------------------------------------------------------------------------------=
   JOB DONE.
=------------------------------------------------------------------------------=
