
     Program PWSCF v.7.2 starts on 12Oct2023 at 17:13:48 

     This program is part of the open-source Quantum ESPRESSO suite
     for quantum simulation of materials; please cite
         "P. Giannozzi et al., J. Phys.:Condens. Matter 21 395502 (2009);
         "P. Giannozzi et al., J. Phys.:Condens. Matter 29 465901 (2017);
         "P. Giannozzi et al., J. Chem. Phys. 152 154105 (2020);
          URL http://www.quantum-espresso.org", 
     in publications or presentations arising from this work. More details at
     http://www.quantum-espresso.org/quote

     Parallel version (MPI), running on    32 processors

     MPI processes distributed on     1 nodes
     485543 MiB available memory on the printing compute node when the environment starts

     Reading input from 22AcOHUracil100_efficiency_monomer_1.in
Warning: card &CELL ignored
Warning: card / ignored

     Current dimensions of program PWSCF are:
     Max number of different atomic species (ntypx) = 10
     Max number of k-points (npk) =  40000
     Max angular momentum in pseudopotentials (lmaxx) =  4
     file C.pbe-n-kjpaw_psl.1.0.0.UPF: wavefunction(s)  2S 2P renormalized
     file O.pbe-nl-kjpaw_psl.1.0.0.UPF: wavefunction(s)  2S 2P renormalized
     file H.pbe-kjpaw_psl.1.0.0.UPF: wavefunction(s)  1S renormalized

     IMPORTANT: XC functional enforced from input :
     Exchange-correlation= PBE
                           (   1   4   3   4   0   0   0)
     Any further DFT definition will be discarded
     Please, verify this is what you really want


     gamma-point specific algorithms are used

     R & G space division:  proc/nbgrp/npool/nimage =      32
     Subspace diagonalization in iterative solution of the eigenvalue problem:
     a serial algorithm will be used


     Parallelization info
     --------------------
     sticks:   dense  smooth     PW     G-vecs:    dense   smooth      PW
     Min        6395    6395   1598              2177048  2177048  272114
     Max        6398    6398   1600              2177062  2177062  272124
     Sum      204693  204693  51189             69665707 69665707 8707803

     Using Slab Decomposition



     bravais-lattice index     =            0
     lattice parameter (alat)  =      66.1404  a.u.
     unit-cell volume          =  289334.8415 (a.u.)^3
     number of atoms/cell      =            8
     number of atomic types    =            3
     number of electrons       =        24.00
     number of Kohn-Sham states=           12
     kinetic-energy cutoff     =     147.0000  Ry
     charge density cutoff     =     588.0000  Ry
     scf convergence threshold =      1.0E-08
     mixing beta               =       0.7000
     number of iterations used =            8  plain     mixing
     Exchange-correlation= PBE
                           (   1   4   3   4   0   0   0)

     celldm(1)=  66.140414  celldm(2)=   0.000000  celldm(3)=   0.000000
     celldm(4)=   0.000000  celldm(5)=   0.000000  celldm(6)=   0.000000

     crystal axes: (cart. coord. in units of alat)
               a(1) = (   1.000000   0.000000   0.000000 )  
               a(2) = (   0.000000   1.000000   0.000000 )  
               a(3) = (   0.000000   0.000000   1.000000 )  

     reciprocal axes: (cart. coord. in units 2 pi/alat)
               b(1) = (  1.000000  0.000000  0.000000 )  
               b(2) = (  0.000000  1.000000  0.000000 )  
               b(3) = (  0.000000  0.000000  1.000000 )  


     PseudoPot. # 1 for C  read from file:
     /home/users/klimj2am/src/pslibrary.1.0.0/pbe/PSEUDOPOTENTIALS/C.pbe-n-kjpaw_psl.1.0.0.UPF
     MD5 check sum: 9d4797b4e2669f30c50dcc814f8da1dd
     Pseudo is Projector augmented-wave + core cor, Zval =  4.0
     Generated using 'atomic' code by A. Dal Corso  v.7.2
     Shape of augmentation charge: PSQ
     Using radial grid of 1073 points,  4 beta functions with: 
                l(1) =   0
                l(2) =   0
                l(3) =   1
                l(4) =   1
     Q(r) pseudized with 0 coefficients 


     PseudoPot. # 2 for O  read from file:
     /home/users/klimj2am/src/pslibrary.1.0.0/pbe/PSEUDOPOTENTIALS/O.pbe-nl-kjpaw_psl.1.0.0.UPF
     MD5 check sum: 3be12c084656f77eefcab7bec6207024
     Pseudo is Projector augmented-wave + core cor, Zval =  6.0
     Generated using 'atomic' code by A. Dal Corso  v.7.2
     Shape of augmentation charge: PSQ
     Using radial grid of 1095 points,  4 beta functions with: 
                l(1) =   0
                l(2) =   0
                l(3) =   1
                l(4) =   1
     Q(r) pseudized with 0 coefficients 


     PseudoPot. # 3 for H  read from file:
     /home/users/klimj2am/src/pslibrary.1.0.0/pbe/PSEUDOPOTENTIALS/H.pbe-kjpaw_psl.1.0.0.UPF
     MD5 check sum: 220281c0717fd894cece6904c624ceaa
     Pseudo is Projector augmented-wave, Zval =  1.0
     Generated using 'atomic' code by A. Dal Corso  v.7.2
     Shape of augmentation charge: PSQ
     Using radial grid of  929 points,  2 beta functions with: 
                l(1) =   0
                l(2) =   0
     Q(r) pseudized with 0 coefficients 


     atomic species   valence    mass     pseudopotential
        C              4.00    12.01100     C ( 1.00)
        O              6.00    15.99900     O ( 1.00)
        H              1.00     1.00800     H ( 1.00)

     No symmetry found



   Cartesian axes

     site n.     atom                  positions (alat units)
         1           C   tau(   1) = (  -0.0318179   0.0379149   0.0078619  )
         2           O   tau(   2) = (  -0.0133452   0.0671254   0.0131868  )
         3           O   tau(   3) = (  -0.0165168   0.0039120   0.0014176  )
         4           H   tau(   4) = (   0.0118092   0.0058073   0.0015853  )
         5           C   tau(   5) = (  -0.0746121   0.0367483   0.0079246  )
         6           H   tau(   6) = (  -0.0859043   0.0650539   0.0133083  )
         7           H   tau(   7) = (  -0.0846930   0.0261502  -0.0194857  )
         8           H   tau(   8) = (  -0.0843747   0.0169085   0.0297497  )

     number of k points=     1
                       cart. coord. in units 2pi/alat
        k(    1) = (   0.0000000   0.0000000   0.0000000), wk =   2.0000000

     Dense  grid: 34832854 G-vectors     FFT dimensions: ( 512, 512, 512)

     Estimated max dynamical RAM per process >       1.66 GB

     Estimated total dynamical RAM >      53.04 GB

     Initial potential from superposition of free atoms

     starting charge      23.9999, renormalised to      24.0000

     negative rho (up, down):  9.595E-04 0.000E+00
     Starting wfcs are   20 randomized atomic wfcs
     Checking if some PAW data can be deallocated... 

     total cpu time spent up to now is       34.9 secs

     Self-consistent Calculation

     iteration #  1     ecut=   147.00 Ry     beta= 0.70
     Davidson diagonalization with overlap
     ethr =  1.00E-02,  avg # of iterations =  2.0

     negative rho (up, down):  1.013E-03 0.000E+00

     total cpu time spent up to now is       50.3 secs

     total energy              =    -124.57188576 Ry
     estimated scf accuracy    <       1.05217338 Ry

     iteration #  2     ecut=   147.00 Ry     beta= 0.70
     Davidson diagonalization with overlap
     ethr =  4.38E-03,  avg # of iterations =  3.0

     negative rho (up, down):  8.923E-04 0.000E+00

     total cpu time spent up to now is       66.0 secs

     total energy              =    -124.86437893 Ry
     estimated scf accuracy    <       0.49082430 Ry

     iteration #  3     ecut=   147.00 Ry     beta= 0.70
     Davidson diagonalization with overlap
     ethr =  2.05E-03,  avg # of iterations =  2.0

     negative rho (up, down):  8.872E-04 0.000E+00

     total cpu time spent up to now is       80.4 secs

     total energy              =    -124.93237156 Ry
     estimated scf accuracy    <       0.02950594 Ry

     iteration #  4     ecut=   147.00 Ry     beta= 0.70
     Davidson diagonalization with overlap
     ethr =  1.23E-04,  avg # of iterations =  5.0

     negative rho (up, down):  9.068E-04 0.000E+00

     total cpu time spent up to now is       97.8 secs

     total energy              =    -124.94573978 Ry
     estimated scf accuracy    <       0.01782813 Ry

     iteration #  5     ecut=   147.00 Ry     beta= 0.70
     Davidson diagonalization with overlap
     ethr =  7.43E-05,  avg # of iterations =  3.0

     negative rho (up, down):  9.125E-04 0.000E+00

     total cpu time spent up to now is      112.5 secs

     total energy              =    -124.94847700 Ry
     estimated scf accuracy    <       0.00089814 Ry

     iteration #  6     ecut=   147.00 Ry     beta= 0.70
     Davidson diagonalization with overlap
     ethr =  3.74E-06,  avg # of iterations =  3.0

     negative rho (up, down):  9.141E-04 0.000E+00

     total cpu time spent up to now is      128.5 secs

     total energy              =    -124.94885090 Ry
     estimated scf accuracy    <       0.00004469 Ry

     iteration #  7     ecut=   147.00 Ry     beta= 0.70
     Davidson diagonalization with overlap
     ethr =  1.86E-07,  avg # of iterations =  3.0

     negative rho (up, down):  9.152E-04 0.000E+00

     total cpu time spent up to now is      144.3 secs

     total energy              =    -124.94886584 Ry
     estimated scf accuracy    <       0.00000858 Ry

     iteration #  8     ecut=   147.00 Ry     beta= 0.70
     Davidson diagonalization with overlap
     ethr =  3.58E-08,  avg # of iterations =  3.0

     negative rho (up, down):  9.155E-04 0.000E+00

     total cpu time spent up to now is      159.7 secs

     total energy              =    -124.94886793 Ry
     estimated scf accuracy    <       0.00000084 Ry

     iteration #  9     ecut=   147.00 Ry     beta= 0.70
     Davidson diagonalization with overlap
     ethr =  3.48E-09,  avg # of iterations =  4.0

     negative rho (up, down):  9.156E-04 0.000E+00

     total cpu time spent up to now is      175.8 secs

     total energy              =    -124.94886808 Ry
     estimated scf accuracy    <       0.00000023 Ry

     iteration # 10     ecut=   147.00 Ry     beta= 0.70
     Davidson diagonalization with overlap
     ethr =  9.68E-10,  avg # of iterations =  4.0

     negative rho (up, down):  9.156E-04 0.000E+00

     total cpu time spent up to now is      191.4 secs

     total energy              =    -124.94886813 Ry
     estimated scf accuracy    <       0.00000008 Ry

     iteration # 11     ecut=   147.00 Ry     beta= 0.70
     Davidson diagonalization with overlap
     ethr =  3.28E-10,  avg # of iterations =  3.0

     negative rho (up, down):  9.155E-04 0.000E+00

     total cpu time spent up to now is      205.9 secs

     End of self-consistent calculation

          k = 0.0000 0.0000 0.0000 (****** PWs)   bands (ev):

   -28.0521 -25.4011 -18.9467 -15.5579 -11.9905 -11.7142 -11.7082 -10.1196
    -9.6592  -9.3859  -7.8112  -6.3606

     highest occupied level (ev):    -6.3606

!    total energy              =    -124.94886814 Ry
     total all-electron energy =      -458.170835 Ry
     estimated scf accuracy    <          3.3E-09 Ry

     The total energy is the sum of the following terms:
     one-electron contribution =    -363.28046380 Ry
     hartree contribution      =     185.56388696 Ry
     xc contribution           =     -26.95753460 Ry
     ewald contribution        =     111.24392992 Ry
     one-center paw contrib.   =     -31.51868663 Ry

     charge density inside the Wigner-Seitz cell:   24.00000000

     reference position (x0):        -2.33711363    2.31159869    0.48483752 bohr

     Dipole moments (with respect to x0):
     Elect  -0.3093  -0.7020  -0.1289 au (Ha),  -0.7860  -1.7843  -0.3277 Debye
     Ionic  -0.0000   0.0000  -0.0000 au (Ha),  -0.0000   0.0000  -0.0000 Debye
     Total  -0.3093  -0.7020  -0.1289 au (Ha),  -0.7860  -1.7843  -0.3277 Debye

     Electrons quadrupole moment       -213.29384434 a.u. (Ha)
          Ions quadrupole moment        160.86994321 a.u. (Ha)
         Total quadrupole moment        -52.42390113 a.u. (Ha)

     *********    MAKOV-PAYNE CORRECTION    *********

     Makov-Payne correction with Madelung constant =   2.8373

     Makov-Payne correction     0.00000000 Ry =  0.000 eV (1st order, 1/a0)
                                0.00000876 Ry =  0.000 eV (2nd order, 1/a0^3)
                                0.00000876 Ry =  0.000 eV (total)

!    Total+Makov-Payne energy  =    -124.94885938 Ry
     Corrected vacuum level    =       0.01033128 eV

     convergence has been achieved in  11 iterations

     Writing all to output data dir ./pwscf.save/

     init_run     :     30.91s CPU     34.26s WALL (       1 calls)
     electrons    :    142.27s CPU    173.53s WALL (       1 calls)

     Called by init_run:
     wfcinit      :      2.50s CPU      2.95s WALL (       1 calls)
     potinit      :      3.89s CPU      5.03s WALL (       1 calls)
     hinit0       :      1.96s CPU      2.34s WALL (       1 calls)

     Called by electrons:
     c_bands      :     55.89s CPU     59.09s WALL (      11 calls)
     sum_band     :     39.12s CPU     51.38s WALL (      11 calls)
     v_of_rho     :     23.17s CPU     30.61s WALL (      12 calls)
     newd         :     18.13s CPU     26.59s WALL (      12 calls)
     PAW_pot      :      0.16s CPU      0.17s WALL (      12 calls)
     mix_rho      :      6.91s CPU      7.47s WALL (      11 calls)

     Called by c_bands:
     init_us_2    :      0.70s CPU      0.74s WALL (      23 calls)
     init_us_2:cp :      0.70s CPU      0.74s WALL (      23 calls)
     regterg      :     54.77s CPU     57.95s WALL (      11 calls)

     Called by *egterg:
     rdiaghg      :      0.01s CPU      0.02s WALL (      46 calls)
     h_psi        :     50.13s CPU     53.42s WALL (      47 calls)
     s_psi        :      1.31s CPU      1.32s WALL (      47 calls)
     g_psi        :      0.17s CPU      0.17s WALL (      35 calls)

     Called by h_psi:
     h_psi:calbec :      1.27s CPU      1.29s WALL (      47 calls)
     vloc_psi     :     47.21s CPU     50.43s WALL (      47 calls)
     add_vuspsi   :      1.31s CPU      1.31s WALL (      47 calls)

     General routines
     calbec       :      1.58s CPU      1.60s WALL (      58 calls)
     fft          :     19.16s CPU     23.98s WALL (     108 calls)
     ffts         :      1.67s CPU      1.98s WALL (      11 calls)
     fftw         :     42.41s CPU     45.94s WALL (     498 calls)

     Parallel routines

     PWSCF        :   2m55.24s CPU   3m32.26s WALL


   This run was terminated on:  17:17:20  12Oct2023            

=------------------------------------------------------------------------------=
   JOB DONE.
=------------------------------------------------------------------------------=
