
     Program PWSCF v.7.2 starts on 12Oct2023 at 17:15: 3 

     This program is part of the open-source Quantum ESPRESSO suite
     for quantum simulation of materials; please cite
         "P. Giannozzi et al., J. Phys.:Condens. Matter 21 395502 (2009);
         "P. Giannozzi et al., J. Phys.:Condens. Matter 29 465901 (2017);
         "P. Giannozzi et al., J. Chem. Phys. 152 154105 (2020);
          URL http://www.quantum-espresso.org", 
     in publications or presentations arising from this work. More details at
     http://www.quantum-espresso.org/quote

     Parallel version (MPI), running on    32 processors

     MPI processes distributed on     1 nodes
     502306 MiB available memory on the printing compute node when the environment starts

     Reading input from 33PyridineEthene100_efficiency_monomer_1.in
Warning: card &CELL ignored
Warning: card / ignored

     Current dimensions of program PWSCF are:
     Max number of different atomic species (ntypx) = 10
     Max number of k-points (npk) =  40000
     Max angular momentum in pseudopotentials (lmaxx) =  4
     file N.pbe-n-kjpaw_psl.1.0.0.UPF: wavefunction(s)  2S renormalized
     file C.pbe-n-kjpaw_psl.1.0.0.UPF: wavefunction(s)  2S 2P renormalized
     file H.pbe-kjpaw_psl.1.0.0.UPF: wavefunction(s)  1S renormalized

     IMPORTANT: XC functional enforced from input :
     Exchange-correlation= PBE
                           (   1   4   3   4   0   0   0)
     Any further DFT definition will be discarded
     Please, verify this is what you really want


     gamma-point specific algorithms are used

     R & G space division:  proc/nbgrp/npool/nimage =      32
     Subspace diagonalization in iterative solution of the eigenvalue problem:
     a serial algorithm will be used


     Parallelization info
     --------------------
     sticks:   dense  smooth     PW     G-vecs:    dense   smooth      PW
     Min        6395    6395   1598              2177048  2177048  272114
     Max        6398    6398   1600              2177062  2177062  272124
     Sum      204693  204693  51189             69665707 69665707 8707803

     Using Slab Decomposition



     bravais-lattice index     =            0
     lattice parameter (alat)  =      66.1404  a.u.
     unit-cell volume          =  289334.8415 (a.u.)^3
     number of atoms/cell      =           11
     number of atomic types    =            3
     number of electrons       =        30.00
     number of Kohn-Sham states=           15
     kinetic-energy cutoff     =     147.0000  Ry
     charge density cutoff     =     588.0000  Ry
     scf convergence threshold =      1.0E-08
     mixing beta               =       0.7000
     number of iterations used =            8  plain     mixing
     Exchange-correlation= PBE
                           (   1   4   3   4   0   0   0)

     celldm(1)=  66.140414  celldm(2)=   0.000000  celldm(3)=   0.000000
     celldm(4)=   0.000000  celldm(5)=   0.000000  celldm(6)=   0.000000

     crystal axes: (cart. coord. in units of alat)
               a(1) = (   1.000000   0.000000   0.000000 )  
               a(2) = (   0.000000   1.000000   0.000000 )  
               a(3) = (   0.000000   0.000000   1.000000 )  

     reciprocal axes: (cart. coord. in units 2 pi/alat)
               b(1) = (  1.000000  0.000000  0.000000 )  
               b(2) = (  0.000000  1.000000  0.000000 )  
               b(3) = (  0.000000  0.000000  1.000000 )  


     PseudoPot. # 1 for N  read from file:
     /home/users/klimj2am/src/pslibrary.1.0.0/pbe/PSEUDOPOTENTIALS/N.pbe-n-kjpaw_psl.1.0.0.UPF
     MD5 check sum: ed3381810ced4c04e88f7c2008d4036c
     Pseudo is Projector augmented-wave + core cor, Zval =  5.0
     Generated using 'atomic' code by A. Dal Corso  v.7.2
     Shape of augmentation charge: PSQ
     Using radial grid of 1085 points,  4 beta functions with: 
                l(1) =   0
                l(2) =   0
                l(3) =   1
                l(4) =   1
     Q(r) pseudized with 0 coefficients 


     PseudoPot. # 2 for C  read from file:
     /home/users/klimj2am/src/pslibrary.1.0.0/pbe/PSEUDOPOTENTIALS/C.pbe-n-kjpaw_psl.1.0.0.UPF
     MD5 check sum: 9d4797b4e2669f30c50dcc814f8da1dd
     Pseudo is Projector augmented-wave + core cor, Zval =  4.0
     Generated using 'atomic' code by A. Dal Corso  v.7.2
     Shape of augmentation charge: PSQ
     Using radial grid of 1073 points,  4 beta functions with: 
                l(1) =   0
                l(2) =   0
                l(3) =   1
                l(4) =   1
     Q(r) pseudized with 0 coefficients 


     PseudoPot. # 3 for H  read from file:
     /home/users/klimj2am/src/pslibrary.1.0.0/pbe/PSEUDOPOTENTIALS/H.pbe-kjpaw_psl.1.0.0.UPF
     MD5 check sum: 220281c0717fd894cece6904c624ceaa
     Pseudo is Projector augmented-wave, Zval =  1.0
     Generated using 'atomic' code by A. Dal Corso  v.7.2
     Shape of augmentation charge: PSQ
     Using radial grid of  929 points,  2 beta functions with: 
                l(1) =   0
                l(2) =   0
     Q(r) pseudized with 0 coefficients 


     atomic species   valence    mass     pseudopotential
        N              5.00    14.00700     N ( 1.00)
        C              4.00    12.01100     C ( 1.00)
        H              1.00     1.00800     H ( 1.00)

     No symmetry found



   Cartesian axes

     site n.     atom                  positions (alat units)
         1           N   tau(   1) = (   0.0394681  -0.0000067   0.0037561  )
         2           C   tau(   2) = (   0.0194100  -0.0325783   0.0026308  )
         3           H   tau(   3) = (   0.0359634  -0.0587132   0.0035967  )
         4           C   tau(   4) = (  -0.0202778  -0.0340890   0.0001904  )
         5           H   tau(   5) = (  -0.0346882  -0.0613875  -0.0007231  )
         6           C   tau(   6) = (  -0.0406175   0.0000038  -0.0011662  )
         7           H   tau(   7) = (  -0.0714485   0.0000074  -0.0031191  )
         8           C   tau(   8) = (  -0.0202686   0.0340907   0.0001863  )
         9           H   tau(   9) = (  -0.0346718   0.0613928  -0.0007294  )
        10           C   tau(  10) = (   0.0194186   0.0325702   0.0026255  )
        11           H   tau(  11) = (   0.0359789   0.0587003   0.0035858  )

     number of k points=     1
                       cart. coord. in units 2pi/alat
        k(    1) = (   0.0000000   0.0000000   0.0000000), wk =   2.0000000

     Dense  grid: 34832854 G-vectors     FFT dimensions: ( 512, 512, 512)

     Estimated max dynamical RAM per process >       1.72 GB

     Estimated total dynamical RAM >      54.92 GB

     Initial potential from superposition of free atoms

     starting charge      29.9997, renormalised to      30.0000

     negative rho (up, down):  5.389E-04 0.000E+00
     Starting wfcs are   29 randomized atomic wfcs
     Checking if some PAW data can be deallocated... 

     total cpu time spent up to now is       36.4 secs

     Self-consistent Calculation

     iteration #  1     ecut=   147.00 Ry     beta= 0.70
     Davidson diagonalization with overlap
     ethr =  1.00E-02,  avg # of iterations =  2.0

     negative rho (up, down):  8.468E-04 0.000E+00

     total cpu time spent up to now is       54.6 secs

     total energy              =    -125.97055474 Ry
     estimated scf accuracy    <       1.21158427 Ry

     iteration #  2     ecut=   147.00 Ry     beta= 0.70
     Davidson diagonalization with overlap
     ethr =  4.04E-03,  avg # of iterations =  2.0

     negative rho (up, down):  8.831E-04 0.000E+00

     total cpu time spent up to now is       72.1 secs

     total energy              =    -126.21590231 Ry
     estimated scf accuracy    <       0.22398190 Ry

     iteration #  3     ecut=   147.00 Ry     beta= 0.70
     Davidson diagonalization with overlap
     ethr =  7.47E-04,  avg # of iterations =  2.0

     negative rho (up, down):  9.519E-04 0.000E+00

     total cpu time spent up to now is       89.1 secs

     total energy              =    -126.25865093 Ry
     estimated scf accuracy    <       0.00794228 Ry

     iteration #  4     ecut=   147.00 Ry     beta= 0.70
     Davidson diagonalization with overlap
     ethr =  2.65E-05,  avg # of iterations =  2.0

     negative rho (up, down):  9.647E-04 0.000E+00

     total cpu time spent up to now is      106.6 secs

     total energy              =    -126.26032394 Ry
     estimated scf accuracy    <       0.00096897 Ry

     iteration #  5     ecut=   147.00 Ry     beta= 0.70
     Davidson diagonalization with overlap
     ethr =  3.23E-06,  avg # of iterations =  2.0

     negative rho (up, down):  9.710E-04 0.000E+00

     total cpu time spent up to now is      123.5 secs

     total energy              =    -126.26042841 Ry
     estimated scf accuracy    <       0.00009845 Ry

     iteration #  6     ecut=   147.00 Ry     beta= 0.70
     Davidson diagonalization with overlap
     ethr =  3.28E-07,  avg # of iterations =  5.0

     negative rho (up, down):  9.715E-04 0.000E+00

     total cpu time spent up to now is      142.4 secs

     total energy              =    -126.26045787 Ry
     estimated scf accuracy    <       0.00002605 Ry

     iteration #  7     ecut=   147.00 Ry     beta= 0.70
     Davidson diagonalization with overlap
     ethr =  8.68E-08,  avg # of iterations =  6.0

     negative rho (up, down):  9.724E-04 0.000E+00

     total cpu time spent up to now is      161.8 secs

     total energy              =    -126.26046367 Ry
     estimated scf accuracy    <       0.00001195 Ry

     iteration #  8     ecut=   147.00 Ry     beta= 0.70
     Davidson diagonalization with overlap
     ethr =  3.98E-08,  avg # of iterations =  5.0

     negative rho (up, down):  9.725E-04 0.000E+00

     total cpu time spent up to now is      178.6 secs

     total energy              =    -126.26046597 Ry
     estimated scf accuracy    <       0.00000021 Ry

     iteration #  9     ecut=   147.00 Ry     beta= 0.70
     Davidson diagonalization with overlap
     ethr =  7.12E-10,  avg # of iterations =  5.0

     negative rho (up, down):  9.725E-04 0.000E+00

     total cpu time spent up to now is      198.9 secs

     total energy              =    -126.26046613 Ry
     estimated scf accuracy    <       0.00000014 Ry

     iteration # 10     ecut=   147.00 Ry     beta= 0.70
     Davidson diagonalization with overlap
     ethr =  4.83E-10,  avg # of iterations =  5.0

     negative rho (up, down):  9.725E-04 0.000E+00

     total cpu time spent up to now is      216.8 secs

     total energy              =    -126.26046615 Ry
     estimated scf accuracy    <       0.00000001 Ry

     iteration # 11     ecut=   147.00 Ry     beta= 0.70
     Davidson diagonalization with overlap
     ethr =  4.00E-11,  avg # of iterations =  5.0

     negative rho (up, down):  9.725E-04 0.000E+00

     total cpu time spent up to now is      235.1 secs

     End of self-consistent calculation

          k = 0.0000 0.0000 0.0000 (****** PWs)   bands (ev):

   -23.5662 -20.0686 -18.9323 -15.6218 -15.5815 -13.1136 -11.8602 -11.5241
   -10.4751  -9.9432  -9.8396  -8.7991  -7.3141  -6.6981  -5.9143

     highest occupied level (ev):    -5.9143

!    total energy              =    -126.26046615 Ry
     total all-electron energy =      -496.379729 Ry
     estimated scf accuracy    <          8.8E-09 Ry

     The total energy is the sum of the following terms:
     one-electron contribution =    -459.09892191 Ry
     hartree contribution      =     233.33679901 Ry
     xc contribution           =     -32.34031054 Ry
     ewald contribution        =     170.66585661 Ry
     one-center paw contrib.   =     -38.82388933 Ry

     charge density inside the Wigner-Seitz cell:   30.00000000

     reference position (x0):        -0.09009853   -0.00009630    0.08655364 bohr

     Dipole moments (with respect to x0):
     Elect  -0.8828   0.0001  -0.0542 au (Ha),  -2.2439   0.0003  -0.1377 Debye
     Ionic   0.0000   0.0000  -0.0000 au (Ha),   0.0000   0.0000  -0.0000 Debye
     Total  -0.8828   0.0001  -0.0542 au (Ha),  -2.2439   0.0003  -0.1377 Debye

     Electrons quadrupole moment       -352.44441151 a.u. (Ha)
          Ions quadrupole moment        275.88722261 a.u. (Ha)
         Total quadrupole moment        -76.55718890 a.u. (Ha)

     *********    MAKOV-PAYNE CORRECTION    *********

     Makov-Payne correction with Madelung constant =   2.8373

     Makov-Payne correction     0.00000000 Ry =  0.000 eV (1st order, 1/a0)
                                0.00001133 Ry =  0.000 eV (2nd order, 1/a0^3)
                                0.00001133 Ry =  0.000 eV (total)

!    Total+Makov-Payne energy  =    -126.26045483 Ry
     Corrected vacuum level    =       0.01507726 eV

     convergence has been achieved in  11 iterations

     Writing all to output data dir ./pwscf.save/

     init_run     :     32.29s CPU     35.73s WALL (       1 calls)
     electrons    :    170.35s CPU    201.22s WALL (       1 calls)

     Called by init_run:
     wfcinit      :      3.95s CPU      4.54s WALL (       1 calls)
     potinit      :      3.78s CPU      4.97s WALL (       1 calls)
     hinit0       :      2.09s CPU      2.42s WALL (       1 calls)

     Called by electrons:
     c_bands      :     82.50s CPU     86.91s WALL (      11 calls)
     sum_band     :     41.85s CPU     52.24s WALL (      11 calls)
     v_of_rho     :     23.04s CPU     30.58s WALL (      12 calls)
     newd         :     16.97s CPU     25.57s WALL (      12 calls)
     PAW_pot      :      0.15s CPU      0.19s WALL (      12 calls)
     mix_rho      :      6.87s CPU      7.40s WALL (      11 calls)

     Called by c_bands:
     init_us_2    :      0.90s CPU      0.95s WALL (      23 calls)
     init_us_2:cp :      0.90s CPU      0.95s WALL (      23 calls)
     regterg      :     80.88s CPU     85.28s WALL (      11 calls)

     Called by *egterg:
     rdiaghg      :      0.01s CPU      0.03s WALL (      52 calls)
     h_psi        :     69.99s CPU     74.63s WALL (      53 calls)
     s_psi        :      3.86s CPU      3.88s WALL (      53 calls)
     g_psi        :      0.19s CPU      0.19s WALL (      41 calls)

     Called by h_psi:
     h_psi:calbec :      3.34s CPU      3.42s WALL (      53 calls)
     vloc_psi     :     62.36s CPU     66.87s WALL (      53 calls)
     add_vuspsi   :      3.84s CPU      3.86s WALL (      53 calls)

     General routines
     calbec       :      4.20s CPU      4.33s WALL (      64 calls)
     fft          :     19.42s CPU     23.98s WALL (     108 calls)
     ffts         :      1.69s CPU      1.95s WALL (      11 calls)
     fftw         :     56.40s CPU     61.31s WALL (     660 calls)

     Parallel routines

     PWSCF        :   3m24.81s CPU   4m 1.87s WALL


   This run was terminated on:  17:19: 5  12Oct2023            

=------------------------------------------------------------------------------=
   JOB DONE.
=------------------------------------------------------------------------------=
