
     Program PWSCF v.7.2 starts on 12Oct2023 at 17:17:27 

     This program is part of the open-source Quantum ESPRESSO suite
     for quantum simulation of materials; please cite
         "P. Giannozzi et al., J. Phys.:Condens. Matter 21 395502 (2009);
         "P. Giannozzi et al., J. Phys.:Condens. Matter 29 465901 (2017);
         "P. Giannozzi et al., J. Chem. Phys. 152 154105 (2020);
          URL http://www.quantum-espresso.org", 
     in publications or presentations arising from this work. More details at
     http://www.quantum-espresso.org/quote

     Parallel version (MPI), running on    32 processors

     MPI processes distributed on     1 nodes
     485536 MiB available memory on the printing compute node when the environment starts

     Reading input from 39BenzeneCyclopentane100_efficiency_monomer_1.in
Warning: card &CELL ignored
Warning: card / ignored

     Current dimensions of program PWSCF are:
     Max number of different atomic species (ntypx) = 10
     Max number of k-points (npk) =  40000
     Max angular momentum in pseudopotentials (lmaxx) =  4
     file C.pbe-n-kjpaw_psl.1.0.0.UPF: wavefunction(s)  2S 2P renormalized
     file H.pbe-kjpaw_psl.1.0.0.UPF: wavefunction(s)  1S renormalized

     IMPORTANT: XC functional enforced from input :
     Exchange-correlation= PBE
                           (   1   4   3   4   0   0   0)
     Any further DFT definition will be discarded
     Please, verify this is what you really want


     gamma-point specific algorithms are used

     R & G space division:  proc/nbgrp/npool/nimage =      32
     Subspace diagonalization in iterative solution of the eigenvalue problem:
     a serial algorithm will be used


     Parallelization info
     --------------------
     sticks:   dense  smooth     PW     G-vecs:    dense   smooth      PW
     Min        6395    6395   1598              2177048  2177048  272114
     Max        6398    6398   1600              2177062  2177062  272124
     Sum      204693  204693  51189             69665707 69665707 8707803

     Using Slab Decomposition



     bravais-lattice index     =            0
     lattice parameter (alat)  =      66.1404  a.u.
     unit-cell volume          =  289334.8415 (a.u.)^3
     number of atoms/cell      =           12
     number of atomic types    =            2
     number of electrons       =        30.00
     number of Kohn-Sham states=           15
     kinetic-energy cutoff     =     147.0000  Ry
     charge density cutoff     =     588.0000  Ry
     scf convergence threshold =      1.0E-08
     mixing beta               =       0.7000
     number of iterations used =            8  plain     mixing
     Exchange-correlation= PBE
                           (   1   4   3   4   0   0   0)

     celldm(1)=  66.140414  celldm(2)=   0.000000  celldm(3)=   0.000000
     celldm(4)=   0.000000  celldm(5)=   0.000000  celldm(6)=   0.000000

     crystal axes: (cart. coord. in units of alat)
               a(1) = (   1.000000   0.000000   0.000000 )  
               a(2) = (   0.000000   1.000000   0.000000 )  
               a(3) = (   0.000000   0.000000   1.000000 )  

     reciprocal axes: (cart. coord. in units 2 pi/alat)
               b(1) = (  1.000000  0.000000  0.000000 )  
               b(2) = (  0.000000  1.000000  0.000000 )  
               b(3) = (  0.000000  0.000000  1.000000 )  


     PseudoPot. # 1 for C  read from file:
     /home/users/klimj2am/src/pslibrary.1.0.0/pbe/PSEUDOPOTENTIALS/C.pbe-n-kjpaw_psl.1.0.0.UPF
     MD5 check sum: 9d4797b4e2669f30c50dcc814f8da1dd
     Pseudo is Projector augmented-wave + core cor, Zval =  4.0
     Generated using 'atomic' code by A. Dal Corso  v.7.2
     Shape of augmentation charge: PSQ
     Using radial grid of 1073 points,  4 beta functions with: 
                l(1) =   0
                l(2) =   0
                l(3) =   1
                l(4) =   1
     Q(r) pseudized with 0 coefficients 


     PseudoPot. # 2 for H  read from file:
     /home/users/klimj2am/src/pslibrary.1.0.0/pbe/PSEUDOPOTENTIALS/H.pbe-kjpaw_psl.1.0.0.UPF
     MD5 check sum: 220281c0717fd894cece6904c624ceaa
     Pseudo is Projector augmented-wave, Zval =  1.0
     Generated using 'atomic' code by A. Dal Corso  v.7.2
     Shape of augmentation charge: PSQ
     Using radial grid of  929 points,  2 beta functions with: 
                l(1) =   0
                l(2) =   0
     Q(r) pseudized with 0 coefficients 


     atomic species   valence    mass     pseudopotential
        C              4.00    12.01100     C ( 1.00)
        H              1.00     1.00800     H ( 1.00)

     No symmetry found



   Cartesian axes

     site n.     atom                  positions (alat units)
         1           C   tau(   1) = (   0.0218727   0.0248070   0.0234569  )
         2           H   tau(   2) = (   0.0410708   0.0480002   0.0304315  )
         3           C   tau(   3) = (   0.0353615  -0.0126525   0.0226825  )
         4           H   tau(   4) = (   0.0650217  -0.0185297   0.0290775  )
         5           C   tau(   5) = (   0.0106353  -0.0425296   0.0136362  )
         6           H   tau(   6) = (   0.0210911  -0.0716023   0.0130587  )
         7           C   tau(   7) = (  -0.0275695  -0.0349420   0.0053394  )
         8           H   tau(   8) = (  -0.0467560  -0.0581303  -0.0016507  )
         9           C   tau(   9) = (  -0.0410590   0.0025259   0.0060936  )
        10           H   tau(  10) = (  -0.0707053   0.0084086  -0.0003276  )
        11           C   tau(  11) = (  -0.0163402   0.0324007   0.0151661  )
        12           H   tau(  12) = (  -0.0267914   0.0614774   0.0157451  )

     number of k points=     1
                       cart. coord. in units 2pi/alat
        k(    1) = (   0.0000000   0.0000000   0.0000000), wk =   2.0000000

     Dense  grid: 34832854 G-vectors     FFT dimensions: ( 512, 512, 512)

     Estimated max dynamical RAM per process >       1.70 GB

     Estimated total dynamical RAM >      54.52 GB

     Initial potential from superposition of free atoms

     starting charge      29.9997, renormalised to      30.0000

     negative rho (up, down):  4.071E-04 0.000E+00
     Starting wfcs are   30 randomized atomic wfcs
     Checking if some PAW data can be deallocated... 

     total cpu time spent up to now is       34.1 secs

     Self-consistent Calculation

     iteration #  1     ecut=   147.00 Ry     beta= 0.70
     Davidson diagonalization with overlap
     ethr =  1.00E-02,  avg # of iterations =  2.0

     negative rho (up, down):  3.192E-04 0.000E+00

     total cpu time spent up to now is       50.2 secs

     total energy              =    -117.34157570 Ry
     estimated scf accuracy    <       1.40976311 Ry

     iteration #  2     ecut=   147.00 Ry     beta= 0.70
     Davidson diagonalization with overlap
     ethr =  4.70E-03,  avg # of iterations =  2.0

     negative rho (up, down):  3.497E-04 0.000E+00

     total cpu time spent up to now is       65.6 secs

     total energy              =    -117.63373045 Ry
     estimated scf accuracy    <       0.28020609 Ry

     iteration #  3     ecut=   147.00 Ry     beta= 0.70
     Davidson diagonalization with overlap
     ethr =  9.34E-04,  avg # of iterations =  2.0

     negative rho (up, down):  3.637E-04 0.000E+00

     total cpu time spent up to now is       80.2 secs

     total energy              =    -117.68838911 Ry
     estimated scf accuracy    <       0.00903560 Ry

     iteration #  4     ecut=   147.00 Ry     beta= 0.70
     Davidson diagonalization with overlap
     ethr =  3.01E-05,  avg # of iterations =  2.0

     negative rho (up, down):  3.650E-04 0.000E+00

     total cpu time spent up to now is       95.2 secs

     total energy              =    -117.68989626 Ry
     estimated scf accuracy    <       0.00038083 Ry

     iteration #  5     ecut=   147.00 Ry     beta= 0.70
     Davidson diagonalization with overlap
     ethr =  1.27E-06,  avg # of iterations =  3.0

     negative rho (up, down):  3.660E-04 0.000E+00

     total cpu time spent up to now is      110.5 secs

     total energy              =    -117.69001604 Ry
     estimated scf accuracy    <       0.00002096 Ry

     iteration #  6     ecut=   147.00 Ry     beta= 0.70
     Davidson diagonalization with overlap
     ethr =  6.99E-08,  avg # of iterations =  2.0

     negative rho (up, down):  3.661E-04 0.000E+00

     total cpu time spent up to now is      125.4 secs

     total energy              =    -117.69002025 Ry
     estimated scf accuracy    <       0.00000157 Ry

     iteration #  7     ecut=   147.00 Ry     beta= 0.70
     Davidson diagonalization with overlap
     ethr =  5.23E-09,  avg # of iterations =  2.0

     negative rho (up, down):  3.661E-04 0.000E+00

     total cpu time spent up to now is      140.2 secs

     total energy              =    -117.69002031 Ry
     estimated scf accuracy    <       0.00000040 Ry

     iteration #  8     ecut=   147.00 Ry     beta= 0.70
     Davidson diagonalization with overlap
     ethr =  1.32E-09,  avg # of iterations =  2.0

     negative rho (up, down):  3.660E-04 0.000E+00

     total cpu time spent up to now is      155.9 secs

     total energy              =    -117.69002042 Ry
     estimated scf accuracy    <       0.00000003 Ry

     iteration #  9     ecut=   147.00 Ry     beta= 0.70
     Davidson diagonalization with overlap
     ethr =  8.47E-11,  avg # of iterations =  2.0

     negative rho (up, down):  3.660E-04 0.000E+00

     total cpu time spent up to now is      169.4 secs

     End of self-consistent calculation

          k = 0.0000 0.0000 0.0000 (****** PWs)   bands (ev):

   -21.2205 -18.4314 -18.4296 -14.8199 -14.8196 -12.9047 -11.1907 -10.8773
   -10.2148 -10.2122  -9.0639  -8.2065  -8.2061  -6.3217  -6.3202

     highest occupied level (ev):    -6.3202

!    total energy              =    -117.69002042 Ry
     total all-electron energy =      -464.274578 Ry
     estimated scf accuracy    <          5.3E-09 Ry

     The total energy is the sum of the following terms:
     one-electron contribution =    -441.09959527 Ry
     hartree contribution      =     224.33856742 Ry
     xc contribution           =     -31.97468601 Ry
     ewald contribution        =     168.05542758 Ry
     one-center paw contrib.   =     -37.00973413 Ry

     charge density inside the Wigner-Seitz cell:   30.00000000

     reference position (x0):        -0.18842442   -0.33497597    0.95205475 bohr

     Dipole moments (with respect to x0):
     Elect   0.0001  -0.0000  -0.0004 au (Ha),   0.0002  -0.0000  -0.0010 Debye
     Ionic   0.0000   0.0000  -0.0000 au (Ha),   0.0000   0.0000  -0.0000 Debye
     Total   0.0001  -0.0000  -0.0004 au (Ha),   0.0002  -0.0000  -0.0010 Debye

     Electrons quadrupole moment       -374.18213194 a.u. (Ha)
          Ions quadrupole moment        297.82109333 a.u. (Ha)
         Total quadrupole moment        -76.36103860 a.u. (Ha)

     *********    MAKOV-PAYNE CORRECTION    *********

     Makov-Payne correction with Madelung constant =   2.8373

     Makov-Payne correction     0.00000000 Ry =  0.000 eV (1st order, 1/a0)
                                0.00000000 Ry =  0.000 eV (2nd order, 1/a0^3)
                                0.00000000 Ry =  0.000 eV (total)

!    Total+Makov-Payne energy  =    -117.69002042 Ry
     Corrected vacuum level    =       0.01503539 eV

     convergence has been achieved in   9 iterations

     Writing all to output data dir ./pwscf.save/

     init_run     :     30.65s CPU     33.73s WALL (       1 calls)
     electrons    :    117.71s CPU    137.92s WALL (       1 calls)

     Called by init_run:
     wfcinit      :      3.78s CPU      4.41s WALL (       1 calls)
     potinit      :      3.24s CPU      4.37s WALL (       1 calls)
     hinit0       :      1.48s CPU      1.80s WALL (       1 calls)

     Called by electrons:
     c_bands      :     57.09s CPU     60.48s WALL (       9 calls)
     sum_band     :     26.11s CPU     32.34s WALL (       9 calls)
     v_of_rho     :     19.18s CPU     25.65s WALL (      10 calls)
     newd         :     11.13s CPU     15.09s WALL (      10 calls)
     PAW_pot      :      0.17s CPU      0.17s WALL (      10 calls)
     mix_rho      :      4.96s CPU      5.37s WALL (       9 calls)

     Called by c_bands:
     init_us_2    :      0.73s CPU      0.79s WALL (      19 calls)
     init_us_2:cp :      0.73s CPU      0.79s WALL (      19 calls)
     regterg      :     55.77s CPU     59.15s WALL (       9 calls)

     Called by *egterg:
     rdiaghg      :      0.01s CPU      0.02s WALL (      28 calls)
     h_psi        :     49.19s CPU     52.87s WALL (      29 calls)
     s_psi        :      2.66s CPU      2.66s WALL (      29 calls)
     g_psi        :      0.14s CPU      0.14s WALL (      19 calls)

     Called by h_psi:
     h_psi:calbec :      2.15s CPU      2.21s WALL (      29 calls)
     vloc_psi     :     44.01s CPU     47.59s WALL (      29 calls)
     add_vuspsi   :      2.69s CPU      2.70s WALL (      29 calls)

     General routines
     calbec       :      2.91s CPU      2.97s WALL (      38 calls)
     fft          :     15.74s CPU     19.69s WALL (      90 calls)
     ffts         :      1.42s CPU      1.70s WALL (       9 calls)
     fftw         :     39.56s CPU     43.60s WALL (     504 calls)

     Parallel routines

     PWSCF        :   2m30.31s CPU   2m56.25s WALL


   This run was terminated on:  17:20:23  12Oct2023            

=------------------------------------------------------------------------------=
   JOB DONE.
=------------------------------------------------------------------------------=
