
 Primary working directories    : /scratch/sirous/550467/molpro.QSfFiTnOjX
 Secondary working directories  : /scratch/sirous/550467/molpro.QSfFiTnOjX
 Wavefunction directory         : /scratch/sirous/550467/
 Main file repository           : /scratch/sirous/550467/molpro.QSfFiTnOjX/

 id        : karlovklimes

 Nodes                      nprocs
 nc-20.cc.karlov.mff.cuni.cz   12

 Using customized tuning parameters: mindgm=1; mindgv=20; mindgc=4; mindgr=1; noblas=0; minvec=7
 default implementation of scratch files=sf  


 Variables initialized (934), CPU time= 0.01 sec
 ***,CH3C6H4CN+CF3CN+BF3
 memory,500,m
 gdirect
 gthresh,energy=1.d-8,twoint=1.d-19,oneint=1.d-19,zero=1.d-15,orbital=1.d-8,grid=1.d-8
 symmetry,nosym
 geomtyp=xyz
                                                                                 ! Geometry
 geometry={
 C1        -2.018649000    0.052883000     0.000000000
 O1        -1.452200000    1.143634000     0.000000000
 N1        -1.407770000    -1.142484000     0.000000000
 H1        -1.964596000    -1.977036000     0.000000000
 H2        -0.387244000    -1.207782000     0.000000000
 H3        -3.117061000    -0.013701000     0.000000000
 C2        2.018649000    -0.052883000     0.000000000
 O2        1.452200000    -1.143634000     0.000000000
 N2        1.407770000    1.142484000     0.000000000
 H4        1.964596000    1.977036000     0.000000000
 H5        0.387244000    1.207782000     0.000000000
 H6        3.117061000    0.013701000     0.000000000
 }
 
 
 
 basis=av5z
 
 
 
                                                                                 ! Dimer Calculation
 {rhf,accu=1.d-8;orbital,2101.2}
 eab_HF=energy
 
 
                                                                                 !monomer A
 dummy,7,8,9,10,11,12;                                                           ! NOW MONOMER B IS DUMMY
 {rhf,accu=1.d-8;orbital,2201.2}
 ea_HF=energy
                                                                                 !monomer B
 dummy,1,2,3,4,5,6;                                                              !NOW MONOMER A IS DUMMY
 {rhf,accu=1.d-8;orbital,2301.2}
 eb_HF=energy
 
 E_AB_int=eab_HF-ea_HF-eb_HF
 
 
 text,results in hartree
 show,E_AB_int
 
 Commands  initialized (763), CPU time= 0.01 sec, 617 directives.
 Default parameters read. Elapsed time= 0.23 sec

 Checking input...
 Passed
1


                                         ***  PROGRAM SYSTEM MOLPRO  ***
                                       Copyright, TTI GmbH Stuttgart, 2015
                                    Version 2019.2 linked Jun  8 2019 11:26:33


 **********************************************************************************************************************************
 LABEL *   CH3C6H4CN+CF3CN+BF3                                                           
  64 bit mpp version                                                                     DATE: 22-Apr-20          TIME: 17:24:43  
 **********************************************************************************************************************************

 SHA1:             8135a10abc80eafa5b3ae28ffc55be4890dc4c84
 **********************************************************************************************************************************

 THRESHOLDS:

 ZERO    =  1.00D-15  ONEINT  =  1.00D-19  TWOINT  =  1.00D-19  PREFAC  =  1.00D-14  XXXXXX  =  1.00D-09  EORDER  =  1.00D-04
 ENERGY  =  1.00D-08  ETEST   =  0.00D+00  EDENS   =  0.00D+00  THRDEDEF=  1.00D-06  GRADIENT=  1.00D-02  STEP    =  1.00D-03
 ORBITAL =  1.00D-08  CIVEC   =  1.00D-05  COEFF   =  1.00D-04  PRINTCI =  5.00D-02  PUNCHCI =  9.90D+01  OPTGRAD =  3.00D-04
 OPTENERG=  1.00D-06  OPTSTEP =  3.00D-04  THRGRAD =  1.00D-10  COMPRESS=  1.00D-11  VARMIN  =  1.00D-07  VARMAX  =  1.00D-03
 THRDOUB =  0.00D+00  THRDIV  =  1.00D-05  THRRED  =  1.00D-07  THRPSP  =  1.00D+00  THRDC   =  1.00D-10  THRCS   =  1.00D-10
 THRNRM  =  1.00D-08  THREQ   =  0.00D+00  THRDE   =  1.00D+00  THRREF  =  1.00D-05  SPARFAC =  1.00D+00  THRDLP  =  1.00D-07
 THRDIA  =  1.00D-10  THRDLS  =  1.00D-07  THRGPS  =  0.00D+00  THRKEX  =  0.00D+00  THRDIS  =  2.00D-01  THRVAR  =  1.00D-10
 THRLOC  =  1.00D-06  THRGAP  =  1.00D-06  THRLOCT = -1.00D+00  THRGAPT = -1.00D+00  THRORB  =  1.00D-06  THRMLTP =  0.00D+00
 THRCPQCI=  1.00D-10  KEXTA   =  0.00D+00  THRCOARS=  0.00D+00  SYMTOL  =  1.00D-06  GRADTOL =  1.00D-06  THROVL  =  1.00D-08
 THRORTH =  1.00D-08  GRID    =  1.00D-08  GRIDMAX =  1.00D-03  DTMAX   =  0.00D+00  THROCCDE=  1.00D-01  THROCCDE=  1.00D-01
 THRPRINT=  2.50D-01


 Variable memory set to  500000000 words,  buffer space 

 SETTING GEOMTYP        =    XYZ
 ZSYMEL=NOSYM

 SETTING BASIS          =    AV5Z


 Recomputing integrals since basis changed


 Using spherical harmonics

 Library entry C      S aug-cc-pV5Z          selected for orbital group  1
 Library entry C      P aug-cc-pV5Z          selected for orbital group  1
 Library entry C      D aug-cc-pV5Z          selected for orbital group  1
 Library entry C      F aug-cc-pV5Z          selected for orbital group  1
 Library entry C      G aug-cc-pV5Z          selected for orbital group  1
 Library entry C      H aug-cc-pV5Z          selected for orbital group  1
 Library entry O      S aug-cc-pV5Z          selected for orbital group  2
 Library entry O      P aug-cc-pV5Z          selected for orbital group  2
 Library entry O      D aug-cc-pV5Z          selected for orbital group  2
 Library entry O      F aug-cc-pV5Z          selected for orbital group  2
 Library entry O      G aug-cc-pV5Z          selected for orbital group  2
 Library entry O      H aug-cc-pV5Z          selected for orbital group  2
 Library entry N      S aug-cc-pV5Z          selected for orbital group  3
 Library entry N      P aug-cc-pV5Z          selected for orbital group  3
 Library entry N      D aug-cc-pV5Z          selected for orbital group  3
 Library entry N      F aug-cc-pV5Z          selected for orbital group  3
 Library entry N      G aug-cc-pV5Z          selected for orbital group  3
 Library entry N      H aug-cc-pV5Z          selected for orbital group  3
 Library entry H      S aug-cc-pV5Z          selected for orbital group  4
 Library entry H      P aug-cc-pV5Z          selected for orbital group  4
 Library entry H      D aug-cc-pV5Z          selected for orbital group  4
 Library entry H      F aug-cc-pV5Z          selected for orbital group  4
 Library entry H      G aug-cc-pV5Z          selected for orbital group  4


 PROGRAM * SEWARD (Integral evaluation for generally contracted gaussian basis sets)     Author: Roland Lindh, 1990

 Geometry written to block  1 of record 700


 Point group  C1  



 ATOMIC COORDINATES

 NR  ATOM    CHARGE       X              Y              Z

   1  C1      6.00   -3.814693752    0.099934387    0.000000000
   2  O1      8.00   -2.744260278    2.161155047    0.000000000
   3  N1      7.00   -2.660299746   -2.158981862    0.000000000
   4  H1      1.00   -3.712548385   -3.736056578    0.000000000
   5  H2      1.00   -0.731785103   -2.282377198    0.000000000
   6  H3      1.00   -5.890391604   -0.025891138    0.000000000
   7  C2      6.00    3.814693752   -0.099934387    0.000000000
   8  O2      8.00    2.744260278   -2.161155047    0.000000000
   9  N2      7.00    2.660299746    2.158981862    0.000000000
  10  H4      1.00    3.712548385    3.736056578    0.000000000
  11  H5      1.00    0.731785103    2.282377198    0.000000000
  12  H6      1.00    5.890391604    0.025891138    0.000000000

 Bond lengths in Bohr (Angstrom)

 1-2  2.322597346  1-3  2.536794855  1-6  2.079508027  3-4  1.895888146  3-5  1.932458315
     ( 1.229065586)     ( 1.342414026)     ( 1.100428258)     ( 1.003260801)     ( 1.022612901)

  7- 8  2.322597346   7- 9  2.536794855   7-12  2.079508027   9-10  1.895888146   9-11  1.932458315
       ( 1.229065586)       ( 1.342414026)       ( 1.100428258)       ( 1.003260801)       ( 1.022612901)

 Bond angles

  1-3-4  119.21937090   1-3-5  120.72985805   2-1-3  125.48743910   2-1-6  120.91269739

  3- 1- 6  113.59986350   4- 3- 5  120.05077105   7- 9-10  119.21937090   7- 9-11  120.72985805

  8- 7- 9  125.48743910   8- 7-12  120.91269739   9- 7-12  113.59986350  10- 9-11  120.05077105

 NUCLEAR CHARGE:                   48
 NUMBER OF PRIMITIVE AOS:        1842
 NUMBER OF SYMMETRY AOS:         1362
 NUMBER OF CONTRACTIONS:         1242   ( 1242A   )
 NUMBER OF CORE ORBITALS:           6   (    6A   )
 NUMBER OF VALENCE ORBITALS:       30   (   30A   )


 NUCLEAR REPULSION ENERGY  230.79485622

 EXTRA SYMMETRY OF AOS IN SYMMETRY 1:   1 1 1 1 1 1 1 1 1 2   1 1 2 1 1 2 1 1 2 1   1 2 1 1 2 1 1 2 1 2   1 1 2 1 2 1 1 2 1 2
                                        1 1 2 1 2 1 1 2 1 2   1 1 2 1 2 1 2 1 1 2   1 2 1 2 1 1 2 1 2 1   2 1 1 2 1 2 1 2 1 1
                                        2 1 2 1 1 2 2 1 1 2   1 2 1 1 2 2 1 1 2 1   2 1 1 2 2 1 1 2 1 2   1 2 1 2 1 2 1 1 2 1
                                        2 1 2 1 2 1 2 1 1 1   1 1 1 1 1 1 2 1 1 2   1 1 2 1 1 2 1 1 2 1   1 2 1 1 2 1 2 1 1 2
                                        1 2 1 1 2 1 2 1 1 2   1 2 1 1 2 1 2 1 1 2   1 2 1 2 1 1 2 1 2 1   2 1 1 2 1 2 1 2 1 1
                                        2 1 2 1 2 1 1 2 1 2   1 1 2 2 1 1 2 1 2 1   1 2 2 1 1 2 1 2 1 1   2 2 1 1 2 1 2 1 2 1
                                        2 1 2 1 1 2 1 2 1 2   1 2 1 2 1 1 1 1 1 1   1 1 1 2 1 1 2 1 1 2   1 1 2 1 1 2 1 1 2 1
                                        1 2 1 2 1 1 2 1 2 1   1 2 1 2 1 1 2 1 2 1   1 2 1 2 1 1 2 1 2 1   2 1 1 2 1 2 1 2 1 1
                                        2 1 2 1 2 1 1 2 1 2   1 2 1 1 2 1 2 1 1 2   2 1 1 2 1 2 1 1 2 2   1 1 2 1 2 1 1 2 2 1
                                        1 2 1 2 1 2 1 2 1 2   1 1 2 1 2 1 2 1 2 1   2 1 1 1 1 1 1 1 1 2   1 1 2 1 1 2 1 1 2 1
                                        1 2 1 1 2 1 2 1 1 2   1 2 1 1 2 1 2 1 1 2   1 2 1 1 2 1 2 1 2 1   1 2 1 2 1 2 1 1 2 1
                                        2 1 2 1 1 2 1 2 1 1   2 2 1 1 2 1 2 1 1 2   2 1 1 1 1 1 1 1 1 2   1 1 2 1 1 2 1 1 2 1
                                        1 2 1 1 2 1 2 1 1 2   1 2 1 1 2 1 2 1 1 2   1 2 1 1 2 1 2 1 2 1   1 2 1 2 1 2 1 1 2 1
                                        2 1 2 1 1 2 1 2 1 1   2 2 1 1 2 1 2 1 1 2   2 1 1 1 1 1 1 1 1 2   1 1 2 1 1 2 1 1 2 1
                                        1 2 1 1 2 1 2 1 1 2   1 2 1 1 2 1 2 1 1 2   1 2 1 1 2 1 2 1 2 1   1 2 1 2 1 2 1 1 2 1
                                        2 1 2 1 1 2 1 2 1 1   2 2 1 1 2 1 2 1 1 2   2 1 1 1 1 1 1 1 1 1   2 1 1 2 1 1 2 1 1 2
                                        1 1 2 1 1 2 1 1 2 1   2 1 1 2 1 2 1 1 2 1   2 1 1 2 1 2 1 1 2 1   2 1 1 2 1 2 1 2 1 1
                                        2 1 2 1 2 1 1 2 1 2   1 2 1 1 2 1 2 1 2 1   1 2 1 2 1 1 2 2 1 1   2 1 2 1 1 2 2 1 1 2
                                        1 2 1 1 2 2 1 1 2 1   2 1 2 1 2 1 2 1 1 2   1 2 1 2 1 2 1 2 1 1   1 1 1 1 1 1 1 2 1 1
                                        2 1 1 2 1 1 2 1 1 2   1 1 2 1 1 2 1 2 1 1   2 1 2 1 1 2 1 2 1 1   2 1 2 1 1 2 1 2 1 1
                                        2 1 2 1 2 1 1 2 1 2   1 2 1 1 2 1 2 1 2 1   1 2 1 2 1 2 1 1 2 1   2 1 1 2 2 1 1 2 1 2
                                        1 1 2 2 1 1 2 1 2 1   1 2 2 1 1 2 1 2 1 2   1 2 1 2 1 1 2 1 2 1   2 1 2 1 2 1 1 1 1 1
                                        1 1 1 1 2 1 1 2 1 1   2 1 1 2 1 1 2 1 1 2   1 1 2 1 2 1 1 2 1 2   1 1 2 1 2 1 1 2 1 2
                                        1 1 2 1 2 1 1 2 1 2   1 2 1 1 2 1 2 1 2 1   1 2 1 2 1 2 1 1 2 1   2 1 2 1 1 2 1 2 1 1
                                        2 2 1 1 2 1 2 1 1 2   2 1 1 2 1 2 1 1 2 2   1 1 2 1 2 1 2 1 2 1   2 1 1 2 1 2 1 2 1 2
                                        1 2 1 1 1 1 1 1 1 1   2 1 1 2 1 1 2 1 1 2   1 1 2 1 1 2 1 2 1 1   2 1 2 1 1 2 1 2 1 1
                                        2 1 2 1 1 2 1 2 1 2   1 1 2 1 2 1 2 1 1 2   1 2 1 2 1 1 2 1 2 1   1 2 2 1 1 2 1 2 1 1
                                        2 2 1 1 1 1 1 1 1 1   2 1 1 2 1 1 2 1 1 2   1 1 2 1 1 2 1 2 1 1   2 1 2 1 1 2 1 2 1 1
                                        2 1 2 1 1 2 1 2 1 2   1 1 2 1 2 1 2 1 1 2   1 2 1 2 1 1 2 1 2 1   1 2 2 1 1 2 1 2 1 1
                                        2 2 1 1 1 1 1 1 1 1   2 1 1 2 1 1 2 1 1 2   1 1 2 1 1 2 1 2 1 1   2 1 2 1 1 2 1 2 1 1
                                        2 1 2 1 1 2 1 2 1 2   1 1 2 1 2 1 2 1 1 2   1 2 1 2 1 1 2 1 2 1   1 2 2 1 1 2 1 2 1 1
                                        2 2

 Eigenvalues of metric

         1 0.620E-06 0.111E-05 0.123E-05 0.143E-05 0.154E-05 0.155E-05 0.205E-05 0.212E-05


 OPERATOR DM      FOR CENTER  0  COORDINATES:    0.000000    0.000000    0.000000


 **********************************************************************************************************************************
 DATASETS  * FILE   NREC   LENGTH (MB)   RECORD NAMES
              1      18       86.16       500      610      700      900      950      970     1000      129      960     1100   
                                          VAR    BASINP    GEOM    SYMINP    ZMAT    AOBASIS   BASIS     P2S    ABASIS      S 
                                         1400     1410     1200     1210     1080     1600     1650     1700   
                                           T        V       H0       H01     AOSYM     SMH    MOLCAS    OPER   

 PROGRAMS   *        TOTAL       INT
 CPU TIMES  *         3.35      3.15
 REAL TIME  *         5.05 SEC
 DISK USED  *        87.07 MB (local),        1.04 GB (total)
 GA USED    *         0.00 MB       (max)       0.00 MB       (current)
 **********************************************************************************************************************************


 PROGRAM * RHF-SCF (CLOSED SHELL)       Authors: W. Meyer, H.-J. Werner


 NUMBER OF ELECTRONS:      24+   24-    SPACE SYMMETRY=1    SPIN SYMMETRY: Singlet 
 CONVERGENCE THRESHOLDS:    1.00E-04 (Density)    1.00E-09 (Energy)
 INTEGRAL THRESHOLDS:       1.00E-13 (Initial)    1.00E-13 (Final)
 MAX. NUMBER OF ITERATIONS:       60
 INTERPOLATION TYPE:            DIIS
 INTERPOLATION STEPS:              2 (START)      1 (STEP)
 LEVEL SHIFTS:                  0.00 (CLOSED)  0.00 (OPEN) 



 Orbital guess generated from atomic densities. Full valence occupancy:   36

 Molecular orbital dump at record        2101.2

 Initial occupancy:  24

 Direct Fock-matrix evaluation.        Authors: Roland Lindh & Martin Schuetz (1993/96)

 Integral Threshold:                  0.1D-12
 Threshold for writing integrals:     0.1D-06
 Prescreening on density matrix:        ON 
 Calculation will be performed fully direct        

 ITERATION   DDIFF            GRAD            ENERGY        2-EL.EN.            DIPOLE MOMENTS         DIIS   CPU(IT)  CPU(TOT)
    1      0.000D+00      0.000D+00      -337.90928247    706.052553    0.00000   -0.00000   -0.00000    0   3156.1   3188.2     start
    2      0.000D+00      0.234D-02      -337.98813142    699.947844    0.00000   -0.00000    0.00000    1   3059.9   6248.1     diag
    3      0.142D-02      0.175D-02      -338.04890202    702.856124    0.00000   -0.00000   -0.00000    2   2923.9   9172.0     diag
    4      0.631D-03      0.222D-03      -338.05111617    702.837870   -0.00000   -0.00000    0.00000    3   2832.3  12004.3     diag
    5      0.128D-03      0.788D-04      -338.05140376    702.751240   -0.00000   -0.00000    0.00000    4   2656.6  14660.9     diag
    6      0.486D-04      0.267D-04      -338.05146987    702.774270   -0.00000   -0.00000    0.00000    5   2555.8  17216.7     diag
    7      0.225D-04      0.121D-04      -338.05148281    702.768378   -0.00000   -0.00000    0.00000    6   2466.8  19683.5     diag
    8      0.116D-04      0.366D-05      -338.05148402    702.771456   -0.00000    0.00000    0.00000    7   2310.6  21994.1     diag
    9      0.390D-05      0.893D-06      -338.05148410    702.769863   -0.00000    0.00000    0.00000    8   2122.2  24116.4     diag
   10      0.920D-06      0.307D-06      -338.05148410    702.770671   -0.00000    0.00000   -0.00000    9   1932.6  26049.0     orth
   11      0.271D-06      0.919D-07      -338.05148411    702.770528   -0.00000    0.00000   -0.00000    9   1831.4  27880.4     diag
   12      0.926D-07      0.156D-07      -338.05148411    702.770558   -0.00000   -0.00000   -0.00000    0   1518.1  29398.5     orth

 Final occupancy:  24

 !RHF STATE  1.1 Energy              -338.051484105172
 Nuclear energy                       230.79485622
 One-electron energy                 -920.23161946
 Two-electron energy                  351.38527913
 Virial quotient                       -1.00133855
 !RHF STATE  1.1 Dipole moment         -0.00000000    -0.00000000    -0.00000000
 Dipole moment /Debye                  -0.00000000    -0.00000000    -0.00000000

 Orbital energies:

         1.1          2.1          3.1          4.1          5.1          6.1          7.1          8.1          9.1         10.1
    -20.527760   -20.527760   -15.578879   -15.578879   -11.356682   -11.356682    -1.385392    -1.380567    -1.216539    -1.210436

        11.1         12.1         13.1         14.1         15.1         16.1         17.1         18.1         19.1         20.1
     -0.859822    -0.834411    -0.749908    -0.740182    -0.705915    -0.644969    -0.618789    -0.594407    -0.575190    -0.567026

        21.1         22.1         23.1         24.1         25.1         26.1
     -0.455809    -0.429969    -0.422534    -0.412022     0.020316     0.023436


 HOMO     24.1    -0.412022 =     -11.2117eV
 LUMO     25.1     0.020316 =       0.5528eV
 LUMO-HOMO         0.432338 =      11.7645eV


 **********************************************************************************************************************************
 DATASETS  * FILE   NREC   LENGTH (MB)   RECORD NAMES
              1      18       86.16       500      610      700      900      950      970     1000      129      960     1100   
                                          VAR    BASINP    GEOM    SYMINP    ZMAT    AOBASIS   BASIS     P2S    ABASIS      S 
                                         1400     1410     1200     1210     1080     1600     1650     1700   
                                           T        V       H0       H01     AOSYM     SMH    MOLCAS    OPER   

              2       4       34.06       700     1000      520     2101   
                                         GEOM     BASIS   MCVARS     RHF  

 PROGRAMS   *        TOTAL   RHF-SCF       INT
 CPU TIMES  *     29404.07  29400.69      3.15
 REAL TIME  *     29584.34 SEC
 DISK USED  *       231.64 MB (local),        2.78 GB (total)
 SF USED    *        18.53 MB
 GA USED    *         0.01 MB       (max)       0.00 MB       (current)
 **********************************************************************************************************************************
 SETTING EAB_HF         =      -338.05148411  AU                              

 Dummy atoms: C2  O2  N2  H4  H5  H6


 Recomputing one-electron integrals since nuclear charges changed


 PROGRAM * SEWARD (Integral evaluation for generally contracted gaussian basis sets)     Author: Roland Lindh, 1990

 Geometry written to block  1 of record 700


 Point group  C1  



 ATOMIC COORDINATES

 NR  ATOM    CHARGE       X              Y              Z

   1  C1      6.00   -3.814693752    0.099934387    0.000000000
   2  O1      8.00   -2.744260278    2.161155047    0.000000000
   3  N1      7.00   -2.660299746   -2.158981862    0.000000000
   4  H1      1.00   -3.712548385   -3.736056578    0.000000000
   5  H2      1.00   -0.731785103   -2.282377198    0.000000000
   6  H3      1.00   -5.890391604   -0.025891138    0.000000000
   7  C2      0.00    3.814693752   -0.099934387    0.000000000
   8  O2      0.00    2.744260278   -2.161155047    0.000000000
   9  N2      0.00    2.660299746    2.158981862    0.000000000
  10  H4      0.00    3.712548385    3.736056578    0.000000000
  11  H5      0.00    0.731785103    2.282377198    0.000000000
  12  H6      0.00    5.890391604    0.025891138    0.000000000

 Bond lengths in Bohr (Angstrom)

 1-2  2.322597346  1-3  2.536794855  1-6  2.079508027  3-4  1.895888146  3-5  1.932458315
     ( 1.229065586)     ( 1.342414026)     ( 1.100428258)     ( 1.003260801)     ( 1.022612901)

  7- 8  2.322597346   7- 9  2.536794855   7-12  2.079508027   9-10  1.895888146   9-11  1.932458315
       ( 1.229065586)       ( 1.342414026)       ( 1.100428258)       ( 1.003260801)       ( 1.022612901)

 Bond angles

  1-3-4  119.21937090   1-3-5  120.72985805   2-1-3  125.48743910   2-1-6  120.91269739

  3- 1- 6  113.59986350   4- 3- 5  120.05077105   7- 9-10  119.21937090   7- 9-11  120.72985805

  8- 7- 9  125.48743910   8- 7-12  120.91269739   9- 7-12  113.59986350  10- 9-11  120.05077105

 NUCLEAR CHARGE:                   24
 NUMBER OF PRIMITIVE AOS:        1842
 NUMBER OF SYMMETRY AOS:         1362
 NUMBER OF CONTRACTIONS:         1242   ( 1242A   )
 NUMBER OF CORE ORBITALS:           3   (    3A   )
 NUMBER OF VALENCE ORBITALS:       15   (   15A   )

 MOLECULE CHANGED: INITIALIZING OCCUPATION AND DUMP RECORDS


 NUCLEAR REPULSION ENERGY   71.07286406

 EXTRA SYMMETRY OF AOS IN SYMMETRY 1:   1 1 1 1 1 1 1 1 1 2   1 1 2 1 1 2 1 1 2 1   1 2 1 1 2 1 1 2 1 2   1 1 2 1 2 1 1 2 1 2
                                        1 1 2 1 2 1 1 2 1 2   1 1 2 1 2 1 2 1 1 2   1 2 1 2 1 1 2 1 2 1   2 1 1 2 1 2 1 2 1 1
                                        2 1 2 1 1 2 2 1 1 2   1 2 1 1 2 2 1 1 2 1   2 1 1 2 2 1 1 2 1 2   1 2 1 2 1 2 1 1 2 1
                                        2 1 2 1 2 1 2 1 1 1   1 1 1 1 1 1 2 1 1 2   1 1 2 1 1 2 1 1 2 1   1 2 1 1 2 1 2 1 1 2
                                        1 2 1 1 2 1 2 1 1 2   1 2 1 1 2 1 2 1 1 2   1 2 1 2 1 1 2 1 2 1   2 1 1 2 1 2 1 2 1 1
                                        2 1 2 1 2 1 1 2 1 2   1 1 2 2 1 1 2 1 2 1   1 2 2 1 1 2 1 2 1 1   2 2 1 1 2 1 2 1 2 1
                                        2 1 2 1 1 2 1 2 1 2   1 2 1 2 1 1 1 1 1 1   1 1 1 2 1 1 2 1 1 2   1 1 2 1 1 2 1 1 2 1
                                        1 2 1 2 1 1 2 1 2 1   1 2 1 2 1 1 2 1 2 1   1 2 1 2 1 1 2 1 2 1   2 1 1 2 1 2 1 2 1 1
                                        2 1 2 1 2 1 1 2 1 2   1 2 1 1 2 1 2 1 1 2   2 1 1 2 1 2 1 1 2 2   1 1 2 1 2 1 1 2 2 1
                                        1 2 1 2 1 2 1 2 1 2   1 1 2 1 2 1 2 1 2 1   2 1 1 1 1 1 1 1 1 2   1 1 2 1 1 2 1 1 2 1
                                        1 2 1 1 2 1 2 1 1 2   1 2 1 1 2 1 2 1 1 2   1 2 1 1 2 1 2 1 2 1   1 2 1 2 1 2 1 1 2 1
                                        2 1 2 1 1 2 1 2 1 1   2 2 1 1 2 1 2 1 1 2   2 1 1 1 1 1 1 1 1 2   1 1 2 1 1 2 1 1 2 1
                                        1 2 1 1 2 1 2 1 1 2   1 2 1 1 2 1 2 1 1 2   1 2 1 1 2 1 2 1 2 1   1 2 1 2 1 2 1 1 2 1
                                        2 1 2 1 1 2 1 2 1 1   2 2 1 1 2 1 2 1 1 2   2 1 1 1 1 1 1 1 1 2   1 1 2 1 1 2 1 1 2 1
                                        1 2 1 1 2 1 2 1 1 2   1 2 1 1 2 1 2 1 1 2   1 2 1 1 2 1 2 1 2 1   1 2 1 2 1 2 1 1 2 1
                                        2 1 2 1 1 2 1 2 1 1   2 2 1 1 2 1 2 1 1 2   2 1 1 1 1 1 1 1 1 1   2 1 1 2 1 1 2 1 1 2
                                        1 1 2 1 1 2 1 1 2 1   2 1 1 2 1 2 1 1 2 1   2 1 1 2 1 2 1 1 2 1   2 1 1 2 1 2 1 2 1 1
                                        2 1 2 1 2 1 1 2 1 2   1 2 1 1 2 1 2 1 2 1   1 2 1 2 1 1 2 2 1 1   2 1 2 1 1 2 2 1 1 2
                                        1 2 1 1 2 2 1 1 2 1   2 1 2 1 2 1 2 1 1 2   1 2 1 2 1 2 1 2 1 1   1 1 1 1 1 1 1 2 1 1
                                        2 1 1 2 1 1 2 1 1 2   1 1 2 1 1 2 1 2 1 1   2 1 2 1 1 2 1 2 1 1   2 1 2 1 1 2 1 2 1 1
                                        2 1 2 1 2 1 1 2 1 2   1 2 1 1 2 1 2 1 2 1   1 2 1 2 1 2 1 1 2 1   2 1 1 2 2 1 1 2 1 2
                                        1 1 2 2 1 1 2 1 2 1   1 2 2 1 1 2 1 2 1 2   1 2 1 2 1 1 2 1 2 1   2 1 2 1 2 1 1 1 1 1
                                        1 1 1 1 2 1 1 2 1 1   2 1 1 2 1 1 2 1 1 2   1 1 2 1 2 1 1 2 1 2   1 1 2 1 2 1 1 2 1 2
                                        1 1 2 1 2 1 1 2 1 2   1 2 1 1 2 1 2 1 2 1   1 2 1 2 1 2 1 1 2 1   2 1 2 1 1 2 1 2 1 1
                                        2 2 1 1 2 1 2 1 1 2   2 1 1 2 1 2 1 1 2 2   1 1 2 1 2 1 2 1 2 1   2 1 1 2 1 2 1 2 1 2
                                        1 2 1 1 1 1 1 1 1 1   2 1 1 2 1 1 2 1 1 2   1 1 2 1 1 2 1 2 1 1   2 1 2 1 1 2 1 2 1 1
                                        2 1 2 1 1 2 1 2 1 2   1 1 2 1 2 1 2 1 1 2   1 2 1 2 1 1 2 1 2 1   1 2 2 1 1 2 1 2 1 1
                                        2 2 1 1 1 1 1 1 1 1   2 1 1 2 1 1 2 1 1 2   1 1 2 1 1 2 1 2 1 1   2 1 2 1 1 2 1 2 1 1
                                        2 1 2 1 1 2 1 2 1 2   1 1 2 1 2 1 2 1 1 2   1 2 1 2 1 1 2 1 2 1   1 2 2 1 1 2 1 2 1 1
                                        2 2 1 1 1 1 1 1 1 1   2 1 1 2 1 1 2 1 1 2   1 1 2 1 1 2 1 2 1 1   2 1 2 1 1 2 1 2 1 1
                                        2 1 2 1 1 2 1 2 1 2   1 1 2 1 2 1 2 1 1 2   1 2 1 2 1 1 2 1 2 1   1 2 2 1 1 2 1 2 1 1
                                        2 2

 Eigenvalues of metric

         1 0.620E-06 0.111E-05 0.123E-05 0.143E-05 0.154E-05 0.155E-05 0.205E-05 0.212E-05


 OPERATOR DM      FOR CENTER  0  COORDINATES:    0.000000    0.000000    0.000000


 **********************************************************************************************************************************
 DATASETS  * FILE   NREC   LENGTH (MB)   RECORD NAMES
              1      18       86.16       500      610      700      900      950      970     1000      129      960     1100   
                                          VAR    BASINP    GEOM    SYMINP    ZMAT    AOBASIS   BASIS     P2S    ABASIS      S 
                                         1400     1410     1200     1210     1080     1600     1650     1700   
                                           T        V       H0       H01     AOSYM     SMH    MOLCAS    OPER   

              2       4       34.06       700     1000      520     2101   
                                         GEOM     BASIS   MCVARS     RHF  

 PROGRAMS   *        TOTAL       INT   RHF-SCF       INT
 CPU TIMES  *     29406.67      2.59  29400.69      3.15
 REAL TIME  *     29587.20 SEC
 DISK USED  *       231.64 MB (local),        2.78 GB (total)
 SF USED    *        18.53 MB
 GA USED    *         0.01 MB       (max)       0.00 MB       (current)
 **********************************************************************************************************************************


 PROGRAM * RHF-SCF (CLOSED SHELL)       Authors: W. Meyer, H.-J. Werner


 NUMBER OF ELECTRONS:      12+   12-    SPACE SYMMETRY=1    SPIN SYMMETRY: Singlet 
 CONVERGENCE THRESHOLDS:    1.00E-04 (Density)    1.00E-09 (Energy)
 INTEGRAL THRESHOLDS:       1.00E-13 (Initial)    1.00E-13 (Final)
 MAX. NUMBER OF ITERATIONS:       60
 INTERPOLATION TYPE:            DIIS
 INTERPOLATION STEPS:              2 (START)      1 (STEP)
 LEVEL SHIFTS:                  0.00 (CLOSED)  0.00 (OPEN) 



 Orbital guess generated from atomic densities. Full valence occupancy:   18

 Molecular orbital dump at record        2201.2

 Initial occupancy:  12

 Direct Fock-matrix evaluation.        Authors: Roland Lindh & Martin Schuetz (1993/96)

 Integral Threshold:                  0.1D-12
 Threshold for writing integrals:     0.1D-06
 Prescreening on density matrix:        ON 
 Calculation will be performed fully direct        

 ITERATION   DDIFF            GRAD            ENERGY        2-EL.EN.            DIPOLE MOMENTS         DIIS   CPU(IT)  CPU(TOT)
    1      0.000D+00      0.000D+00      -168.92640985    264.394105   -0.46938   -2.81732   -0.00000    0   3047.0   3070.2     start
    2      0.000D+00      0.253D-02      -168.96990165    261.078393   -0.11317   -1.34892   -0.00000    1   2979.7   6049.9     diag
    3      0.112D-02      0.210D-02      -169.01450700    262.574975   -0.35079   -1.81656    0.00000    2   2861.7   8911.7     diag
    4      0.518D-03      0.218D-03      -169.01579996    262.625412   -0.36642   -1.74817   -0.00000    3   2723.0  11634.7     diag
    5      0.941D-04      0.781D-04      -169.01598237    262.562797   -0.36875   -1.73579    0.00000    4   2558.2  14192.9     diag
    6      0.380D-04      0.297D-04      -169.01602126    262.584520   -0.37207   -1.72451    0.00000    5   2424.4  16617.3     diag
    7      0.176D-04      0.140D-04      -169.01602911    262.581096   -0.37221   -1.72105    0.00000    6   2344.0  18961.3     diag
    8      0.901D-05      0.448D-05      -169.01602990    262.581494   -0.37216   -1.71989    0.00000    7   2193.9  21155.2     diag
    9      0.309D-05      0.105D-05      -169.01602995    262.582039   -0.37202   -1.71960    0.00000    8   1972.0  23127.2     diag
   10      0.825D-06      0.309D-06      -169.01602995    262.581719   -0.37201   -1.71954    0.00000    9   1754.3  24881.6     orth
   11      0.214D-06      0.790D-07      -169.01602995    262.581828   -0.37201   -1.71954   -0.00000    9   1548.7  26430.3     diag
   12      0.484D-07      0.165D-07      -169.01602995    262.581822   -0.37201   -1.71954   -0.00000    0   1277.5  27707.8     orth

 Final occupancy:  12

 !RHF STATE  1.1 Energy              -169.016029953949
 Nuclear energy                        71.07286406
 One-electron energy                 -371.37980478
 Two-electron energy                  131.29091076
 Virial quotient                       -1.00166336
 !RHF STATE  1.1 Dipole moment         -0.37200880    -1.71953691    -0.00000000
 Dipole moment /Debye                  -0.94549013    -4.37034061    -0.00000000

 Orbital energies:

         1.1          2.1          3.1          4.1          5.1          6.1          7.1          8.1          9.1         10.1
    -20.523536   -15.600487   -11.355735    -1.374766    -1.226254    -0.854097    -0.755428    -0.677313    -0.602481    -0.571524

        11.1         12.1         13.1         14.1
     -0.435179    -0.422192     0.013067     0.023176


 HOMO     12.1    -0.422192 =     -11.4884eV
 LUMO     13.1     0.013067 =       0.3556eV
 LUMO-HOMO         0.435259 =      11.8440eV


 **********************************************************************************************************************************
 DATASETS  * FILE   NREC   LENGTH (MB)   RECORD NAMES
              1      18       86.16       500      610      700      900      950      970     1000      129      960     1100   
                                          VAR    BASINP    GEOM    SYMINP    ZMAT    AOBASIS   BASIS     P2S    ABASIS      S 
                                         1400     1410     1200     1210     1080     1600     1650     1700   
                                           T        V       H0       H01     AOSYM     SMH    MOLCAS    OPER   

              2       5       98.32       700     1000      520     2101     2201   
                                         GEOM     BASIS   MCVARS     RHF      RHF  

 PROGRAMS   *        TOTAL   RHF-SCF       INT   RHF-SCF       INT
 CPU TIMES  *     57116.70  27710.02      2.59  29400.69      3.15
 REAL TIME  *     57474.14 SEC
 DISK USED  *       295.90 MB (local),        3.55 GB (total)
 SF USED    *        18.53 MB
 GA USED    *         0.01 MB       (max)       0.00 MB       (current)
 **********************************************************************************************************************************
 SETTING EA_HF          =      -169.01602995  AU                              

 Dummy atoms: C1  O1  N1  H1  H2  H3


 Recomputing one-electron integrals since nuclear charges changed


 PROGRAM * SEWARD (Integral evaluation for generally contracted gaussian basis sets)     Author: Roland Lindh, 1990

 Geometry written to block  1 of record 700


 Point group  C1  



 ATOMIC COORDINATES

 NR  ATOM    CHARGE       X              Y              Z

   1  C1      0.00   -3.814693752    0.099934387    0.000000000
   2  O1      0.00   -2.744260278    2.161155047    0.000000000
   3  N1      0.00   -2.660299746   -2.158981862    0.000000000
   4  H1      0.00   -3.712548385   -3.736056578    0.000000000
   5  H2      0.00   -0.731785103   -2.282377198    0.000000000
   6  H3      0.00   -5.890391604   -0.025891138    0.000000000
   7  C2      6.00    3.814693752   -0.099934387    0.000000000
   8  O2      8.00    2.744260278   -2.161155047    0.000000000
   9  N2      7.00    2.660299746    2.158981862    0.000000000
  10  H4      1.00    3.712548385    3.736056578    0.000000000
  11  H5      1.00    0.731785103    2.282377198    0.000000000
  12  H6      1.00    5.890391604    0.025891138    0.000000000

 Bond lengths in Bohr (Angstrom)

 1-2  2.322597346  1-3  2.536794855  1-6  2.079508027  3-4  1.895888146  3-5  1.932458315
     ( 1.229065586)     ( 1.342414026)     ( 1.100428258)     ( 1.003260801)     ( 1.022612901)

  7- 8  2.322597346   7- 9  2.536794855   7-12  2.079508027   9-10  1.895888146   9-11  1.932458315
       ( 1.229065586)       ( 1.342414026)       ( 1.100428258)       ( 1.003260801)       ( 1.022612901)

 Bond angles

  1-3-4  119.21937090   1-3-5  120.72985805   2-1-3  125.48743910   2-1-6  120.91269739

  3- 1- 6  113.59986350   4- 3- 5  120.05077105   7- 9-10  119.21937090   7- 9-11  120.72985805

  8- 7- 9  125.48743910   8- 7-12  120.91269739   9- 7-12  113.59986350  10- 9-11  120.05077105

 NUCLEAR CHARGE:                   24
 NUMBER OF PRIMITIVE AOS:        1842
 NUMBER OF SYMMETRY AOS:         1362
 NUMBER OF CONTRACTIONS:         1242   ( 1242A   )
 NUMBER OF CORE ORBITALS:           3   (    3A   )
 NUMBER OF VALENCE ORBITALS:       15   (   15A   )

 MOLECULE CHANGED: INITIALIZING OCCUPATION AND DUMP RECORDS


 NUCLEAR REPULSION ENERGY   71.07286406

 EXTRA SYMMETRY OF AOS IN SYMMETRY 1:   1 1 1 1 1 1 1 1 1 2   1 1 2 1 1 2 1 1 2 1   1 2 1 1 2 1 1 2 1 2   1 1 2 1 2 1 1 2 1 2
                                        1 1 2 1 2 1 1 2 1 2   1 1 2 1 2 1 2 1 1 2   1 2 1 2 1 1 2 1 2 1   2 1 1 2 1 2 1 2 1 1
                                        2 1 2 1 1 2 2 1 1 2   1 2 1 1 2 2 1 1 2 1   2 1 1 2 2 1 1 2 1 2   1 2 1 2 1 2 1 1 2 1
                                        2 1 2 1 2 1 2 1 1 1   1 1 1 1 1 1 2 1 1 2   1 1 2 1 1 2 1 1 2 1   1 2 1 1 2 1 2 1 1 2
                                        1 2 1 1 2 1 2 1 1 2   1 2 1 1 2 1 2 1 1 2   1 2 1 2 1 1 2 1 2 1   2 1 1 2 1 2 1 2 1 1
                                        2 1 2 1 2 1 1 2 1 2   1 1 2 2 1 1 2 1 2 1   1 2 2 1 1 2 1 2 1 1   2 2 1 1 2 1 2 1 2 1
                                        2 1 2 1 1 2 1 2 1 2   1 2 1 2 1 1 1 1 1 1   1 1 1 2 1 1 2 1 1 2   1 1 2 1 1 2 1 1 2 1
                                        1 2 1 2 1 1 2 1 2 1   1 2 1 2 1 1 2 1 2 1   1 2 1 2 1 1 2 1 2 1   2 1 1 2 1 2 1 2 1 1
                                        2 1 2 1 2 1 1 2 1 2   1 2 1 1 2 1 2 1 1 2   2 1 1 2 1 2 1 1 2 2   1 1 2 1 2 1 1 2 2 1
                                        1 2 1 2 1 2 1 2 1 2   1 1 2 1 2 1 2 1 2 1   2 1 1 1 1 1 1 1 1 2   1 1 2 1 1 2 1 1 2 1
                                        1 2 1 1 2 1 2 1 1 2   1 2 1 1 2 1 2 1 1 2   1 2 1 1 2 1 2 1 2 1   1 2 1 2 1 2 1 1 2 1
                                        2 1 2 1 1 2 1 2 1 1   2 2 1 1 2 1 2 1 1 2   2 1 1 1 1 1 1 1 1 2   1 1 2 1 1 2 1 1 2 1
                                        1 2 1 1 2 1 2 1 1 2   1 2 1 1 2 1 2 1 1 2   1 2 1 1 2 1 2 1 2 1   1 2 1 2 1 2 1 1 2 1
                                        2 1 2 1 1 2 1 2 1 1   2 2 1 1 2 1 2 1 1 2   2 1 1 1 1 1 1 1 1 2   1 1 2 1 1 2 1 1 2 1
                                        1 2 1 1 2 1 2 1 1 2   1 2 1 1 2 1 2 1 1 2   1 2 1 1 2 1 2 1 2 1   1 2 1 2 1 2 1 1 2 1
                                        2 1 2 1 1 2 1 2 1 1   2 2 1 1 2 1 2 1 1 2   2 1 1 1 1 1 1 1 1 1   2 1 1 2 1 1 2 1 1 2
                                        1 1 2 1 1 2 1 1 2 1   2 1 1 2 1 2 1 1 2 1   2 1 1 2 1 2 1 1 2 1   2 1 1 2 1 2 1 2 1 1
                                        2 1 2 1 2 1 1 2 1 2   1 2 1 1 2 1 2 1 2 1   1 2 1 2 1 1 2 2 1 1   2 1 2 1 1 2 2 1 1 2
                                        1 2 1 1 2 2 1 1 2 1   2 1 2 1 2 1 2 1 1 2   1 2 1 2 1 2 1 2 1 1   1 1 1 1 1 1 1 2 1 1
                                        2 1 1 2 1 1 2 1 1 2   1 1 2 1 1 2 1 2 1 1   2 1 2 1 1 2 1 2 1 1   2 1 2 1 1 2 1 2 1 1
                                        2 1 2 1 2 1 1 2 1 2   1 2 1 1 2 1 2 1 2 1   1 2 1 2 1 2 1 1 2 1   2 1 1 2 2 1 1 2 1 2
                                        1 1 2 2 1 1 2 1 2 1   1 2 2 1 1 2 1 2 1 2   1 2 1 2 1 1 2 1 2 1   2 1 2 1 2 1 1 1 1 1
                                        1 1 1 1 2 1 1 2 1 1   2 1 1 2 1 1 2 1 1 2   1 1 2 1 2 1 1 2 1 2   1 1 2 1 2 1 1 2 1 2
                                        1 1 2 1 2 1 1 2 1 2   1 2 1 1 2 1 2 1 2 1   1 2 1 2 1 2 1 1 2 1   2 1 2 1 1 2 1 2 1 1
                                        2 2 1 1 2 1 2 1 1 2   2 1 1 2 1 2 1 1 2 2   1 1 2 1 2 1 2 1 2 1   2 1 1 2 1 2 1 2 1 2
                                        1 2 1 1 1 1 1 1 1 1   2 1 1 2 1 1 2 1 1 2   1 1 2 1 1 2 1 2 1 1   2 1 2 1 1 2 1 2 1 1
                                        2 1 2 1 1 2 1 2 1 2   1 1 2 1 2 1 2 1 1 2   1 2 1 2 1 1 2 1 2 1   1 2 2 1 1 2 1 2 1 1
                                        2 2 1 1 1 1 1 1 1 1   2 1 1 2 1 1 2 1 1 2   1 1 2 1 1 2 1 2 1 1   2 1 2 1 1 2 1 2 1 1
                                        2 1 2 1 1 2 1 2 1 2   1 1 2 1 2 1 2 1 1 2   1 2 1 2 1 1 2 1 2 1   1 2 2 1 1 2 1 2 1 1
                                        2 2 1 1 1 1 1 1 1 1   2 1 1 2 1 1 2 1 1 2   1 1 2 1 1 2 1 2 1 1   2 1 2 1 1 2 1 2 1 1
                                        2 1 2 1 1 2 1 2 1 2   1 1 2 1 2 1 2 1 1 2   1 2 1 2 1 1 2 1 2 1   1 2 2 1 1 2 1 2 1 1
                                        2 2

 Eigenvalues of metric

         1 0.620E-06 0.111E-05 0.123E-05 0.143E-05 0.154E-05 0.155E-05 0.205E-05 0.212E-05


 OPERATOR DM      FOR CENTER  0  COORDINATES:    0.000000    0.000000    0.000000


 **********************************************************************************************************************************
 DATASETS  * FILE   NREC   LENGTH (MB)   RECORD NAMES
              1      18       86.16       500      610      700      900      950      970     1000      129      960     1100   
                                          VAR    BASINP    GEOM    SYMINP    ZMAT    AOBASIS   BASIS     P2S    ABASIS      S 
                                         1400     1410     1200     1210     1080     1600     1650     1700   
                                           T        V       H0       H01     AOSYM     SMH    MOLCAS    OPER   

              2       5       98.32       700     1000      520     2101     2201   
                                         GEOM     BASIS   MCVARS     RHF      RHF  

 PROGRAMS   *        TOTAL       INT   RHF-SCF       INT   RHF-SCF       INT
 CPU TIMES  *     57120.35      3.65  27710.02      2.59  29400.69      3.15
 REAL TIME  *     57478.02 SEC
 DISK USED  *       295.90 MB (local),        3.55 GB (total)
 SF USED    *        18.53 MB
 GA USED    *         0.01 MB       (max)       0.00 MB       (current)
 **********************************************************************************************************************************


 PROGRAM * RHF-SCF (CLOSED SHELL)       Authors: W. Meyer, H.-J. Werner


 NUMBER OF ELECTRONS:      12+   12-    SPACE SYMMETRY=1    SPIN SYMMETRY: Singlet 
 CONVERGENCE THRESHOLDS:    1.00E-04 (Density)    1.00E-09 (Energy)
 INTEGRAL THRESHOLDS:       1.00E-13 (Initial)    1.00E-13 (Final)
 MAX. NUMBER OF ITERATIONS:       60
 INTERPOLATION TYPE:            DIIS
 INTERPOLATION STEPS:              2 (START)      1 (STEP)
 LEVEL SHIFTS:                  0.00 (CLOSED)  0.00 (OPEN) 



 Orbital guess generated from atomic densities. Full valence occupancy:   18

 Molecular orbital dump at record        2301.2

 Initial occupancy:  12

 Direct Fock-matrix evaluation.        Authors: Roland Lindh & Martin Schuetz (1993/96)

 Integral Threshold:                  0.1D-12
 Threshold for writing integrals:     0.1D-06
 Prescreening on density matrix:        ON 
 Calculation will be performed fully direct        

 ITERATION   DDIFF            GRAD            ENERGY        2-EL.EN.            DIPOLE MOMENTS         DIIS   CPU(IT)  CPU(TOT)
    1      0.000D+00      0.000D+00      -168.92640985    264.394105    0.46938    2.81732    0.00000    0   3085.5   3112.1     start
    2      0.000D+00      0.253D-02      -168.96990165    261.078393    0.11317    1.34892    0.00000    1   2975.8   6087.9     diag
    3      0.112D-02      0.210D-02      -169.01450700    262.574975    0.35079    1.81656   -0.00000    2   2851.1   8939.1     diag
    4      0.518D-03      0.218D-03      -169.01579996    262.625412    0.36642    1.74817    0.00000    3   2725.3  11664.3     diag
    5      0.941D-04      0.781D-04      -169.01598237    262.562797    0.36875    1.73579   -0.00000    4   2554.7  14219.1     diag
    6      0.380D-04      0.297D-04      -169.01602126    262.584520    0.37207    1.72451   -0.00000    5   2417.4  16636.4     diag
    7      0.176D-04      0.140D-04      -169.01602911    262.581096    0.37221    1.72105   -0.00000    6   2340.2  18976.6     diag
    8      0.901D-05      0.448D-05      -169.01602990    262.581494    0.37216    1.71989   -0.00000    7   2183.6  21160.2     diag
    9      0.309D-05      0.105D-05      -169.01602995    262.582039    0.37202    1.71960   -0.00000    8   1963.4  23123.6     diag
   10      0.825D-06      0.309D-06      -169.01602995    262.581719    0.37201    1.71954   -0.00000    9   1742.3  24865.9     orth
   11      0.214D-06      0.790D-07      -169.01602995    262.581828    0.37201    1.71954   -0.00000    9   1550.4  26416.3     diag
   12      0.484D-07      0.165D-07      -169.01602995    262.581822    0.37201    1.71954    0.00000    0   1267.9  27684.2     orth

 Final occupancy:  12

 !RHF STATE  1.1 Energy              -169.016029953956
 Nuclear energy                        71.07286406
 One-electron energy                 -371.37980478
 Two-electron energy                  131.29091076
 Virial quotient                       -1.00166336
 !RHF STATE  1.1 Dipole moment          0.37200880     1.71953691     0.00000000
 Dipole moment /Debye                   0.94549013     4.37034061     0.00000000

 Orbital energies:

         1.1          2.1          3.1          4.1          5.1          6.1          7.1          8.1          9.1         10.1
    -20.523536   -15.600487   -11.355735    -1.374766    -1.226254    -0.854097    -0.755428    -0.677313    -0.602481    -0.571524

        11.1         12.1         13.1         14.1
     -0.435179    -0.422192     0.013067     0.023176


 HOMO     12.1    -0.422192 =     -11.4884eV
 LUMO     13.1     0.013067 =       0.3556eV
 LUMO-HOMO         0.435259 =      11.8440eV


 **********************************************************************************************************************************
 DATASETS  * FILE   NREC   LENGTH (MB)   RECORD NAMES
              1      18       86.16       500      610      700      900      950      970     1000      129      960     1100   
                                          VAR    BASINP    GEOM    SYMINP    ZMAT    AOBASIS   BASIS     P2S    ABASIS      S 
                                         1400     1410     1200     1210     1080     1600     1650     1700   
                                           T        V       H0       H01     AOSYM     SMH    MOLCAS    OPER   

              2       6      162.58       700     1000      520     2101     2201     2301   
                                         GEOM     BASIS   MCVARS     RHF      RHF      RHF  

 PROGRAMS   *        TOTAL   RHF-SCF       INT   RHF-SCF       INT   RHF-SCF       INT
 CPU TIMES  *     84806.79  27686.44      3.65  27710.02      2.59  29400.69      3.15
 REAL TIME  *     85311.00 SEC
 DISK USED  *       360.16 MB (local),        4.32 GB (total)
 SF USED    *        18.53 MB
 GA USED    *         0.01 MB       (max)       0.00 MB       (current)
 **********************************************************************************************************************************
 SETTING EB_HF          =      -169.01602995  AU                              
 SETTING E_AB_INT       =        -0.01942420  AU                              

 *** results in hartree
 E_AB_INT         =        -0.01942420 AU
 Molecular orbitals read from record     2301.2  Type=RHF/CANONICAL (state 1.1)
 Occupation numbers read from record     2301.2  Type=RHF/RHF (state 1.1)
 Orbital energies read from record       2301.2  Type=RHF/CANONICAL (state 1.1)
 Redundancy group numbers read from rec  2301.2  Type=RHF/RHF (state 1.1)

 RHF/aug-cc-pV5Z energy=   -169.016029953956

         RHF-SCF         RHF-SCF         RHF-SCF
   -169.01602995   -169.01602995   -338.05148411
 **********************************************************************************************************************************
 Molpro calculation terminated
