 vasp.6.1.2 22Jul20 (build Jan  6 2021 09:55:43) gamma-only                      
 executed on             LinuxPGI date 2021.02.28  21:50:37
 running on   32 total cores
 distrk:  each k-point on   32 cores,    1 groups
 distr:  one band on NCORE=   8 cores,    4 groups


--------------------------------------------------------------------------------------------------------


 INCAR:
 POTCAR:    PAW_PBE H 15Jun2001                   
 POTCAR:    PAW_PBE O 08Apr2002                   
 POTCAR:    PAW_PBE H 15Jun2001                   
   VRHFIN =H: ultrasoft test                                                                        
   LEXCH  = PE                                                                                      
   EATOM  =    12.4884 eV,    0.9179 Ry                                                             
                                                                                                    
   TITEL  = PAW_PBE H 15Jun2001                                                                     
   LULTRA =        F    use ultrasoft PP ?                                                          
   IUNSCR =        0    unscreen: 0-lin 1-nonlin 2-no                                               
   RPACOR =    0.000    partial core radius                                                         
   POMASS =    1.000; ZVAL   =    1.000    mass and valenz                                          
   RCORE  =    1.100    outmost cutoff radius                                                       
   RWIGS  =    0.700; RWIGS  =    0.370    wigner-seitz radius (au A)                               
   ENMAX  =  250.000; ENMIN  =  200.000 eV                                                          
   RCLOC  =    0.701    cutoff for local pot                                                        
   LCOR   =        T    correct aug charges                                                         
   LPAW   =        T    paw PP                                                                      
   EAUG   =  400.000                                                                                
   RMAX   =    1.123    core radius for proj-oper                                                   
   RAUG   =    1.200    factor for augmentation sphere                                              
   RDEP   =    1.112    radius for radial grids                                                     
   RDEPT  =    0.926    core radius for aug-charge                                                  
                                                                                                    
   Atomic configuration                                                                             
    2 entries                                                                                       
     n  l   j            E        occ.                                                              
     1  0  0.50        -6.4927   1.0000                                                             
     2  1  0.50        -3.4015   0.0000                                                             
   Description                                                                                      
     l       E           TYP  RCUT    TYP  RCUT                                                     
     0     -6.4927494     23  1.100                                                                 
     0      6.8029130     23  1.100                                                                 
     1     -4.0817478     23  1.100                                                                 
  local pseudopotential read in
  atomic valenz-charges read in
  non local Contribution for L=            0  read in
    real space projection operators read in
  non local Contribution for L=            0  read in
    real space projection operators read in
  non local Contribution for L=            1  read in
    real space projection operators read in
    PAW grid and wavefunctions read in
 
   number of l-projection  operators is LMAX  =            3
   number of lm-projection operators is LMMAX =            5
 
 POTCAR:    PAW_PBE O 08Apr2002                   
   VRHFIN =O: s2p4                                                                                  
   LEXCH  = PE                                                                                      
   EATOM  =   432.3788 eV,   31.7789 Ry                                                             
                                                                                                    
   TITEL  = PAW_PBE O 08Apr2002                                                                     
   LULTRA =        F    use ultrasoft PP ?                                                          
   IUNSCR =        1    unscreen: 0-lin 1-nonlin 2-no                                               
   RPACOR =    1.200    partial core radius                                                         
   POMASS =   16.000; ZVAL   =    6.000    mass and valenz                                          
   RCORE  =    1.520    outmost cutoff radius                                                       
   RWIGS  =    1.550; RWIGS  =    0.820    wigner-seitz radius (au A)                               
   ENMAX  =  400.000; ENMIN  =  300.000 eV                                                          
   ICORE  =        2    local potential                                                             
   LCOR   =        T    correct aug charges                                                         
   LPAW   =        T    paw PP                                                                      
   EAUG   =  605.392                                                                                
   DEXC   =    0.000                                                                                
   RMAX   =    1.553    core radius for proj-oper                                                   
   RAUG   =    1.300    factor for augmentation sphere                                              
   RDEP   =    1.550    radius for radial grids                                                     
   RDEPT  =    1.329    core radius for aug-charge                                                  
                                                                                                    
   Atomic configuration                                                                             
    4 entries                                                                                       
     n  l   j            E        occ.                                                              
     1  0  0.50      -514.6923   2.0000                                                             
     2  0  0.50       -23.9615   2.0000                                                             
     2  1  0.50        -9.0305   4.0000                                                             
     3  2  1.50        -9.5241   0.0000                                                             
   Description                                                                                      
     l       E           TYP  RCUT    TYP  RCUT                                                     
     0    -23.9615318     23  1.200                                                                 
     0     -9.5240782     23  1.200                                                                 
     1     -9.0304911     23  1.520                                                                 
     1      8.1634956     23  1.520                                                                 
     2     -9.5240782      7  1.500                                                                 
  local pseudopotential read in
  partial core-charges read in
  partial kinetic energy density read in
  kinetic energy density of atom read in
  atomic valenz-charges read in
  non local Contribution for L=            0  read in
    real space projection operators read in
  non local Contribution for L=            0  read in
    real space projection operators read in
  non local Contribution for L=            1  read in
    real space projection operators read in
  non local Contribution for L=            1  read in
    real space projection operators read in
    PAW grid and wavefunctions read in
 
   number of l-projection  operators is LMAX  =            4
   number of lm-projection operators is LMMAX =            8
 
  PAW_PBE H 15Jun2001                   :
 energy of atom  1       EATOM=  -12.4884
 kinetic energy error for atom=    0.0000 (will be added to EATOM!!)
  PAW_PBE O 08Apr2002                   :
 energy of atom  2       EATOM= -432.3788
 kinetic energy error for atom=    0.0005 (will be added to EATOM!!)
 
 
 POSCAR:  H  O
  positions in cartesian coordinates
  No initial velocities read in
 exchange correlation table for  LEXCH =        8
   RHO(1)=    0.500       N(1)  =     2000
   RHO(2)=  100.500       N(2)  =     4000
 


--------------------------------------------------------------------------------------------------------


 ion  position               nearest neighbor table
   1  0.001  0.018  0.978-   5 0.96
   2  1.000  0.018  0.022-   5 0.96
   3  0.001  0.166  0.000-   6 0.96
   4  0.028  0.200  1.000-   6 0.96
   5  0.000  0.035  0.000-   1 0.96   2 0.96
   6  0.001  0.194  0.000-   3 0.96   4 0.96
 
  LATTYP: Found a simple cubic cell.
 ALAT       =    35.0000000000
  
  Lattice vectors:
  
 A1 = (  35.0000000000,   0.0000000000,   0.0000000000)
 A2 = (   0.0000000000,  35.0000000000,   0.0000000000)
 A3 = (   0.0000000000,   0.0000000000,  35.0000000000)


Analysis of symmetry for initial positions (statically):
=====================================================================
 Subroutine PRICEL returns:
 Original cell was already a primitive cell.
 

 Routine SETGRP: Setting up the symmetry group for a 
 simple cubic supercell.


 Subroutine GETGRP returns: Found  1 space group operations
 (whereof  1 operations were pure point group operations)
 out of a pool of 48 trial point group operations.


The static configuration has the point symmetry C_1 .


Analysis of symmetry for dynamics (positions and initial velocities):
=====================================================================
 Subroutine PRICEL returns:
 Original cell was already a primitive cell.
 

 Routine SETGRP: Setting up the symmetry group for a 
 simple cubic supercell.


 Subroutine GETGRP returns: Found  1 space group operations
 (whereof  1 operations were pure point group operations)
 out of a pool of 48 trial point group operations.


The dynamic configuration has the point symmetry C_1 .


 Subroutine INISYM returns: Found  1 space group operations
 (whereof  1 operations are pure point group operations),
 and found     1 'primitive' translations


----------------------------------------------------------------------------------------

                                     Primitive cell                                     

  volume of cell :   42875.0000

  direct lattice vectors                    reciprocal lattice vectors
    35.000000000  0.000000000  0.000000000     0.028571429  0.000000000  0.000000000
     0.000000000 35.000000000  0.000000000     0.000000000  0.028571429  0.000000000
     0.000000000  0.000000000 35.000000000     0.000000000  0.000000000  0.028571429

  length of vectors
    35.000000000 35.000000000 35.000000000     0.028571429  0.028571429  0.028571429

  position of ions in fractional coordinates (direct lattice)
     0.000503079  0.018298976  0.978247097
     0.999617776  0.018046666  0.021558586
     0.000688177  0.166483287  0.000036905
     0.028137029  0.199995066  0.999533239
     0.000000000  0.035063029  0.000000000
     0.001349770  0.193943010  0.000072384

  ion indices of the primitive-cell ions
   primitive index   ion index
                 1           1
                 2           2
                 3           3
                 4           4
                 5           5
                 6           6

----------------------------------------------------------------------------------------

 
 
 KPOINTS: automatic mesh                          

Automatic generation of k-mesh.
Space group operators:
 irot       det(A)        alpha          n_x          n_y          n_z        tau_x        tau_y        tau_z
    1     1.000000     0.000000     1.000000     0.000000     0.000000     0.000000     0.000000     0.000000
 
 Subroutine IBZKPT returns following result:
 ===========================================
 
 Found      1 irreducible k-points:
 
 Following reciprocal coordinates:
            Coordinates               Weight
  0.000000  0.000000  0.000000      1.000000
 
 Following cartesian coordinates:
            Coordinates               Weight
  0.000000  0.000000  0.000000      1.000000
 


--------------------------------------------------------------------------------------------------------




 Dimension of arrays:
   k-points           NKPTS =      1   k-points in BZ     NKDIM =      1   number of bands    NBANDS=     12
   number of dos      NEDOS =    301   number of ions     NIONS =      6
   non local maximal  LDIM  =      4   non local SUM 2l+1 LMDIM =      8
   total plane-waves  NPLWV = ******
   max r-space proj   IRMAX =      1   max aug-charges    IRDMAX=  33660
   dimension x,y,z NGX =   480 NGY =  480 NGZ =  480
   dimension x,y,z NGXF=   960 NGYF=  960 NGZF=  960
   support grid    NGXF=   960 NGYF=  960 NGZF=  960
   ions per type =               4   2
   NGX,Y,Z   is equivalent  to a cutoff of  22.80, 22.80, 22.80 a.u.
   NGXF,Y,Z  is equivalent  to a cutoff of  45.60, 45.60, 45.60 a.u.

 SYSTEM =  C                                       
 POSCAR =   H  O                                   

 Startparameter for this run:
   NWRITE =      2    write-flag & timer
   PREC   = acc       normal or accurate (medium, high low for compatibility)
   ISTART =      0    job   : 0-new  1-cont  2-samecut
   ICHARG =      2    charge: 1-file 2-atom 10-const
   ISPIN  =      1    spin polarized calculation?
   LNONCOLLINEAR =      F non collinear calculations
   LSORBIT =      F    spin-orbit coupling
   INIWAV =      1    electr: 0-lowe 1-rand  2-diag
   LASPH  =      T    aspherical Exc in radial PAW
   METAGGA=      F    non-selfconsistent MetaGGA calc.

 Electronic Relaxation 1
   ENCUT  = 1600.0 eV 117.60 Ry   10.84 a.u. 114.15114.15114.15*2*pi/ulx,y,z
   ENINI  = 1600.0     initial cutoff
   ENAUG  =  605.4 eV  augmentation charge cutoff
   NELM   =     60;   NELMIN=  2; NELMDL= -5     # of ELM steps 
   EDIFF  = 0.1E-06   stopping-criterion for ELM
   LREAL  =      F    real-space projection
   NLSPLINE    = F    spline interpolate recip. space projectors
   LCOMPAT=      F    compatible to vasp.4.4
   GGA_COMPAT  = T    GGA compatible to vasp.4.4-vasp.4.6
   LMAXPAW     = -100 max onsite density
   LMAXMIX     =    2 max onsite mixed and CHGCAR
   VOSKOWN=      0    Vosko Wilk Nusair interpolation
   ROPT   =    0.00000   0.00000
 Ionic relaxation
   EDIFFG = 0.1E-05   stopping-criterion for IOM
   NSW    =      0    number of steps for IOM
   NBLOCK =      1;   KBLOCK =      1    inner block; outer block 
   IBRION =     -1    ionic relax: 0-MD 1-quasi-New 2-CG
   NFREE  =      0    steps in history (QN), initial steepest desc. (CG)
   ISIF   =      2    stress and relaxation
   IWAVPR =     10    prediction:  0-non 1-charg 2-wave 3-comb
   ISYM   =      2    0-nonsym 1-usesym 2-fastsym
   LCORR  =      T    Harris-Foulkes like correction to forces

   POTIM  = 0.5000    time-step for ionic-motion
   TEIN   =    0.0    initial temperature
   TEBEG  =    0.0;   TEEND  =   0.0 temperature during run
   SMASS  =  -3.00    Nose mass-parameter (am)
   estimated Nose-frequenzy (Omega)   =  0.10E-29 period in steps = 0.13E+47 mass=  -0.280E-25a.u.
   SCALEE = 1.0000    scale energy and forces
   NPACO  =    256;   APACO  = 16.0  distance and # of slots for P.C.
   PSTRESS=    0.0 pullay stress

  Mass of Ions in am
   POMASS =   1.00 16.00
  Ionic Valenz
   ZVAL   =   1.00  6.00
  Atomic Wigner-Seitz radii
   RWIGS  =  -1.00 -1.00
  virtual crystal weights 
   VCA    =   1.00  1.00
   NELECT =      16.0000    total number of electrons
   NUPDOWN=      -1.0000    fix difference up-down

 DOS related values:
   EMIN   =  10.00;   EMAX   =-10.00  energy-range for DOS
   EFERMI =   0.00
   ISMEAR =     0;   SIGMA  =   0.01  broadening in eV -4-tet -1-fermi 0-gaus

 Electronic relaxation 2 (details)
   IALGO  =     38    algorithm
   LDIAG  =      T    sub-space diagonalisation (order eigenvalues)
   LSUBROT=      F    optimize rotation matrix (better conditioning)
   TURBO    =      0    0=normal 1=particle mesh
   IRESTART =      0    0=no restart 2=restart with 2 vectors
   NREBOOT  =      0    no. of reboots
   NMIN     =      0    reboot dimension
   EREF     =   0.00    reference energy to select bands
   IMIX   =      4    mixing-type and parameters
     AMIX     =   0.40;   BMIX     =  1.00
     AMIX_MAG =   1.60;   BMIX_MAG =  1.00
     AMIN     =   0.10
     WC   =   100.;   INIMIX=   1;  MIXPRE=   1;  MAXMIX= -45

 Intra band minimization:
   WEIMIN = 0.0000     energy-eigenvalue tresh-hold
   EBREAK =  0.21E-08  absolut break condition
   DEPER  =   0.30     relativ break condition  

   TIME   =   0.40     timestep for ELM

  volume/ion in A,a.u.               =    7145.83     48222.46
  Fermi-wavevector in a.u.,A,eV,Ry     =   0.117864  0.222730  0.189010  0.013892
  Thomas-Fermi vector in A             =   0.732055
 
 Write flags
   LWAVE        =      T    write WAVECAR
   LDOWNSAMPLE  =      F    k-point downsampling of WAVECAR
   LCHARG       =      T    write CHGCAR
   LVTOT        =      F    write LOCPOT, total local potential
   LVHAR        =      F    write LOCPOT, Hartree potential only
   LELF         =      F    write electronic localiz. function (ELF)
   LORBIT       =      0    0 simple, 1 ext, 2 COOP (PROOUT), +10 PAW based schemes


 Dipole corrections
   LMONO  =      F    monopole corrections only (constant potential shift)
   LDIPOL =      F    correct potential (dipole corrections)
   IDIPOL =      4    1-x, 2-y, 3-z, 4-all directions 
   EPSILON=  1.0000000 bulk dielectric constant

 Exchange correlation treatment:
   GGA     =    --    GGA type
   LEXCH   =     8    internal setting for exchange type
   VOSKOWN=      0    Vosko Wilk Nusair interpolation
   LHFCALC =     F    Hartree Fock is set to
   LHFONE  =     F    Hartree Fock one center treatment
   AEXX    =    0.0000 exact exchange contribution

 Linear response parameters
   LEPSILON=     F    determine dielectric tensor
   LRPA    =     F    only Hartree local field effects (RPA)
   LNABLA  =     F    use nabla operator in PAW spheres
   LVEL    =     F    velocity operator in full k-point grid
   LINTERFAST=   F  fast interpolation
   KINTER  =     0    interpolate to denser k-point grid
   CSHIFT  =0.1000    complex shift for real part using Kramers Kronig
   OMEGAMAX=  -1.0    maximum frequency
   DEG_THRESHOLD= 0.2000000E-02 threshold for treating states as degnerate
   RTIME   =   -0.100 relaxation time in fs
  (WPLASMAI=    0.000 imaginary part of plasma frequency in eV, 0.658/RTIME)
   DFIELD  = 0.0000000 0.0000000 0.0000000 field for delta impulse in time
 
 Orbital magnetization related:
   ORBITALMAG=     F  switch on orbital magnetization
   LCHIMAG   =     F  perturbation theory with respect to B field
   DQ        =  0.001000  dq finite difference perturbation B field
   LLRAUG    =     F  two centre corrections for induced B field



--------------------------------------------------------------------------------------------------------


 Static calculation
 charge density and potential will be updated during run
 non-spin polarized calculation
 Variant of blocked Davidson
 Davidson routine will perform the subspace rotation
 perform sub-space diagonalisation
    after iterative eigenvector-optimisation
 modified Broyden-mixing scheme, WC =      100.0
 initial mixing is a Kerker type mixing with AMIX =  0.4000 and BMIX =      1.0000
 Hartree-type preconditioning will be used
 using additional bands             4
 reciprocal scheme for non local part
 use partial core corrections
 calculate Harris-corrections to forces 
   (improved forces if not selfconsistent)
 use gradient corrections 
 use of overlap-Matrix (Vanderbilt PP)
 Gauss-broadening in eV      SIGMA  =   0.01


--------------------------------------------------------------------------------------------------------


  energy-cutoff  :     1600.00
  volume of cell :    42875.00
      direct lattice vectors                 reciprocal lattice vectors
    35.000000000  0.000000000  0.000000000     0.028571429  0.000000000  0.000000000
     0.000000000 35.000000000  0.000000000     0.000000000  0.028571429  0.000000000
     0.000000000  0.000000000 35.000000000     0.000000000  0.000000000  0.028571429

  length of vectors
    35.000000000 35.000000000 35.000000000     0.028571429  0.028571429  0.028571429


 
 k-points in units of 2pi/SCALE and weight: automatic mesh                          
   0.00000000  0.00000000  0.00000000       1.000
 
 k-points in reciprocal lattice and weights: automatic mesh                          
   0.00000000  0.00000000  0.00000000       1.000
 
 position of ions in fractional coordinates (direct lattice) 
   0.00050308  0.01829898  0.97824710
   0.99961778  0.01804667  0.02155859
   0.00068818  0.16648329  0.00003690
   0.02813703  0.19999507  0.99953324
   0.00000000  0.03506303  0.00000000
   0.00134977  0.19394301  0.00007238
 
 position of ions in cartesian coordinates  (Angst):
   0.01760775  0.64046416 34.23864840
  34.98662216  0.63163330  0.75455051
   0.02408619  5.82691505  0.00129166
   0.98479602  6.99982731 34.98366338
   0.00000000  1.22720600  0.00000000
   0.04724194  6.78800534  0.00253342
 


--------------------------------------------------------------------------------------------------------


 use parallel FFT for orbitals z direction half grid
 k-point   1 :   0.0000 0.0000 0.0000  plane waves: 3115599

 maximum and minimum number of plane-waves per node :    389462   389421

 maximum number of plane-waves:   3115599
 maximum index in each direction: 
   IXMAX=  114   IYMAX=  114   IZMAX=  114
   IXMIN= -114   IYMIN= -114   IZMIN=    0


 parallel 3D FFT for wavefunctions:
    minimum data exchange during FFTs selected (reduces bandwidth)
 parallel 3D FFT for charge:
    minimum data exchange during FFTs selected (reduces bandwidth)


 total amount of memory used by VASP MPI-rank0  3455162. kBytes
=======================================================================

   base      :      30000. kBytes
   nonl-proj :      87230. kBytes
   fftplans  :    1215227. kBytes
   grid      :    2104012. kBytes
   one-center:          1. kBytes
   wavefun   :      18692. kBytes
 
     INWAV:  cpu time    0.0000: real time    0.0000
 Broyden mixing: mesh for mixing (old mesh)
   NGX =229   NGY =229   NGZ =229
  (NGX  =960   NGY  =960   NGZ  =960)
  gives a total of ****** points

 initial charge density was supplied:
 charge density of overlapping atoms calculated
 number of electron      16.0000000 magnetization 
 keeping initial charge density in first step


--------------------------------------------------------------------------------------------------------


 Maximum index for augmentation-charges          1230 (set IRDMAX)


--------------------------------------------------------------------------------------------------------


 First call to EWALD:  gamma=   0.051
 Maximum number of real-space cells 3x 3x 3
 Maximum number of reciprocal cells 3x 3x 3

    FEWALD:  cpu time    0.0009: real time    0.0008


--------------------------------------- Iteration      1(   1)  ---------------------------------------


    POTLOK:  cpu time   23.1836: real time   23.2155
    SETDIJ:  cpu time    0.0508: real time    0.0518
     EDDAV:  cpu time   11.4856: real time   11.5377
       DOS:  cpu time    0.0027: real time    0.0027
    --------------------------------------------
      LOOP:  cpu time   34.7228: real time   34.8078

 eigenvalue-minimisations  :    40
 total energy-change (2. order) : 0.1521088E+03  (-0.3080450E+03)
 number of electron      16.0000000 magnetization 
 augmentation part       16.0000000 magnetization 

 Free energy of the ion-electron system (eV)
  ---------------------------------------------------
  alpha Z        PSCENC =         0.02092140
  Ewald energy   TEWEN  =       395.13515513
  -Hartree energ DENC   =     -1110.51477840
  -exchange      EXHF   =         0.00000000
  -V(xc)+E(xc)   XCENC  =        64.44824761
  PAW double counting   =       701.63506352     -705.26791599
  entropy T*S    EENTRO =        -0.00000000
  eigenvalues    EBANDS =      -108.05805377
  atomic energy  EATOM  =       914.71016949
  Solvation  Ediel_sol  =         0.00000000
  ---------------------------------------------------
  free energy    TOTEN  =       152.10880899 eV

  energy without entropy =      152.10880899  energy(sigma->0) =      152.10880899


--------------------------------------------------------------------------------------------------------




--------------------------------------- Iteration      1(   2)  ---------------------------------------


     EDDAV:  cpu time   11.4694: real time   11.4877
       DOS:  cpu time    0.0069: real time    0.0069
    --------------------------------------------
      LOOP:  cpu time   11.4763: real time   11.4946

 eigenvalue-minimisations  :    40
 total energy-change (2. order) :-0.8542947E+02  (-0.8207986E+02)
 number of electron      16.0000000 magnetization 
 augmentation part       16.0000000 magnetization 

 Free energy of the ion-electron system (eV)
  ---------------------------------------------------
  alpha Z        PSCENC =         0.02092140
  Ewald energy   TEWEN  =       395.13515513
  -Hartree energ DENC   =     -1110.51477840
  -exchange      EXHF   =         0.00000000
  -V(xc)+E(xc)   XCENC  =        64.44824761
  PAW double counting   =       701.63506352     -705.26791599
  entropy T*S    EENTRO =        -0.00000000
  eigenvalues    EBANDS =      -193.48752073
  atomic energy  EATOM  =       914.71016949
  Solvation  Ediel_sol  =         0.00000000
  ---------------------------------------------------
  free energy    TOTEN  =        66.67934203 eV

  energy without entropy =       66.67934203  energy(sigma->0) =       66.67934203


--------------------------------------------------------------------------------------------------------




--------------------------------------- Iteration      1(   3)  ---------------------------------------


     EDDAV:  cpu time    9.7361: real time    9.7533
       DOS:  cpu time    0.0072: real time    0.0072
    --------------------------------------------
      LOOP:  cpu time    9.7432: real time    9.7605

 eigenvalue-minimisations  :    32
 total energy-change (2. order) :-0.6997978E+02  (-0.6322846E+02)
 number of electron      16.0000000 magnetization 
 augmentation part       16.0000000 magnetization 

 Free energy of the ion-electron system (eV)
  ---------------------------------------------------
  alpha Z        PSCENC =         0.02092140
  Ewald energy   TEWEN  =       395.13515513
  -Hartree energ DENC   =     -1110.51477840
  -exchange      EXHF   =         0.00000000
  -V(xc)+E(xc)   XCENC  =        64.44824761
  PAW double counting   =       701.63506352     -705.26791599
  entropy T*S    EENTRO =        -0.00000000
  eigenvalues    EBANDS =      -263.46730243
  atomic energy  EATOM  =       914.71016949
  Solvation  Ediel_sol  =         0.00000000
  ---------------------------------------------------
  free energy    TOTEN  =        -3.30043967 eV

  energy without entropy =       -3.30043967  energy(sigma->0) =       -3.30043967


--------------------------------------------------------------------------------------------------------




--------------------------------------- Iteration      1(   4)  ---------------------------------------


     EDDAV:  cpu time    9.7091: real time    9.7247
       DOS:  cpu time    0.0049: real time    0.0049
    --------------------------------------------
      LOOP:  cpu time    9.7140: real time    9.7295

 eigenvalue-minimisations  :    32
 total energy-change (2. order) :-0.2763907E+02  (-0.2759638E+02)
 number of electron      16.0000000 magnetization 
 augmentation part       16.0000000 magnetization 

 Free energy of the ion-electron system (eV)
  ---------------------------------------------------
  alpha Z        PSCENC =         0.02092140
  Ewald energy   TEWEN  =       395.13515513
  -Hartree energ DENC   =     -1110.51477840
  -exchange      EXHF   =         0.00000000
  -V(xc)+E(xc)   XCENC  =        64.44824761
  PAW double counting   =       701.63506352     -705.26791599
  entropy T*S    EENTRO =        -0.00000000
  eigenvalues    EBANDS =      -291.10636840
  atomic energy  EATOM  =       914.71016949
  Solvation  Ediel_sol  =         0.00000000
  ---------------------------------------------------
  free energy    TOTEN  =       -30.93950564 eV

  energy without entropy =      -30.93950564  energy(sigma->0) =      -30.93950564


--------------------------------------------------------------------------------------------------------




--------------------------------------- Iteration      1(   5)  ---------------------------------------


     EDDAV:  cpu time    9.6780: real time    9.6936
       DOS:  cpu time    0.0065: real time    0.0065
    CHARGE:  cpu time    3.0788: real time    3.0846
    MIXING:  cpu time    0.4434: real time    0.4444
    --------------------------------------------
      LOOP:  cpu time   13.2067: real time   13.2292

 eigenvalue-minimisations  :    32
 total energy-change (2. order) :-0.1727728E+01  (-0.1727491E+01)
 number of electron      15.9999999 magnetization 
 augmentation part        1.6778592 magnetization 

 Broyden mixing:
  rms(total) = 0.11287E+01    rms(broyden)= 0.11287E+01
  rms(prec ) = 0.11651E+01
  weight for this iteration     100.00

 Free energy of the ion-electron system (eV)
  ---------------------------------------------------
  alpha Z        PSCENC =         0.02092140
  Ewald energy   TEWEN  =       395.13515513
  -Hartree energ DENC   =     -1110.51477840
  -exchange      EXHF   =         0.00000000
  -V(xc)+E(xc)   XCENC  =        64.44824761
  PAW double counting   =       701.63506352     -705.26791599
  entropy T*S    EENTRO =        -0.00000000
  eigenvalues    EBANDS =      -292.83409629
  atomic energy  EATOM  =       914.71016949
  Solvation  Ediel_sol  =         0.00000000
  ---------------------------------------------------
  free energy    TOTEN  =       -32.66723353 eV

  energy without entropy =      -32.66723353  energy(sigma->0) =      -32.66723353


--------------------------------------------------------------------------------------------------------




--------------------------------------- Iteration      1(   6)  ---------------------------------------


    POTLOK:  cpu time   22.8949: real time   22.9264
    SETDIJ:  cpu time    0.0752: real time    0.0753
     EDDAV:  cpu time    8.8444: real time    8.8587
       DOS:  cpu time    0.0062: real time    0.0062
    CHARGE:  cpu time    2.8872: real time    2.8914
    MIXING:  cpu time    0.5546: real time    5.2397
    --------------------------------------------
      LOOP:  cpu time   35.2626: real time   39.9976

 eigenvalue-minimisations  :    28
 total energy-change (2. order) : 0.3825810E+01  (-0.1545836E+01)
 number of electron      16.0000000 magnetization 
 augmentation part        1.4139124 magnetization 

 Broyden mixing:
  rms(total) = 0.45071E+00    rms(broyden)= 0.45071E+00
  rms(prec ) = 0.45894E+00
  weight for this iteration     100.00

 eigenvalues of (default mixing * dielectric matrix)
  average eigenvalue GAMMA=   0.9491
  0.9491

 Free energy of the ion-electron system (eV)
  ---------------------------------------------------
  alpha Z        PSCENC =         0.02092140
  Ewald energy   TEWEN  =       395.13515513
  -Hartree energ DENC   =     -1158.95529187
  -exchange      EXHF   =         0.00000000
  -V(xc)+E(xc)   XCENC  =        67.12987831
  PAW double counting   =       891.50027242     -895.85842262
  entropy T*S    EENTRO =        -0.00000000
  eigenvalues    EBANDS =      -242.52410546
  atomic energy  EATOM  =       914.71016949
  Solvation  Ediel_sol  =         0.00000000
  ---------------------------------------------------
  free energy    TOTEN  =       -28.84142320 eV

  energy without entropy =      -28.84142320  energy(sigma->0) =      -28.84142320


--------------------------------------------------------------------------------------------------------




--------------------------------------- Iteration      1(   7)  ---------------------------------------


    POTLOK:  cpu time   22.9616: real time   22.9935
    SETDIJ:  cpu time    0.0485: real time    0.0485
     EDDAV:  cpu time   10.5904: real time   10.6073
       DOS:  cpu time    0.0027: real time    0.0027
    CHARGE:  cpu time    2.9640: real time    2.9683
    MIXING:  cpu time    0.4674: real time    0.4681
    --------------------------------------------
      LOOP:  cpu time   37.0346: real time   37.0884

 eigenvalue-minimisations  :    36
 total energy-change (2. order) : 0.1940490E+00  (-0.5352214E-01)
 number of electron      16.0000000 magnetization 
 augmentation part        1.3955467 magnetization 

 Broyden mixing:
  rms(total) = 0.29863E+00    rms(broyden)= 0.29863E+00
  rms(prec ) = 0.30372E+00
  weight for this iteration     100.00

 eigenvalues of (default mixing * dielectric matrix)
  average eigenvalue GAMMA=   1.7301
  1.1007  2.3596

 Free energy of the ion-electron system (eV)
  ---------------------------------------------------
  alpha Z        PSCENC =         0.02092140
  Ewald energy   TEWEN  =       395.13515513
  -Hartree energ DENC   =     -1167.45464029
  -exchange      EXHF   =         0.00000000
  -V(xc)+E(xc)   XCENC  =        67.57561233
  PAW double counting   =       982.10272220     -986.39775163
  entropy T*S    EENTRO =        -0.00000000
  eigenvalues    EBANDS =      -234.33956279
  atomic energy  EATOM  =       914.71016949
  Solvation  Ediel_sol  =         0.00000000
  ---------------------------------------------------
  free energy    TOTEN  =       -28.64737416 eV

  energy without entropy =      -28.64737416  energy(sigma->0) =      -28.64737416


--------------------------------------------------------------------------------------------------------




--------------------------------------- Iteration      1(   8)  ---------------------------------------


    POTLOK:  cpu time   22.9555: real time   22.9867
    SETDIJ:  cpu time    0.0603: real time    0.0604
     EDDAV:  cpu time    9.6750: real time    9.6905
       DOS:  cpu time    0.0019: real time    0.0019
    CHARGE:  cpu time    2.8850: real time    2.8890
    MIXING:  cpu time    0.5085: real time    0.5093
    --------------------------------------------
      LOOP:  cpu time   36.0863: real time   36.1378

 eigenvalue-minimisations  :    32
 total energy-change (2. order) : 0.1633371E+00  (-0.1552952E-01)
 number of electron      16.0000000 magnetization 
 augmentation part        1.4066574 magnetization 

 Broyden mixing:
  rms(total) = 0.47766E-01    rms(broyden)= 0.47766E-01
  rms(prec ) = 0.51851E-01
  weight for this iteration     100.00

 eigenvalues of (default mixing * dielectric matrix)
  average eigenvalue GAMMA=   1.4640
  2.4069  0.9926  0.9926

 Free energy of the ion-electron system (eV)
  ---------------------------------------------------
  alpha Z        PSCENC =         0.02092140
  Ewald energy   TEWEN  =       395.13515513
  -Hartree energ DENC   =     -1176.16786261
  -exchange      EXHF   =         0.00000000
  -V(xc)+E(xc)   XCENC  =        68.06311148
  PAW double counting   =      1113.05961089    -1117.24194372
  entropy T*S    EENTRO =        -0.00000000
  eigenvalues    EBANDS =      -226.06319910
  atomic energy  EATOM  =       914.71016949
  Solvation  Ediel_sol  =         0.00000000
  ---------------------------------------------------
  free energy    TOTEN  =       -28.48403705 eV

  energy without entropy =      -28.48403705  energy(sigma->0) =      -28.48403705


--------------------------------------------------------------------------------------------------------




--------------------------------------- Iteration      1(   9)  ---------------------------------------


    POTLOK:  cpu time   22.9641: real time   22.9958
    SETDIJ:  cpu time    0.0592: real time    0.0593
     EDDAV:  cpu time    9.7188: real time    9.7347
       DOS:  cpu time    0.0068: real time    0.0068
    CHARGE:  cpu time    2.9361: real time    2.9403
    MIXING:  cpu time    0.6453: real time    0.6461
    --------------------------------------------
      LOOP:  cpu time   36.3302: real time   36.3830

 eigenvalue-minimisations  :    32
 total energy-change (2. order) : 0.7064206E-02  (-0.3894379E-02)
 number of electron      16.0000000 magnetization 
 augmentation part        1.3930559 magnetization 

 Broyden mixing:
  rms(total) = 0.20877E-01    rms(broyden)= 0.20877E-01
  rms(prec ) = 0.24819E-01
  weight for this iteration     100.00

 eigenvalues of (default mixing * dielectric matrix)
  average eigenvalue GAMMA=   1.7799
  0.9993  0.9993  2.5606  2.5606

 Free energy of the ion-electron system (eV)
  ---------------------------------------------------
  alpha Z        PSCENC =         0.02092140
  Ewald energy   TEWEN  =       395.13515513
  -Hartree energ DENC   =     -1178.81767853
  -exchange      EXHF   =         0.00000000
  -V(xc)+E(xc)   XCENC  =        68.18933315
  PAW double counting   =      1115.40014031    -1119.60903880
  entropy T*S    EENTRO =        -0.00000000
  eigenvalues    EBANDS =      -223.50597499
  atomic energy  EATOM  =       914.71016949
  Solvation  Ediel_sol  =         0.00000000
  ---------------------------------------------------
  free energy    TOTEN  =       -28.47697284 eV

  energy without entropy =      -28.47697284  energy(sigma->0) =      -28.47697284


--------------------------------------------------------------------------------------------------------




--------------------------------------- Iteration      1(  10)  ---------------------------------------


    POTLOK:  cpu time   22.9078: real time   22.9393
    SETDIJ:  cpu time    0.0602: real time    0.0603
     EDDAV:  cpu time    9.7014: real time    9.7170
       DOS:  cpu time    0.0036: real time    0.0036
    CHARGE:  cpu time    2.9501: real time    2.9543
    MIXING:  cpu time    0.5696: real time    0.5705
    --------------------------------------------
      LOOP:  cpu time   36.1927: real time   36.2450

 eigenvalue-minimisations  :    32
 total energy-change (2. order) :-0.6536119E-02  (-0.7320709E-03)
 number of electron      16.0000000 magnetization 
 augmentation part        1.3947270 magnetization 

 Broyden mixing:
  rms(total) = 0.11270E-01    rms(broyden)= 0.11270E-01
  rms(prec ) = 0.13480E-01
  weight for this iteration     100.00

 eigenvalues of (default mixing * dielectric matrix)
  average eigenvalue GAMMA=   1.7110
  3.2248  2.4375  1.0402  0.9263  0.9263

 Free energy of the ion-electron system (eV)
  ---------------------------------------------------
  alpha Z        PSCENC =         0.02092140
  Ewald energy   TEWEN  =       395.13515513
  -Hartree energ DENC   =     -1180.28322862
  -exchange      EXHF   =         0.00000000
  -V(xc)+E(xc)   XCENC  =        68.20145775
  PAW double counting   =      1101.34114064    -1105.52756884
  entropy T*S    EENTRO =        -0.00000000
  eigenvalues    EBANDS =      -222.08155592
  atomic energy  EATOM  =       914.71016949
  Solvation  Ediel_sol  =         0.00000000
  ---------------------------------------------------
  free energy    TOTEN  =       -28.48350896 eV

  energy without entropy =      -28.48350896  energy(sigma->0) =      -28.48350896


--------------------------------------------------------------------------------------------------------




--------------------------------------- Iteration      1(  11)  ---------------------------------------


    POTLOK:  cpu time   23.0308: real time   23.0624
    SETDIJ:  cpu time    0.0476: real time    0.0476
     EDDAV:  cpu time    9.6981: real time    9.7138
       DOS:  cpu time    0.0050: real time    0.0051
    CHARGE:  cpu time    2.9570: real time    2.9612
    MIXING:  cpu time    0.5243: real time    0.5252
    --------------------------------------------
      LOOP:  cpu time   36.2629: real time   36.3153

 eigenvalue-minimisations  :    32
 total energy-change (2. order) :-0.2469544E-02  (-0.3859657E-03)
 number of electron      16.0000000 magnetization 
 augmentation part        1.3909120 magnetization 

 Broyden mixing:
  rms(total) = 0.59503E-02    rms(broyden)= 0.59503E-02
  rms(prec ) = 0.80643E-02
  weight for this iteration     100.00

 eigenvalues of (default mixing * dielectric matrix)
  average eigenvalue GAMMA=   1.9822
  3.9173  2.7807  2.2673  0.9732  0.9732  0.9815

 Free energy of the ion-electron system (eV)
  ---------------------------------------------------
  alpha Z        PSCENC =         0.02092140
  Ewald energy   TEWEN  =       395.13515513
  -Hartree energ DENC   =     -1181.40035211
  -exchange      EXHF   =         0.00000000
  -V(xc)+E(xc)   XCENC  =        68.24491597
  PAW double counting   =      1103.24967292    -1107.44254202
  entropy T*S    EENTRO =        -0.00000000
  eigenvalues    EBANDS =      -221.00391928
  atomic energy  EATOM  =       914.71016949
  Solvation  Ediel_sol  =         0.00000000
  ---------------------------------------------------
  free energy    TOTEN  =       -28.48597850 eV

  energy without entropy =      -28.48597850  energy(sigma->0) =      -28.48597850


--------------------------------------------------------------------------------------------------------




--------------------------------------- Iteration      1(  12)  ---------------------------------------


    POTLOK:  cpu time   23.0262: real time   23.0582
    SETDIJ:  cpu time    0.0498: real time    0.0499
     EDDAV:  cpu time    7.9751: real time    7.9885
       DOS:  cpu time    0.0044: real time    0.0045
    CHARGE:  cpu time    2.9717: real time    2.9759
    MIXING:  cpu time    0.5747: real time    0.5756
    --------------------------------------------
      LOOP:  cpu time   34.6019: real time   34.6525

 eigenvalue-minimisations  :    24
 total energy-change (2. order) :-0.1045309E-01  (-0.2925409E-03)
 number of electron      16.0000000 magnetization 
 augmentation part        1.3918954 magnetization 

 Broyden mixing:
  rms(total) = 0.28318E-02    rms(broyden)= 0.28318E-02
  rms(prec ) = 0.38475E-02
  weight for this iteration     100.00

 eigenvalues of (default mixing * dielectric matrix)
  average eigenvalue GAMMA=   2.0385
  4.3312  3.3013  2.4610  1.2244  1.0058  1.0058  0.9401

 Free energy of the ion-electron system (eV)
  ---------------------------------------------------
  alpha Z        PSCENC =         0.02092140
  Ewald energy   TEWEN  =       395.13515513
  -Hartree energ DENC   =     -1181.90563960
  -exchange      EXHF   =         0.00000000
  -V(xc)+E(xc)   XCENC  =        68.23296551
  PAW double counting   =      1102.77606689    -1106.97032614
  entropy T*S    EENTRO =        -0.00000000
  eigenvalues    EBANDS =      -220.49574426
  atomic energy  EATOM  =       914.71016949
  Solvation  Ediel_sol  =         0.00000000
  ---------------------------------------------------
  free energy    TOTEN  =       -28.49643159 eV

  energy without entropy =      -28.49643159  energy(sigma->0) =      -28.49643159


--------------------------------------------------------------------------------------------------------




--------------------------------------- Iteration      1(  13)  ---------------------------------------


    POTLOK:  cpu time   22.9686: real time   23.0031
    SETDIJ:  cpu time    0.0511: real time    0.0511
     EDDAV:  cpu time   11.4159: real time   11.4340
       DOS:  cpu time    0.0056: real time    0.0056
    CHARGE:  cpu time    2.9796: real time    2.9838
    MIXING:  cpu time    0.5942: real time    0.5952
    --------------------------------------------
      LOOP:  cpu time   38.0151: real time   38.0729

 eigenvalue-minimisations  :    40
 total energy-change (2. order) :-0.3863427E-02  (-0.7079213E-04)
 number of electron      16.0000000 magnetization 
 augmentation part        1.3913347 magnetization 

 Broyden mixing:
  rms(total) = 0.24396E-02    rms(broyden)= 0.24396E-02
  rms(prec ) = 0.29239E-02
  weight for this iteration     100.00

 eigenvalues of (default mixing * dielectric matrix)
  average eigenvalue GAMMA=   2.2081
  5.7514  3.1499  2.5654  2.2976  1.0759  0.9805  0.9805  0.8634

 Free energy of the ion-electron system (eV)
  ---------------------------------------------------
  alpha Z        PSCENC =         0.02092140
  Ewald energy   TEWEN  =       395.13515513
  -Hartree energ DENC   =     -1182.10592687
  -exchange      EXHF   =         0.00000000
  -V(xc)+E(xc)   XCENC  =        68.23224966
  PAW double counting   =      1104.35275891    -1108.54778412
  entropy T*S    EENTRO =        -0.00000000
  eigenvalues    EBANDS =      -220.29783863
  atomic energy  EATOM  =       914.71016949
  Solvation  Ediel_sol  =         0.00000000
  ---------------------------------------------------
  free energy    TOTEN  =       -28.50029502 eV

  energy without entropy =      -28.50029502  energy(sigma->0) =      -28.50029502


--------------------------------------------------------------------------------------------------------




--------------------------------------- Iteration      1(  14)  ---------------------------------------


    POTLOK:  cpu time   23.0046: real time   23.0362
    SETDIJ:  cpu time    0.0501: real time    0.0501
     EDDAV:  cpu time   11.4779: real time   11.4961
       DOS:  cpu time    0.0035: real time    0.0035
    CHARGE:  cpu time    2.9904: real time    2.9945
    MIXING:  cpu time    0.6463: real time    0.6473
    --------------------------------------------
      LOOP:  cpu time   38.1727: real time   38.2277

 eigenvalue-minimisations  :    40
 total energy-change (2. order) :-0.2665793E-02  (-0.3412788E-04)
 number of electron      16.0000000 magnetization 
 augmentation part        1.3908562 magnetization 

 Broyden mixing:
  rms(total) = 0.11091E-02    rms(broyden)= 0.11091E-02
  rms(prec ) = 0.13566E-02
  weight for this iteration     100.00

 eigenvalues of (default mixing * dielectric matrix)
  average eigenvalue GAMMA=   2.1796
  6.2868  3.2358  2.5889  2.3159  1.3499  1.0049  1.0049  0.9146  0.9146

 Free energy of the ion-electron system (eV)
  ---------------------------------------------------
  alpha Z        PSCENC =         0.02092140
  Ewald energy   TEWEN  =       395.13515513
  -Hartree energ DENC   =     -1182.28528504
  -exchange      EXHF   =         0.00000000
  -V(xc)+E(xc)   XCENC  =        68.23043011
  PAW double counting   =      1103.57592309    -1107.76896332
  entropy T*S    EENTRO =        -0.00000000
  eigenvalues    EBANDS =      -220.12131168
  atomic energy  EATOM  =       914.71016949
  Solvation  Ediel_sol  =         0.00000000
  ---------------------------------------------------
  free energy    TOTEN  =       -28.50296081 eV

  energy without entropy =      -28.50296081  energy(sigma->0) =      -28.50296081


--------------------------------------------------------------------------------------------------------




--------------------------------------- Iteration      1(  15)  ---------------------------------------


    POTLOK:  cpu time   22.9817: real time   23.0134
    SETDIJ:  cpu time    0.0975: real time    0.0976
     EDDAV:  cpu time    9.6994: real time    9.7170
       DOS:  cpu time    0.0068: real time    0.0068
    CHARGE:  cpu time    2.8935: real time    2.8975
    MIXING:  cpu time    0.8509: real time    0.8521
    --------------------------------------------
      LOOP:  cpu time   36.5297: real time   36.5844

 eigenvalue-minimisations  :    32
 total energy-change (2. order) :-0.8308151E-03  (-0.3673688E-05)
 number of electron      16.0000000 magnetization 
 augmentation part        1.3909021 magnetization 

 Broyden mixing:
  rms(total) = 0.77039E-03    rms(broyden)= 0.77039E-03
  rms(prec ) = 0.94522E-03
  weight for this iteration     100.00

 eigenvalues of (default mixing * dielectric matrix)
  average eigenvalue GAMMA=   2.2767
  7.4253  3.7370  2.5545  2.5545  1.7907  1.1211  0.9849  0.9849  0.8828  0.7313

 Free energy of the ion-electron system (eV)
  ---------------------------------------------------
  alpha Z        PSCENC =         0.02092140
  Ewald energy   TEWEN  =       395.13515513
  -Hartree energ DENC   =     -1182.28279903
  -exchange      EXHF   =         0.00000000
  -V(xc)+E(xc)   XCENC  =        68.22844826
  PAW double counting   =      1103.44683806    -1107.63955114
  entropy T*S    EENTRO =        -0.00000000
  eigenvalues    EBANDS =      -220.12297380
  atomic energy  EATOM  =       914.71016949
  Solvation  Ediel_sol  =         0.00000000
  ---------------------------------------------------
  free energy    TOTEN  =       -28.50379163 eV

  energy without entropy =      -28.50379163  energy(sigma->0) =      -28.50379163


--------------------------------------------------------------------------------------------------------




--------------------------------------- Iteration      1(  16)  ---------------------------------------


    POTLOK:  cpu time   22.9617: real time   22.9935
    SETDIJ:  cpu time    0.0488: real time    0.0489
     EDDAV:  cpu time    9.6716: real time    9.6871
       DOS:  cpu time    0.0028: real time    0.0028
    CHARGE:  cpu time    3.0245: real time    3.0288
    MIXING:  cpu time    0.7710: real time    0.7721
    --------------------------------------------
      LOOP:  cpu time   36.4805: real time   36.5332

 eigenvalue-minimisations  :    32
 total energy-change (2. order) :-0.7370577E-03  (-0.4893131E-05)
 number of electron      16.0000000 magnetization 
 augmentation part        1.3911056 magnetization 

 Broyden mixing:
  rms(total) = 0.42278E-03    rms(broyden)= 0.42278E-03
  rms(prec ) = 0.52202E-03
  weight for this iteration     100.00

 eigenvalues of (default mixing * dielectric matrix)
  average eigenvalue GAMMA=   2.3685
  8.0669  4.3740  2.9629  2.4184  2.2539  1.2320  1.0911  0.9820  0.9820  0.8911
  0.7993

 Free energy of the ion-electron system (eV)
  ---------------------------------------------------
  alpha Z        PSCENC =         0.02092140
  Ewald energy   TEWEN  =       395.13515513
  -Hartree energ DENC   =     -1182.24854879
  -exchange      EXHF   =         0.00000000
  -V(xc)+E(xc)   XCENC  =        68.22486726
  PAW double counting   =      1103.25820097    -1107.45026338
  entropy T*S    EENTRO =        -0.00000000
  eigenvalues    EBANDS =      -220.15503076
  atomic energy  EATOM  =       914.71016949
  Solvation  Ediel_sol  =         0.00000000
  ---------------------------------------------------
  free energy    TOTEN  =       -28.50452868 eV

  energy without entropy =      -28.50452868  energy(sigma->0) =      -28.50452868


--------------------------------------------------------------------------------------------------------




--------------------------------------- Iteration      1(  17)  ---------------------------------------


    POTLOK:  cpu time   22.9888: real time   23.0230
    SETDIJ:  cpu time    0.0560: real time    0.0560
     EDDAV:  cpu time    9.7527: real time    9.7684
       DOS:  cpu time    0.0077: real time    0.0077
    CHARGE:  cpu time    2.9952: real time    2.9994
    MIXING:  cpu time    0.7003: real time    0.7014
    --------------------------------------------
      LOOP:  cpu time   36.5006: real time   36.5558

 eigenvalue-minimisations  :    32
 total energy-change (2. order) :-0.4400286E-03  (-0.2111925E-05)
 number of electron      16.0000000 magnetization 
 augmentation part        1.3910452 magnetization 

 Broyden mixing:
  rms(total) = 0.16577E-03    rms(broyden)= 0.16577E-03
  rms(prec ) = 0.22744E-03
  weight for this iteration     100.00

 eigenvalues of (default mixing * dielectric matrix)
  average eigenvalue GAMMA=   2.4263
  8.5957  4.7722  3.0181  2.8773  2.3709  1.5408  1.3039  0.9812  0.9812  0.9953
  0.8820  0.7972

 Free energy of the ion-electron system (eV)
  ---------------------------------------------------
  alpha Z        PSCENC =         0.02092140
  Ewald energy   TEWEN  =       395.13515513
  -Hartree energ DENC   =     -1182.26423983
  -exchange      EXHF   =         0.00000000
  -V(xc)+E(xc)   XCENC  =        68.22497388
  PAW double counting   =      1103.28789192    -1107.48020162
  entropy T*S    EENTRO =        -0.00000000
  eigenvalues    EBANDS =      -220.13963909
  atomic energy  EATOM  =       914.71016949
  Solvation  Ediel_sol  =         0.00000000
  ---------------------------------------------------
  free energy    TOTEN  =       -28.50496871 eV

  energy without entropy =      -28.50496871  energy(sigma->0) =      -28.50496871


--------------------------------------------------------------------------------------------------------




--------------------------------------- Iteration      1(  18)  ---------------------------------------


    POTLOK:  cpu time   22.9483: real time   22.9800
    SETDIJ:  cpu time    0.0478: real time    0.0478
     EDDAV:  cpu time    9.6893: real time    9.7053
       DOS:  cpu time    0.0054: real time    0.0054
    CHARGE:  cpu time    3.0081: real time    3.0125
    MIXING:  cpu time    0.9476: real time    0.9489
    --------------------------------------------
      LOOP:  cpu time   36.6466: real time   36.6998

 eigenvalue-minimisations  :    32
 total energy-change (2. order) :-0.2182675E-03  (-0.4032999E-06)
 number of electron      16.0000000 magnetization 
 augmentation part        1.3910361 magnetization 

 Broyden mixing:
  rms(total) = 0.13034E-03    rms(broyden)= 0.13034E-03
  rms(prec ) = 0.15115E-03
  weight for this iteration     100.00

 eigenvalues of (default mixing * dielectric matrix)
  average eigenvalue GAMMA=   2.5133
  9.1126  5.4155  3.6685  2.6724  2.5684  2.2676  1.1689  1.1689  0.9826  0.9826
  0.9953  0.8812  0.7891

 Free energy of the ion-electron system (eV)
  ---------------------------------------------------
  alpha Z        PSCENC =         0.02092140
  Ewald energy   TEWEN  =       395.13515513
  -Hartree energ DENC   =     -1182.26509523
  -exchange      EXHF   =         0.00000000
  -V(xc)+E(xc)   XCENC  =        68.22460469
  PAW double counting   =      1103.31314816    -1107.50570720
  entropy T*S    EENTRO =        -0.00000000
  eigenvalues    EBANDS =      -220.13838343
  atomic energy  EATOM  =       914.71016949
  Solvation  Ediel_sol  =         0.00000000
  ---------------------------------------------------
  free energy    TOTEN  =       -28.50518698 eV

  energy without entropy =      -28.50518698  energy(sigma->0) =      -28.50518698


--------------------------------------------------------------------------------------------------------




--------------------------------------- Iteration      1(  19)  ---------------------------------------


    POTLOK:  cpu time   22.9457: real time   22.9782
    SETDIJ:  cpu time    0.0525: real time    0.0526
     EDDAV:  cpu time    9.6923: real time    9.7078
       DOS:  cpu time    0.0026: real time    0.0026
    CHARGE:  cpu time    2.9857: real time    2.9899
    MIXING:  cpu time    0.9143: real time    0.9156
    --------------------------------------------
      LOOP:  cpu time   36.5931: real time   36.6467

 eigenvalue-minimisations  :    32
 total energy-change (2. order) :-0.8185607E-04  (-0.9863513E-07)
 number of electron      16.0000000 magnetization 
 augmentation part        1.3910525 magnetization 

 Broyden mixing:
  rms(total) = 0.64861E-04    rms(broyden)= 0.64861E-04
  rms(prec ) = 0.76295E-04
  weight for this iteration     100.00

 eigenvalues of (default mixing * dielectric matrix)
  average eigenvalue GAMMA=   2.5955
  9.2856  5.9468  4.0531  3.0159  2.4598  2.3284  2.3284  1.2232  0.9802  0.9802
  1.0796  0.9800  0.8803  0.7950

 Free energy of the ion-electron system (eV)
  ---------------------------------------------------
  alpha Z        PSCENC =         0.02092140
  Ewald energy   TEWEN  =       395.13515513
  -Hartree energ DENC   =     -1182.26621416
  -exchange      EXHF   =         0.00000000
  -V(xc)+E(xc)   XCENC  =        68.22443814
  PAW double counting   =      1103.34552296    -1107.53799232
  entropy T*S    EENTRO =        -0.00000000
  eigenvalues    EBANDS =      -220.13726949
  atomic energy  EATOM  =       914.71016949
  Solvation  Ediel_sol  =         0.00000000
  ---------------------------------------------------
  free energy    TOTEN  =       -28.50526884 eV

  energy without entropy =      -28.50526884  energy(sigma->0) =      -28.50526884


--------------------------------------------------------------------------------------------------------




--------------------------------------- Iteration      1(  20)  ---------------------------------------


    POTLOK:  cpu time   22.8786: real time   22.9118
    SETDIJ:  cpu time    0.0599: real time    0.0600
     EDDAV:  cpu time    7.9141: real time    7.9266
       DOS:  cpu time    0.0045: real time    0.0045
    CHARGE:  cpu time    2.9718: real time    2.9759
    MIXING:  cpu time    0.8525: real time    0.8538
    --------------------------------------------
      LOOP:  cpu time   34.6814: real time   34.7327

 eigenvalue-minimisations  :    24
 total energy-change (2. order) :-0.4798285E-04  (-0.5172845E-07)
 number of electron      16.0000000 magnetization 
 augmentation part        1.3910354 magnetization 

 Broyden mixing:
  rms(total) = 0.42569E-04    rms(broyden)= 0.42569E-04
  rms(prec ) = 0.46311E-04
  weight for this iteration     100.00

 eigenvalues of (default mixing * dielectric matrix)
  average eigenvalue GAMMA=   2.5672
  9.3744  6.2574  4.2307  3.2267  2.5362  2.5362  2.2377  1.2278  1.2278  0.9794
  0.9794  1.0658  0.9502  0.8785  0.8000

 Free energy of the ion-electron system (eV)
  ---------------------------------------------------
  alpha Z        PSCENC =         0.02092140
  Ewald energy   TEWEN  =       395.13515513
  -Hartree energ DENC   =     -1182.26961004
  -exchange      EXHF   =         0.00000000
  -V(xc)+E(xc)   XCENC  =        68.22456187
  PAW double counting   =      1103.33592982    -1107.52842219
  entropy T*S    EENTRO =        -0.00000000
  eigenvalues    EBANDS =      -220.13402230
  atomic energy  EATOM  =       914.71016949
  Solvation  Ediel_sol  =         0.00000000
  ---------------------------------------------------
  free energy    TOTEN  =       -28.50531682 eV

  energy without entropy =      -28.50531682  energy(sigma->0) =      -28.50531682


--------------------------------------------------------------------------------------------------------




--------------------------------------- Iteration      1(  21)  ---------------------------------------


    POTLOK:  cpu time   22.9310: real time   22.9630
    SETDIJ:  cpu time    0.0564: real time    0.0564
     EDDAV:  cpu time    6.2377: real time    6.2476
       DOS:  cpu time    0.0057: real time    0.0057
    CHARGE:  cpu time    2.9932: real time    2.9974
    MIXING:  cpu time    0.9035: real time    0.9050
    --------------------------------------------
      LOOP:  cpu time   33.1274: real time   33.1751

 eigenvalue-minimisations  :    16
 total energy-change (2. order) :-0.1069438E-04  (-0.6034163E-08)
 number of electron      16.0000000 magnetization 
 augmentation part        1.3910430 magnetization 

 Broyden mixing:
  rms(total) = 0.13263E-04    rms(broyden)= 0.13263E-04
  rms(prec ) = 0.16956E-04
  weight for this iteration     100.00

 eigenvalues of (default mixing * dielectric matrix)
  average eigenvalue GAMMA=   2.5827
  9.5629  6.5657  4.5897  3.3774  2.7791  2.5100  2.2087  1.8379  1.2507  0.9779
  0.9779  1.0304  1.0304  0.9477  0.8780  0.7980

 Free energy of the ion-electron system (eV)
  ---------------------------------------------------
  alpha Z        PSCENC =         0.02092140
  Ewald energy   TEWEN  =       395.13515513
  -Hartree energ DENC   =     -1182.26841415
  -exchange      EXHF   =         0.00000000
  -V(xc)+E(xc)   XCENC  =        68.22448079
  PAW double counting   =      1103.32953757    -1107.52198438
  entropy T*S    EENTRO =        -0.00000000
  eigenvalues    EBANDS =      -220.13519336
  atomic energy  EATOM  =       914.71016949
  Solvation  Ediel_sol  =         0.00000000
  ---------------------------------------------------
  free energy    TOTEN  =       -28.50532751 eV

  energy without entropy =      -28.50532751  energy(sigma->0) =      -28.50532751


--------------------------------------------------------------------------------------------------------




--------------------------------------- Iteration      1(  22)  ---------------------------------------


    POTLOK:  cpu time   22.8878: real time   22.9214
    SETDIJ:  cpu time    0.0568: real time    0.0568
     EDDAV:  cpu time    6.2599: real time    6.2718
       DOS:  cpu time    0.0023: real time    0.0023
    CHARGE:  cpu time    2.9703: real time    2.9745
    MIXING:  cpu time    0.9405: real time    0.9421
    --------------------------------------------
      LOOP:  cpu time   33.1176: real time   33.1689

 eigenvalue-minimisations  :    16
 total energy-change (2. order) :-0.7356522E-05  (-0.4107482E-08)
 number of electron      16.0000000 magnetization 
 augmentation part        1.3910440 magnetization 

 Broyden mixing:
  rms(total) = 0.79669E-05    rms(broyden)= 0.79669E-05
  rms(prec ) = 0.99350E-05
  weight for this iteration     100.00

 eigenvalues of (default mixing * dielectric matrix)
  average eigenvalue GAMMA=   2.5858
  9.5791  6.9110  4.7976  3.6631  2.8885  2.3542  2.3542  2.3406  1.2163  1.2163
  0.9787  0.9787  1.0363  0.9844  0.9844  0.8776  0.7974

 Free energy of the ion-electron system (eV)
  ---------------------------------------------------
  alpha Z        PSCENC =         0.02092140
  Ewald energy   TEWEN  =       395.13515513
  -Hartree energ DENC   =     -1182.26850073
  -exchange      EXHF   =         0.00000000
  -V(xc)+E(xc)   XCENC  =        68.22447197
  PAW double counting   =      1103.32904065    -1107.52148422
  entropy T*S    EENTRO =        -0.00000000
  eigenvalues    EBANDS =      -220.13510856
  atomic energy  EATOM  =       914.71016949
  Solvation  Ediel_sol  =         0.00000000
  ---------------------------------------------------
  free energy    TOTEN  =       -28.50533487 eV

  energy without entropy =      -28.50533487  energy(sigma->0) =      -28.50533487


--------------------------------------------------------------------------------------------------------




--------------------------------------- Iteration      1(  23)  ---------------------------------------


    POTLOK:  cpu time   22.9465: real time   22.9784
    SETDIJ:  cpu time    0.0496: real time    0.0496
     EDDAV:  cpu time    7.9152: real time    7.9289
       DOS:  cpu time    0.0039: real time    0.0039
    CHARGE:  cpu time    2.9550: real time    2.9591
    MIXING:  cpu time    1.0256: real time    1.0271
    --------------------------------------------
      LOOP:  cpu time   34.8958: real time   34.9471

 eigenvalue-minimisations  :    24
 total energy-change (2. order) :-0.3522906E-05  (-0.2860043E-08)
 number of electron      16.0000000 magnetization 
 augmentation part        1.3910434 magnetization 

 Broyden mixing:
  rms(total) = 0.53484E-05    rms(broyden)= 0.53484E-05
  rms(prec ) = 0.63444E-05
  weight for this iteration     100.00

 eigenvalues of (default mixing * dielectric matrix)
  average eigenvalue GAMMA=   2.6246
  9.6631  7.1721  5.1836  3.8893  3.0303  2.8033  2.4382  2.0871  2.0871  1.2423
  0.9785  0.9785  1.0572  1.0572  0.7983  0.8767  0.9754  0.9252

 Free energy of the ion-electron system (eV)
  ---------------------------------------------------
  alpha Z        PSCENC =         0.02092140
  Ewald energy   TEWEN  =       395.13515513
  -Hartree energ DENC   =     -1182.26866057
  -exchange      EXHF   =         0.00000000
  -V(xc)+E(xc)   XCENC  =        68.22447998
  PAW double counting   =      1103.33259478    -1107.52504699
  entropy T*S    EENTRO =        -0.00000000
  eigenvalues    EBANDS =      -220.13495162
  atomic energy  EATOM  =       914.71016949
  Solvation  Ediel_sol  =         0.00000000
  ---------------------------------------------------
  free energy    TOTEN  =       -28.50533839 eV

  energy without entropy =      -28.50533839  energy(sigma->0) =      -28.50533839


--------------------------------------------------------------------------------------------------------




--------------------------------------- Iteration      1(  24)  ---------------------------------------


    POTLOK:  cpu time   22.9248: real time   22.9567
    SETDIJ:  cpu time    0.0496: real time    0.0496
     EDDAV:  cpu time    6.1943: real time    6.2040
       DOS:  cpu time    0.0065: real time    0.0066
    CHARGE:  cpu time    2.9829: real time    2.9871
    MIXING:  cpu time    1.1112: real time    1.1129
    --------------------------------------------
      LOOP:  cpu time   33.2693: real time   33.3168

 eigenvalue-minimisations  :    16
 total energy-change (2. order) :-0.1922465E-05  (-0.1839254E-08)
 number of electron      16.0000000 magnetization 
 augmentation part        1.3910430 magnetization 

 Broyden mixing:
  rms(total) = 0.31450E-05    rms(broyden)= 0.31450E-05
  rms(prec ) = 0.35585E-05
  weight for this iteration     100.00

 eigenvalues of (default mixing * dielectric matrix)
  average eigenvalue GAMMA=   2.6112
  9.6992  7.4188  5.4338  4.1150  3.1757  2.7111  2.4177  2.2403  2.2403  1.3612
  1.1694  0.9790  0.9790  1.0574  1.0574  0.7985  0.9843  0.8780  0.8965

 Free energy of the ion-electron system (eV)
  ---------------------------------------------------
  alpha Z        PSCENC =         0.02092140
  Ewald energy   TEWEN  =       395.13515513
  -Hartree energ DENC   =     -1182.26867890
  -exchange      EXHF   =         0.00000000
  -V(xc)+E(xc)   XCENC  =        68.22447944
  PAW double counting   =      1103.33235894    -1107.52481817
  entropy T*S    EENTRO =        -0.00000000
  eigenvalues    EBANDS =      -220.13492765
  atomic energy  EATOM  =       914.71016949
  Solvation  Ediel_sol  =         0.00000000
  ---------------------------------------------------
  free energy    TOTEN  =       -28.50534032 eV

  energy without entropy =      -28.50534032  energy(sigma->0) =      -28.50534032


--------------------------------------------------------------------------------------------------------




--------------------------------------- Iteration      1(  25)  ---------------------------------------


    POTLOK:  cpu time   22.8954: real time   22.9276
    SETDIJ:  cpu time    0.0542: real time    0.0542
     EDDAV:  cpu time    6.2338: real time    6.2438
       DOS:  cpu time    0.0048: real time    0.0048
    CHARGE:  cpu time    3.0173: real time    3.0216
    MIXING:  cpu time    1.0724: real time    1.0742
    --------------------------------------------
      LOOP:  cpu time   33.2779: real time   33.3261

 eigenvalue-minimisations  :    16
 total energy-change (2. order) :-0.5244542E-06  (-0.1001013E-08)
 number of electron      16.0000000 magnetization 
 augmentation part        1.3910435 magnetization 

 Broyden mixing:
  rms(total) = 0.19060E-05    rms(broyden)= 0.19060E-05
  rms(prec ) = 0.21915E-05
  weight for this iteration     100.00

 eigenvalues of (default mixing * dielectric matrix)
  average eigenvalue GAMMA=   2.6544
  9.7333  7.7139  5.7430  4.4043  3.4612  2.8801  2.5092  2.3475  2.2057  2.2057
  1.2324  0.9790  0.9790  1.0864  1.0864  0.9822  0.9822  0.7984  0.8710  0.8879

 Free energy of the ion-electron system (eV)
  ---------------------------------------------------
  alpha Z        PSCENC =         0.02092140
  Ewald energy   TEWEN  =       395.13515513
  -Hartree energ DENC   =     -1182.26852652
  -exchange      EXHF   =         0.00000000
  -V(xc)+E(xc)   XCENC  =        68.22447108
  PAW double counting   =      1103.33178678    -1107.52424159
  entropy T*S    EENTRO =        -0.00000000
  eigenvalues    EBANDS =      -220.13507661
  atomic energy  EATOM  =       914.71016949
  Solvation  Ediel_sol  =         0.00000000
  ---------------------------------------------------
  free energy    TOTEN  =       -28.50534084 eV

  energy without entropy =      -28.50534084  energy(sigma->0) =      -28.50534084


--------------------------------------------------------------------------------------------------------




--------------------------------------- Iteration      1(  26)  ---------------------------------------


    POTLOK:  cpu time   22.8406: real time   22.8727
    SETDIJ:  cpu time    0.0492: real time    0.0492
     EDDAV:  cpu time    6.2149: real time    6.2248
       DOS:  cpu time    0.0045: real time    0.0045
    CHARGE:  cpu time    3.0066: real time    3.0109
    MIXING:  cpu time    1.1026: real time    1.1044
    --------------------------------------------
      LOOP:  cpu time   33.2184: real time   33.2666

 eigenvalue-minimisations  :    16
 total energy-change (2. order) :-0.4565034E-06  (-0.7124754E-09)
 number of electron      16.0000000 magnetization 
 augmentation part        1.3910437 magnetization 

 Broyden mixing:
  rms(total) = 0.21811E-05    rms(broyden)= 0.21811E-05
  rms(prec ) = 0.22734E-05
  weight for this iteration     100.00

 eigenvalues of (default mixing * dielectric matrix)
  average eigenvalue GAMMA=   2.6104
  9.7364  7.8605  5.8789  4.5452  3.5591  2.8286  2.5450  2.4358  2.1472  2.1472
  1.4099  0.9791  0.9791  1.1207  1.1207  1.0704  0.9805  0.7980  0.9237  0.8763
  0.8763

 Free energy of the ion-electron system (eV)
  ---------------------------------------------------
  alpha Z        PSCENC =         0.02092140
  Ewald energy   TEWEN  =       395.13515513
  -Hartree energ DENC   =     -1182.26852754
  -exchange      EXHF   =         0.00000000
  -V(xc)+E(xc)   XCENC  =        68.22447032
  PAW double counting   =      1103.33211361    -1107.52456742
  entropy T*S    EENTRO =        -0.00000000
  eigenvalues    EBANDS =      -220.13507628
  atomic energy  EATOM  =       914.71016949
  Solvation  Ediel_sol  =         0.00000000
  ---------------------------------------------------
  free energy    TOTEN  =       -28.50534130 eV

  energy without entropy =      -28.50534130  energy(sigma->0) =      -28.50534130


--------------------------------------------------------------------------------------------------------




--------------------------------------- Iteration      1(  27)  ---------------------------------------


    POTLOK:  cpu time   22.8589: real time   22.8915
    SETDIJ:  cpu time    0.0516: real time    0.0517
     EDDAV:  cpu time    7.9666: real time    7.9793
       DOS:  cpu time    0.0036: real time    0.0036
    --------------------------------------------
      LOOP:  cpu time   30.8807: real time   30.9260

 eigenvalue-minimisations  :    24
 total energy-change (2. order) :-0.9709902E-07  (-0.4937384E-09)
 number of electron      16.0000000 magnetization 
 augmentation part        1.3910437 magnetization 

 Free energy of the ion-electron system (eV)
  ---------------------------------------------------
  alpha Z        PSCENC =         0.02092140
  Ewald energy   TEWEN  =       395.13515513
  -Hartree energ DENC   =     -1182.26860114
  -exchange      EXHF   =         0.00000000
  -V(xc)+E(xc)   XCENC  =        68.22447459
  PAW double counting   =      1103.33202300    -1107.52447812
  entropy T*S    EENTRO =        -0.00000000
  eigenvalues    EBANDS =      -220.13500576
  atomic energy  EATOM  =       914.71016949
  Solvation  Ediel_sol  =         0.00000000
  ---------------------------------------------------
  free energy    TOTEN  =       -28.50534139 eV

  energy without entropy =      -28.50534139  energy(sigma->0) =      -28.50534139


--------------------------------------------------------------------------------------------------------




 average (electrostatic) potential at core
  the test charge radii are     0.5201  0.7215
  (the norm of the test charge is              1.0000)
       1 -44.9198       2 -44.9195       3 -44.5805       4 -44.6212       5 -80.7152
       6 -80.3975
 
 
 
 E-fermi :  -6.9717     XC(G=0):  -0.0351     alpha+bet : -0.0061


 k-point     1 :       0.0000    0.0000    0.0000
  band No.  band energies     occupation 
      1     -25.5481      2.00000
      2     -25.2315      2.00000
      3     -13.2988      2.00000
      4     -12.9813      2.00000
      5      -9.4500      2.00000
      6      -9.1242      2.00000
      7      -7.3733      2.00000
      8      -7.0602      2.00000
      9      -1.1151      0.00000
     10      -0.7118      0.00000
     11      -0.0026      0.00000
     12       0.0892      0.00000


--------------------------------------------------------------------------------------------------------


 soft charge-density along one line, spin component            1
         0         1         2         3         4         5         6         7         8         9
 total charge-density along one line
 
 pseudopotential strength for first ion, spin component:            1
 -2.382  -4.115  -0.010  -0.014   0.000
 -4.115  -7.020  -0.019  -0.027   0.001
 -0.010  -0.019  -0.312   0.015  -0.000
 -0.014  -0.027   0.015  -0.302  -0.000
  0.000   0.001  -0.000  -0.000  -0.323
 total augmentation occupancy for first ion, spin component:            1
  3.782  -0.789   0.450   0.602  -0.014
 -0.789   0.219  -0.094  -0.117   0.003
  0.450  -0.094   0.074   0.059  -0.001
  0.602  -0.117   0.059   0.105  -0.001
 -0.014   0.003  -0.001  -0.001   0.044


------------------------ aborting loop because EDIFF is reached ----------------------------------------



 DIPCOR: dipole corrections for dipol
 direction  1 min pos   501, direction  2 min pos   538, direction  3 min pos   525,
 dipolmoment          -0.293227      0.635042      0.008578 electrons x Angstroem
 Tr[quadrupol]         7.855719

 energy correction for charged system         0.000000 eV
 dipol+quadrupol energy correction            0.000344 eV
 added-field ion interaction          0.000000 eV  (added to PSCEN)

 
  *************** adding dipol energy to TOTEN NOW **************** 
    CHARGE:  cpu time    2.9330: real time    2.9373
    FORLOC:  cpu time    0.9771: real time    0.9783
    FORNL :  cpu time    0.2736: real time    0.2741
    STRESS:  cpu time    4.2576: real time    4.2642
    FORCOR:  cpu time   22.0906: real time   22.1199
    FORHAR:  cpu time    6.5201: real time    6.5294
    MIXING:  cpu time    1.1513: real time    1.1532
    OFIELD:  cpu time    0.0000: real time    0.0000

  FORCE on cell =-STRESS in cart. coord.  units (eV):
  Direction    XX          YY          ZZ          XY          YZ          ZX
  --------------------------------------------------------------------------------------
  Alpha Z     0.02092     0.02092     0.02092
  Ewald      39.44912   284.29861    71.38688    29.98895    -0.63746    -4.28476
  Hartree   334.00473   508.98678   339.27708     7.57960    -0.06972    -0.75119
  E(xc)     -72.65556   -72.31887   -72.54058     0.09322    -0.00234    -0.01758
  Local    -564.90383  -960.74880  -592.99562   -30.15834     0.51803     3.74767
  n-local   -61.87061   -61.98402   -61.37464     0.41276    -0.01278    -0.01248
  augment    14.56111    12.94550    13.98188    -0.47269     0.01191     0.08577
  Kinetic   311.85817   289.60026   302.93913    -7.27065     0.18786     1.20919
  Fock        0.00000     0.00000     0.00000     0.00000     0.00000     0.00000
  -------------------------------------------------------------------------------------
  Total       0.46406     0.80039     0.69505     0.17285    -0.00450    -0.02338
  in kB       0.01734     0.02991     0.02597     0.00646    -0.00017    -0.00087
  external pressure =        0.02 kB  Pullay stress =        0.00 kB


 VOLUME and BASIS-vectors are now :
 -----------------------------------------------------------------------------
  energy-cutoff  :     1600.00
  volume of cell :    42875.00
      direct lattice vectors                 reciprocal lattice vectors
    35.000000000  0.000000000  0.000000000     0.028571429  0.000000000  0.000000000
     0.000000000 35.000000000  0.000000000     0.000000000  0.028571429  0.000000000
     0.000000000  0.000000000 35.000000000     0.000000000  0.000000000  0.028571429

  length of vectors
    35.000000000 35.000000000 35.000000000     0.028571429  0.028571429  0.028571429


 FORCES acting on ions
    electron-ion (+dipol)            ewald-force                    non-local-force                 convergence-correction
 -----------------------------------------------------------------------------------------------
   -.161E+01 0.547E+02 0.732E+02   0.178E+01 -.600E+02 -.807E+02   -.160E+00 0.505E+01 0.701E+01   -.175E-06 0.589E-06 0.533E-06
   0.137E+01 0.555E+02 -.726E+02   -.151E+01 -.610E+02 0.800E+02   0.126E+00 0.513E+01 -.695E+01   -.161E-06 0.775E-06 -.518E-06
   0.562E+01 0.840E+02 0.412E-01   -.619E+01 -.932E+02 -.456E-01   0.491E+00 0.864E+01 0.531E-02   0.121E-06 -.178E-05 -.606E-08
   -.868E+02 -.262E+02 0.174E+01   0.956E+02 0.285E+02 -.192E+01   -.836E+01 -.217E+01 0.168E+00   0.113E-05 -.581E-06 -.305E-07
   0.747E+00 -.420E+02 -.371E+00   -.989E+00 0.920E+02 0.660E+00   0.249E+00 -.495E+02 -.286E+00   -.145E-05 0.932E-06 0.264E-05
   0.499E+02 -.620E+02 -.111E+01   -.887E+02 0.937E+02 0.197E+01   0.384E+02 -.313E+02 -.845E+00   0.503E-05 -.865E-05 -.250E-06
 -----------------------------------------------------------------------------------------------
   -.307E+02 0.641E+02 0.900E+00   0.142E-13 0.284E-13 -.777E-14   0.307E+02 -.641E+02 -.899E+00   0.450E-05 -.871E-05 0.237E-05
 
 
 POSITION                                       TOTAL-FORCE (eV/Angst)
 -----------------------------------------------------------------------------------
      0.01761      0.64046     34.23865         0.007108     -0.268559     -0.461145
     34.98662      0.63163      0.75455        -0.011559     -0.273507      0.458190
      0.02409      5.82692      0.00129        -0.083201     -0.553645      0.000927
      0.98480      6.99983     34.98366         0.495106      0.172708     -0.009732
      0.00000      1.22721      0.00000         0.007009      0.557356      0.002793
      0.04724      6.78801      0.00253        -0.414463      0.365648      0.008967
 -----------------------------------------------------------------------------------
    total drift:                                0.000093      0.000053      0.000054


--------------------------------------------------------------------------------------------------------



  FREE ENERGIE OF THE ION-ELECTRON SYSTEM (eV)
  ---------------------------------------------------
  free  energy   TOTEN  =       -28.50499720 eV

  energy  without entropy=      -28.50499720  energy(sigma->0) =      -28.50499720
 


--------------------------------------------------------------------------------------------------------


    POTLOK:  cpu time   22.8912: real time   22.9227


--------------------------------------------------------------------------------------------------------


 writing wavefunctions
     LOOP+:  cpu time 1665.5011: real time 1672.0076
    4ORBIT:  cpu time    0.0001: real time    0.0018

 total amount of memory used by VASP MPI-rank0  3455162. kBytes
=======================================================================

   base      :      30000. kBytes
   nonl-proj :      87230. kBytes
   fftplans  :    1215227. kBytes
   grid      :    2104012. kBytes
   one-center:          1. kBytes
   wavefun   :      18692. kBytes
 
  
  
 General timing and accounting informations for this job:
 ========================================================
  
                  Total CPU time used (sec):     2494.210
                            User time (sec):     2413.514
                          System time (sec):       80.697
                         Elapsed time (sec):     2507.401
  
                   Maximum memory used (kb):     4256124.
                   Average memory used (kb):           0.
  
                          Minor page faults:     46978628
                          Major page faults:          446
                 Voluntary context switches:        34510
