 vasp.6.1.2 22Jul20 (build Jan  6 2021 09:55:43) gamma-only                      
 executed on             LinuxPGI date 2021.02.28  22:03:32
 running on   32 total cores
 distrk:  each k-point on   32 cores,    1 groups
 distr:  one band on NCORE=   8 cores,    4 groups


--------------------------------------------------------------------------------------------------------


 INCAR:
 POTCAR:    PAW_PBE H 15Jun2001                   
 POTCAR:    PAW_PBE O 08Apr2002                   
 POTCAR:    PAW_PBE H 15Jun2001                   
   VRHFIN =H: ultrasoft test                                                                        
   LEXCH  = PE                                                                                      
   EATOM  =    12.4884 eV,    0.9179 Ry                                                             
                                                                                                    
   TITEL  = PAW_PBE H 15Jun2001                                                                     
   LULTRA =        F    use ultrasoft PP ?                                                          
   IUNSCR =        0    unscreen: 0-lin 1-nonlin 2-no                                               
   RPACOR =    0.000    partial core radius                                                         
   POMASS =    1.000; ZVAL   =    1.000    mass and valenz                                          
   RCORE  =    1.100    outmost cutoff radius                                                       
   RWIGS  =    0.700; RWIGS  =    0.370    wigner-seitz radius (au A)                               
   ENMAX  =  250.000; ENMIN  =  200.000 eV                                                          
   RCLOC  =    0.701    cutoff for local pot                                                        
   LCOR   =        T    correct aug charges                                                         
   LPAW   =        T    paw PP                                                                      
   EAUG   =  400.000                                                                                
   RMAX   =    1.123    core radius for proj-oper                                                   
   RAUG   =    1.200    factor for augmentation sphere                                              
   RDEP   =    1.112    radius for radial grids                                                     
   RDEPT  =    0.926    core radius for aug-charge                                                  
                                                                                                    
   Atomic configuration                                                                             
    2 entries                                                                                       
     n  l   j            E        occ.                                                              
     1  0  0.50        -6.4927   1.0000                                                             
     2  1  0.50        -3.4015   0.0000                                                             
   Description                                                                                      
     l       E           TYP  RCUT    TYP  RCUT                                                     
     0     -6.4927494     23  1.100                                                                 
     0      6.8029130     23  1.100                                                                 
     1     -4.0817478     23  1.100                                                                 
  local pseudopotential read in
  atomic valenz-charges read in
  non local Contribution for L=            0  read in
    real space projection operators read in
  non local Contribution for L=            0  read in
    real space projection operators read in
  non local Contribution for L=            1  read in
    real space projection operators read in
    PAW grid and wavefunctions read in
 
   number of l-projection  operators is LMAX  =            3
   number of lm-projection operators is LMMAX =            5
 
 POTCAR:    PAW_PBE O 08Apr2002                   
   VRHFIN =O: s2p4                                                                                  
   LEXCH  = PE                                                                                      
   EATOM  =   432.3788 eV,   31.7789 Ry                                                             
                                                                                                    
   TITEL  = PAW_PBE O 08Apr2002                                                                     
   LULTRA =        F    use ultrasoft PP ?                                                          
   IUNSCR =        1    unscreen: 0-lin 1-nonlin 2-no                                               
   RPACOR =    1.200    partial core radius                                                         
   POMASS =   16.000; ZVAL   =    6.000    mass and valenz                                          
   RCORE  =    1.520    outmost cutoff radius                                                       
   RWIGS  =    1.550; RWIGS  =    0.820    wigner-seitz radius (au A)                               
   ENMAX  =  400.000; ENMIN  =  300.000 eV                                                          
   ICORE  =        2    local potential                                                             
   LCOR   =        T    correct aug charges                                                         
   LPAW   =        T    paw PP                                                                      
   EAUG   =  605.392                                                                                
   DEXC   =    0.000                                                                                
   RMAX   =    1.553    core radius for proj-oper                                                   
   RAUG   =    1.300    factor for augmentation sphere                                              
   RDEP   =    1.550    radius for radial grids                                                     
   RDEPT  =    1.329    core radius for aug-charge                                                  
                                                                                                    
   Atomic configuration                                                                             
    4 entries                                                                                       
     n  l   j            E        occ.                                                              
     1  0  0.50      -514.6923   2.0000                                                             
     2  0  0.50       -23.9615   2.0000                                                             
     2  1  0.50        -9.0305   4.0000                                                             
     3  2  1.50        -9.5241   0.0000                                                             
   Description                                                                                      
     l       E           TYP  RCUT    TYP  RCUT                                                     
     0    -23.9615318     23  1.200                                                                 
     0     -9.5240782     23  1.200                                                                 
     1     -9.0304911     23  1.520                                                                 
     1      8.1634956     23  1.520                                                                 
     2     -9.5240782      7  1.500                                                                 
  local pseudopotential read in
  partial core-charges read in
  partial kinetic energy density read in
  kinetic energy density of atom read in
  atomic valenz-charges read in
  non local Contribution for L=            0  read in
    real space projection operators read in
  non local Contribution for L=            0  read in
    real space projection operators read in
  non local Contribution for L=            1  read in
    real space projection operators read in
  non local Contribution for L=            1  read in
    real space projection operators read in
    PAW grid and wavefunctions read in
 
   number of l-projection  operators is LMAX  =            4
   number of lm-projection operators is LMMAX =            8
 
  PAW_PBE H 15Jun2001                   :
 energy of atom  1       EATOM=  -12.4884
 kinetic energy error for atom=    0.0000 (will be added to EATOM!!)
  PAW_PBE O 08Apr2002                   :
 energy of atom  2       EATOM= -432.3788
 kinetic energy error for atom=    0.0005 (will be added to EATOM!!)
 
 
 POSCAR:  H  O
  positions in cartesian coordinates
  No initial velocities read in
 exchange correlation table for  LEXCH =        8
   RHO(1)=    0.500       N(1)  =     2000
   RHO(2)=  100.500       N(2)  =     4000
 


--------------------------------------------------------------------------------------------------------


 ion  position               nearest neighbor table
   1  0.001  0.018  0.978-   5 0.96
   2  1.000  0.018  0.022-   5 0.96
   3  0.001  0.169  0.000-   6 0.96
   4  0.028  0.203  1.000-   6 0.96
   5  0.000  0.035  0.000-   1 0.96   2 0.96
   6  0.001  0.197  0.000-   3 0.96   4 0.96
 
  LATTYP: Found a simple cubic cell.
 ALAT       =    35.0000000000
  
  Lattice vectors:
  
 A1 = (  35.0000000000,   0.0000000000,   0.0000000000)
 A2 = (   0.0000000000,  35.0000000000,   0.0000000000)
 A3 = (   0.0000000000,   0.0000000000,  35.0000000000)


Analysis of symmetry for initial positions (statically):
=====================================================================
 Subroutine PRICEL returns:
 Original cell was already a primitive cell.
 

 Routine SETGRP: Setting up the symmetry group for a 
 simple cubic supercell.


 Subroutine GETGRP returns: Found  1 space group operations
 (whereof  1 operations were pure point group operations)
 out of a pool of 48 trial point group operations.


The static configuration has the point symmetry C_1 .


Analysis of symmetry for dynamics (positions and initial velocities):
=====================================================================
 Subroutine PRICEL returns:
 Original cell was already a primitive cell.
 

 Routine SETGRP: Setting up the symmetry group for a 
 simple cubic supercell.


 Subroutine GETGRP returns: Found  1 space group operations
 (whereof  1 operations were pure point group operations)
 out of a pool of 48 trial point group operations.


The dynamic configuration has the point symmetry C_1 .


 Subroutine INISYM returns: Found  1 space group operations
 (whereof  1 operations are pure point group operations),
 and found     1 'primitive' translations


----------------------------------------------------------------------------------------

                                     Primitive cell                                     

  volume of cell :   42875.0000

  direct lattice vectors                    reciprocal lattice vectors
    35.000000000  0.000000000  0.000000000     0.028571429  0.000000000  0.000000000
     0.000000000 35.000000000  0.000000000     0.000000000  0.028571429  0.000000000
     0.000000000  0.000000000 35.000000000     0.000000000  0.000000000  0.028571429

  length of vectors
    35.000000000 35.000000000 35.000000000     0.028571429  0.028571429  0.028571429

  position of ions in fractional coordinates (direct lattice)
     0.000503079  0.018298976  0.978247097
     0.999617776  0.018046666  0.021558586
     0.000688177  0.169340430  0.000036905
     0.028137029  0.202852209  0.999533239
     0.000000000  0.035063029  0.000000000
     0.001349770  0.196800153  0.000072384

  ion indices of the primitive-cell ions
   primitive index   ion index
                 1           1
                 2           2
                 3           3
                 4           4
                 5           5
                 6           6

----------------------------------------------------------------------------------------

 
 
 KPOINTS: automatic mesh                          

Automatic generation of k-mesh.
Space group operators:
 irot       det(A)        alpha          n_x          n_y          n_z        tau_x        tau_y        tau_z
    1     1.000000     0.000000     1.000000     0.000000     0.000000     0.000000     0.000000     0.000000
 
 Subroutine IBZKPT returns following result:
 ===========================================
 
 Found      1 irreducible k-points:
 
 Following reciprocal coordinates:
            Coordinates               Weight
  0.000000  0.000000  0.000000      1.000000
 
 Following cartesian coordinates:
            Coordinates               Weight
  0.000000  0.000000  0.000000      1.000000
 


--------------------------------------------------------------------------------------------------------




 Dimension of arrays:
   k-points           NKPTS =      1   k-points in BZ     NKDIM =      1   number of bands    NBANDS=     12
   number of dos      NEDOS =    301   number of ions     NIONS =      6
   non local maximal  LDIM  =      4   non local SUM 2l+1 LMDIM =      8
   total plane-waves  NPLWV = ******
   max r-space proj   IRMAX =      1   max aug-charges    IRDMAX=  33660
   dimension x,y,z NGX =   480 NGY =  480 NGZ =  480
   dimension x,y,z NGXF=   960 NGYF=  960 NGZF=  960
   support grid    NGXF=   960 NGYF=  960 NGZF=  960
   ions per type =               4   2
   NGX,Y,Z   is equivalent  to a cutoff of  22.80, 22.80, 22.80 a.u.
   NGXF,Y,Z  is equivalent  to a cutoff of  45.60, 45.60, 45.60 a.u.

 SYSTEM =  C                                       
 POSCAR =   H  O                                   

 Startparameter for this run:
   NWRITE =      2    write-flag & timer
   PREC   = acc       normal or accurate (medium, high low for compatibility)
   ISTART =      0    job   : 0-new  1-cont  2-samecut
   ICHARG =      2    charge: 1-file 2-atom 10-const
   ISPIN  =      1    spin polarized calculation?
   LNONCOLLINEAR =      F non collinear calculations
   LSORBIT =      F    spin-orbit coupling
   INIWAV =      1    electr: 0-lowe 1-rand  2-diag
   LASPH  =      T    aspherical Exc in radial PAW
   METAGGA=      F    non-selfconsistent MetaGGA calc.

 Electronic Relaxation 1
   ENCUT  = 1600.0 eV 117.60 Ry   10.84 a.u. 114.15114.15114.15*2*pi/ulx,y,z
   ENINI  = 1600.0     initial cutoff
   ENAUG  =  605.4 eV  augmentation charge cutoff
   NELM   =     60;   NELMIN=  2; NELMDL= -5     # of ELM steps 
   EDIFF  = 0.1E-06   stopping-criterion for ELM
   LREAL  =      F    real-space projection
   NLSPLINE    = F    spline interpolate recip. space projectors
   LCOMPAT=      F    compatible to vasp.4.4
   GGA_COMPAT  = T    GGA compatible to vasp.4.4-vasp.4.6
   LMAXPAW     = -100 max onsite density
   LMAXMIX     =    2 max onsite mixed and CHGCAR
   VOSKOWN=      0    Vosko Wilk Nusair interpolation
   ROPT   =    0.00000   0.00000
 Ionic relaxation
   EDIFFG = 0.1E-05   stopping-criterion for IOM
   NSW    =      0    number of steps for IOM
   NBLOCK =      1;   KBLOCK =      1    inner block; outer block 
   IBRION =     -1    ionic relax: 0-MD 1-quasi-New 2-CG
   NFREE  =      0    steps in history (QN), initial steepest desc. (CG)
   ISIF   =      2    stress and relaxation
   IWAVPR =     10    prediction:  0-non 1-charg 2-wave 3-comb
   ISYM   =      2    0-nonsym 1-usesym 2-fastsym
   LCORR  =      T    Harris-Foulkes like correction to forces

   POTIM  = 0.5000    time-step for ionic-motion
   TEIN   =    0.0    initial temperature
   TEBEG  =    0.0;   TEEND  =   0.0 temperature during run
   SMASS  =  -3.00    Nose mass-parameter (am)
   estimated Nose-frequenzy (Omega)   =  0.10E-29 period in steps = 0.13E+47 mass=  -0.280E-25a.u.
   SCALEE = 1.0000    scale energy and forces
   NPACO  =    256;   APACO  = 16.0  distance and # of slots for P.C.
   PSTRESS=    0.0 pullay stress

  Mass of Ions in am
   POMASS =   1.00 16.00
  Ionic Valenz
   ZVAL   =   1.00  6.00
  Atomic Wigner-Seitz radii
   RWIGS  =  -1.00 -1.00
  virtual crystal weights 
   VCA    =   1.00  1.00
   NELECT =      16.0000    total number of electrons
   NUPDOWN=      -1.0000    fix difference up-down

 DOS related values:
   EMIN   =  10.00;   EMAX   =-10.00  energy-range for DOS
   EFERMI =   0.00
   ISMEAR =     0;   SIGMA  =   0.01  broadening in eV -4-tet -1-fermi 0-gaus

 Electronic relaxation 2 (details)
   IALGO  =     38    algorithm
   LDIAG  =      T    sub-space diagonalisation (order eigenvalues)
   LSUBROT=      F    optimize rotation matrix (better conditioning)
   TURBO    =      0    0=normal 1=particle mesh
   IRESTART =      0    0=no restart 2=restart with 2 vectors
   NREBOOT  =      0    no. of reboots
   NMIN     =      0    reboot dimension
   EREF     =   0.00    reference energy to select bands
   IMIX   =      4    mixing-type and parameters
     AMIX     =   0.40;   BMIX     =  1.00
     AMIX_MAG =   1.60;   BMIX_MAG =  1.00
     AMIN     =   0.10
     WC   =   100.;   INIMIX=   1;  MIXPRE=   1;  MAXMIX= -45

 Intra band minimization:
   WEIMIN = 0.0000     energy-eigenvalue tresh-hold
   EBREAK =  0.21E-08  absolut break condition
   DEPER  =   0.30     relativ break condition  

   TIME   =   0.40     timestep for ELM

  volume/ion in A,a.u.               =    7145.83     48222.46
  Fermi-wavevector in a.u.,A,eV,Ry     =   0.117864  0.222730  0.189010  0.013892
  Thomas-Fermi vector in A             =   0.732055
 
 Write flags
   LWAVE        =      T    write WAVECAR
   LDOWNSAMPLE  =      F    k-point downsampling of WAVECAR
   LCHARG       =      T    write CHGCAR
   LVTOT        =      F    write LOCPOT, total local potential
   LVHAR        =      F    write LOCPOT, Hartree potential only
   LELF         =      F    write electronic localiz. function (ELF)
   LORBIT       =      0    0 simple, 1 ext, 2 COOP (PROOUT), +10 PAW based schemes


 Dipole corrections
   LMONO  =      F    monopole corrections only (constant potential shift)
   LDIPOL =      F    correct potential (dipole corrections)
   IDIPOL =      4    1-x, 2-y, 3-z, 4-all directions 
   EPSILON=  1.0000000 bulk dielectric constant

 Exchange correlation treatment:
   GGA     =    --    GGA type
   LEXCH   =     8    internal setting for exchange type
   VOSKOWN=      0    Vosko Wilk Nusair interpolation
   LHFCALC =     F    Hartree Fock is set to
   LHFONE  =     F    Hartree Fock one center treatment
   AEXX    =    0.0000 exact exchange contribution

 Linear response parameters
   LEPSILON=     F    determine dielectric tensor
   LRPA    =     F    only Hartree local field effects (RPA)
   LNABLA  =     F    use nabla operator in PAW spheres
   LVEL    =     F    velocity operator in full k-point grid
   LINTERFAST=   F  fast interpolation
   KINTER  =     0    interpolate to denser k-point grid
   CSHIFT  =0.1000    complex shift for real part using Kramers Kronig
   OMEGAMAX=  -1.0    maximum frequency
   DEG_THRESHOLD= 0.2000000E-02 threshold for treating states as degnerate
   RTIME   =   -0.100 relaxation time in fs
  (WPLASMAI=    0.000 imaginary part of plasma frequency in eV, 0.658/RTIME)
   DFIELD  = 0.0000000 0.0000000 0.0000000 field for delta impulse in time
 
 Orbital magnetization related:
   ORBITALMAG=     F  switch on orbital magnetization
   LCHIMAG   =     F  perturbation theory with respect to B field
   DQ        =  0.001000  dq finite difference perturbation B field
   LLRAUG    =     F  two centre corrections for induced B field



--------------------------------------------------------------------------------------------------------


 Static calculation
 charge density and potential will be updated during run
 non-spin polarized calculation
 Variant of blocked Davidson
 Davidson routine will perform the subspace rotation
 perform sub-space diagonalisation
    after iterative eigenvector-optimisation
 modified Broyden-mixing scheme, WC =      100.0
 initial mixing is a Kerker type mixing with AMIX =  0.4000 and BMIX =      1.0000
 Hartree-type preconditioning will be used
 using additional bands             4
 reciprocal scheme for non local part
 use partial core corrections
 calculate Harris-corrections to forces 
   (improved forces if not selfconsistent)
 use gradient corrections 
 use of overlap-Matrix (Vanderbilt PP)
 Gauss-broadening in eV      SIGMA  =   0.01


--------------------------------------------------------------------------------------------------------


  energy-cutoff  :     1600.00
  volume of cell :    42875.00
      direct lattice vectors                 reciprocal lattice vectors
    35.000000000  0.000000000  0.000000000     0.028571429  0.000000000  0.000000000
     0.000000000 35.000000000  0.000000000     0.000000000  0.028571429  0.000000000
     0.000000000  0.000000000 35.000000000     0.000000000  0.000000000  0.028571429

  length of vectors
    35.000000000 35.000000000 35.000000000     0.028571429  0.028571429  0.028571429


 
 k-points in units of 2pi/SCALE and weight: automatic mesh                          
   0.00000000  0.00000000  0.00000000       1.000
 
 k-points in reciprocal lattice and weights: automatic mesh                          
   0.00000000  0.00000000  0.00000000       1.000
 
 position of ions in fractional coordinates (direct lattice) 
   0.00050308  0.01829898  0.97824710
   0.99961778  0.01804667  0.02155859
   0.00068818  0.16934043  0.00003690
   0.02813703  0.20285221  0.99953324
   0.00000000  0.03506303  0.00000000
   0.00134977  0.19680015  0.00007238
 
 position of ions in cartesian coordinates  (Angst):
   0.01760775  0.64046416 34.23864840
  34.98662216  0.63163330  0.75455051
   0.02408619  5.92691505  0.00129166
   0.98479602  7.09982731 34.98366338
   0.00000000  1.22720600  0.00000000
   0.04724194  6.88800534  0.00253342
 


--------------------------------------------------------------------------------------------------------


 use parallel FFT for orbitals z direction half grid
 k-point   1 :   0.0000 0.0000 0.0000  plane waves: 3115599

 maximum and minimum number of plane-waves per node :    389462   389421

 maximum number of plane-waves:   3115599
 maximum index in each direction: 
   IXMAX=  114   IYMAX=  114   IZMAX=  114
   IXMIN= -114   IYMIN= -114   IZMIN=    0


 parallel 3D FFT for wavefunctions:
    minimum data exchange during FFTs selected (reduces bandwidth)
 parallel 3D FFT for charge:
    minimum data exchange during FFTs selected (reduces bandwidth)


 total amount of memory used by VASP MPI-rank0  3455162. kBytes
=======================================================================

   base      :      30000. kBytes
   nonl-proj :      87230. kBytes
   fftplans  :    1215227. kBytes
   grid      :    2104012. kBytes
   one-center:          1. kBytes
   wavefun   :      18692. kBytes
 
     INWAV:  cpu time    0.0000: real time    0.0000
 Broyden mixing: mesh for mixing (old mesh)
   NGX =229   NGY =229   NGZ =229
  (NGX  =960   NGY  =960   NGZ  =960)
  gives a total of ****** points

 initial charge density was supplied:
 charge density of overlapping atoms calculated
 number of electron      16.0000000 magnetization 
 keeping initial charge density in first step


--------------------------------------------------------------------------------------------------------


 Maximum index for augmentation-charges          1230 (set IRDMAX)


--------------------------------------------------------------------------------------------------------


 First call to EWALD:  gamma=   0.051
 Maximum number of real-space cells 3x 3x 3
 Maximum number of reciprocal cells 3x 3x 3

    FEWALD:  cpu time    0.0026: real time    0.0026


--------------------------------------- Iteration      1(   1)  ---------------------------------------


    POTLOK:  cpu time   22.2003: real time   22.2327
    SETDIJ:  cpu time    0.0550: real time    0.0558
     EDDAV:  cpu time   12.7659: real time   12.8243
       DOS:  cpu time    0.0052: real time    0.0052
    --------------------------------------------
      LOOP:  cpu time   35.0264: real time   35.1180

 eigenvalue-minimisations  :    40
 total energy-change (2. order) : 0.1520043E+03  (-0.3081416E+03)
 number of electron      16.0000000 magnetization 
 augmentation part       16.0000000 magnetization 

 Free energy of the ion-electron system (eV)
  ---------------------------------------------------
  alpha Z        PSCENC =         0.02092140
  Ewald energy   TEWEN  =       392.29232300
  -Hartree energ DENC   =     -1107.67202439
  -exchange      EXHF   =         0.00000000
  -V(xc)+E(xc)   XCENC  =        64.44820127
  PAW double counting   =       701.63506352     -705.26791599
  entropy T*S    EENTRO =        -0.00000000
  eigenvalues    EBANDS =      -108.16241700
  atomic energy  EATOM  =       914.71016949
  Solvation  Ediel_sol  =         0.00000000
  ---------------------------------------------------
  free energy    TOTEN  =       152.00432130 eV

  energy without entropy =      152.00432130  energy(sigma->0) =      152.00432130


--------------------------------------------------------------------------------------------------------




--------------------------------------- Iteration      1(   2)  ---------------------------------------


     EDDAV:  cpu time   12.9218: real time   12.9494
       DOS:  cpu time    0.0193: real time    0.0193
    --------------------------------------------
      LOOP:  cpu time   12.9411: real time   12.9687

 eigenvalue-minimisations  :    40
 total energy-change (2. order) :-0.8547271E+02  (-0.8196124E+02)
 number of electron      16.0000000 magnetization 
 augmentation part       16.0000000 magnetization 

 Free energy of the ion-electron system (eV)
  ---------------------------------------------------
  alpha Z        PSCENC =         0.02092140
  Ewald energy   TEWEN  =       392.29232300
  -Hartree energ DENC   =     -1107.67202439
  -exchange      EXHF   =         0.00000000
  -V(xc)+E(xc)   XCENC  =        64.44820127
  PAW double counting   =       701.63506352     -705.26791599
  entropy T*S    EENTRO =        -0.00000000
  eigenvalues    EBANDS =      -193.63512829
  atomic energy  EATOM  =       914.71016949
  Solvation  Ediel_sol  =         0.00000000
  ---------------------------------------------------
  free energy    TOTEN  =        66.53161000 eV

  energy without entropy =       66.53161000  energy(sigma->0) =       66.53161000


--------------------------------------------------------------------------------------------------------




--------------------------------------- Iteration      1(   3)  ---------------------------------------


     EDDAV:  cpu time   10.8602: real time   10.8761
       DOS:  cpu time    0.0074: real time    0.0074
    --------------------------------------------
      LOOP:  cpu time   10.8676: real time   10.8835

 eigenvalue-minimisations  :    32
 total energy-change (2. order) :-0.7145565E+02  (-0.6367616E+02)
 number of electron      16.0000000 magnetization 
 augmentation part       16.0000000 magnetization 

 Free energy of the ion-electron system (eV)
  ---------------------------------------------------
  alpha Z        PSCENC =         0.02092140
  Ewald energy   TEWEN  =       392.29232300
  -Hartree energ DENC   =     -1107.67202439
  -exchange      EXHF   =         0.00000000
  -V(xc)+E(xc)   XCENC  =        64.44820127
  PAW double counting   =       701.63506352     -705.26791599
  entropy T*S    EENTRO =        -0.00000000
  eigenvalues    EBANDS =      -265.09077456
  atomic energy  EATOM  =       914.71016949
  Solvation  Ediel_sol  =         0.00000000
  ---------------------------------------------------
  free energy    TOTEN  =        -4.92403626 eV

  energy without entropy =       -4.92403626  energy(sigma->0) =       -4.92403626


--------------------------------------------------------------------------------------------------------




--------------------------------------- Iteration      1(   4)  ---------------------------------------


     EDDAV:  cpu time   10.9031: real time   10.9400
       DOS:  cpu time    0.0111: real time    0.0111
    --------------------------------------------
      LOOP:  cpu time   10.9143: real time   10.9511

 eigenvalue-minimisations  :    32
 total energy-change (2. order) :-0.2639063E+02  (-0.2635475E+02)
 number of electron      16.0000000 magnetization 
 augmentation part       16.0000000 magnetization 

 Free energy of the ion-electron system (eV)
  ---------------------------------------------------
  alpha Z        PSCENC =         0.02092140
  Ewald energy   TEWEN  =       392.29232300
  -Hartree energ DENC   =     -1107.67202439
  -exchange      EXHF   =         0.00000000
  -V(xc)+E(xc)   XCENC  =        64.44820127
  PAW double counting   =       701.63506352     -705.26791599
  entropy T*S    EENTRO =        -0.00000000
  eigenvalues    EBANDS =      -291.48140744
  atomic energy  EATOM  =       914.71016949
  Solvation  Ediel_sol  =         0.00000000
  ---------------------------------------------------
  free energy    TOTEN  =       -31.31466914 eV

  energy without entropy =      -31.31466914  energy(sigma->0) =      -31.31466914


--------------------------------------------------------------------------------------------------------




--------------------------------------- Iteration      1(   5)  ---------------------------------------


     EDDAV:  cpu time   11.0732: real time   11.1057
       DOS:  cpu time    0.0056: real time    0.0056
    CHARGE:  cpu time    3.2365: real time    3.2404
    MIXING:  cpu time    0.5044: real time    0.5096
    --------------------------------------------
      LOOP:  cpu time   14.8196: real time   14.8614

 eigenvalue-minimisations  :    32
 total energy-change (2. order) :-0.1354472E+01  (-0.1354207E+01)
 number of electron      15.9999999 magnetization 
 augmentation part        1.6783532 magnetization 

 Broyden mixing:
  rms(total) = 0.11294E+01    rms(broyden)= 0.11294E+01
  rms(prec ) = 0.11659E+01
  weight for this iteration     100.00

 Free energy of the ion-electron system (eV)
  ---------------------------------------------------
  alpha Z        PSCENC =         0.02092140
  Ewald energy   TEWEN  =       392.29232300
  -Hartree energ DENC   =     -1107.67202439
  -exchange      EXHF   =         0.00000000
  -V(xc)+E(xc)   XCENC  =        64.44820127
  PAW double counting   =       701.63506352     -705.26791599
  entropy T*S    EENTRO =        -0.00000000
  eigenvalues    EBANDS =      -292.83587909
  atomic energy  EATOM  =       914.71016949
  Solvation  Ediel_sol  =         0.00000000
  ---------------------------------------------------
  free energy    TOTEN  =       -32.66914079 eV

  energy without entropy =      -32.66914079  energy(sigma->0) =      -32.66914079


--------------------------------------------------------------------------------------------------------




--------------------------------------- Iteration      1(   6)  ---------------------------------------


    POTLOK:  cpu time   22.0532: real time   22.0896
    SETDIJ:  cpu time    0.0446: real time    0.0446
     EDDAV:  cpu time    9.8171: real time    9.8485
       DOS:  cpu time    0.0002: real time    0.0002
    CHARGE:  cpu time    3.1215: real time    3.1255
    MIXING:  cpu time    0.5349: real time    0.5501
    --------------------------------------------
      LOOP:  cpu time   35.5715: real time   35.6586

 eigenvalue-minimisations  :    28
 total energy-change (2. order) : 0.3828774E+01  (-0.1549485E+01)
 number of electron      15.9999999 magnetization 
 augmentation part        1.4136575 magnetization 

 Broyden mixing:
  rms(total) = 0.45105E+00    rms(broyden)= 0.45105E+00
  rms(prec ) = 0.45928E+00
  weight for this iteration     100.00

 eigenvalues of (default mixing * dielectric matrix)
  average eigenvalue GAMMA=   0.9482
  0.9482

 Free energy of the ion-electron system (eV)
  ---------------------------------------------------
  alpha Z        PSCENC =         0.02092140
  Ewald energy   TEWEN  =       392.29232300
  -Hartree energ DENC   =     -1156.14119340
  -exchange      EXHF   =         0.00000000
  -V(xc)+E(xc)   XCENC  =        67.13125892
  PAW double counting   =       891.44864785     -895.80850024
  entropy T*S    EENTRO =        -0.00000000
  eigenvalues    EBANDS =      -242.49399367
  atomic energy  EATOM  =       914.71016949
  Solvation  Ediel_sol  =         0.00000000
  ---------------------------------------------------
  free energy    TOTEN  =       -28.84036664 eV

  energy without entropy =      -28.84036664  energy(sigma->0) =      -28.84036664


--------------------------------------------------------------------------------------------------------




--------------------------------------- Iteration      1(   7)  ---------------------------------------


    POTLOK:  cpu time   22.0154: real time   22.0468
    SETDIJ:  cpu time    0.0457: real time    0.0457
     EDDAV:  cpu time   11.8858: real time   11.9039
       DOS:  cpu time    0.0235: real time    0.0235
    CHARGE:  cpu time    3.1096: real time    3.1157
    MIXING:  cpu time    0.5220: real time    0.5227
    --------------------------------------------
      LOOP:  cpu time   37.6021: real time   37.6584

 eigenvalue-minimisations  :    36
 total energy-change (2. order) : 0.1944775E+00  (-0.5343314E-01)
 number of electron      15.9999999 magnetization 
 augmentation part        1.3955605 magnetization 

 Broyden mixing:
  rms(total) = 0.29881E+00    rms(broyden)= 0.29881E+00
  rms(prec ) = 0.30391E+00
  weight for this iteration     100.00

 eigenvalues of (default mixing * dielectric matrix)
  average eigenvalue GAMMA=   1.7292
  1.0996  2.3587

 Free energy of the ion-electron system (eV)
  ---------------------------------------------------
  alpha Z        PSCENC =         0.02092140
  Ewald energy   TEWEN  =       392.29232300
  -Hartree energ DENC   =     -1164.61646419
  -exchange      EXHF   =         0.00000000
  -V(xc)+E(xc)   XCENC  =        67.57557825
  PAW double counting   =       982.01337107     -986.30876599
  entropy T*S    EENTRO =        -0.00000000
  eigenvalues    EBANDS =      -234.33302219
  atomic energy  EATOM  =       914.71016949
  Solvation  Ediel_sol  =         0.00000000
  ---------------------------------------------------
  free energy    TOTEN  =       -28.64588916 eV

  energy without entropy =      -28.64588916  energy(sigma->0) =      -28.64588916


--------------------------------------------------------------------------------------------------------




--------------------------------------- Iteration      1(   8)  ---------------------------------------


    POTLOK:  cpu time   22.0116: real time   22.0407
    SETDIJ:  cpu time    0.0637: real time    0.0637
     EDDAV:  cpu time   10.8447: real time   10.8670
       DOS:  cpu time    0.0268: real time    0.0268
    CHARGE:  cpu time    3.1613: real time    3.1653
    MIXING:  cpu time    0.5205: real time    0.5262
    --------------------------------------------
      LOOP:  cpu time   36.6286: real time   36.6897

 eigenvalue-minimisations  :    32
 total energy-change (2. order) : 0.1640391E+00  (-0.1550715E-01)
 number of electron      15.9999999 magnetization 
 augmentation part        1.4065654 magnetization 

 Broyden mixing:
  rms(total) = 0.47558E-01    rms(broyden)= 0.47558E-01
  rms(prec ) = 0.51649E-01
  weight for this iteration     100.00

 eigenvalues of (default mixing * dielectric matrix)
  average eigenvalue GAMMA=   1.4634
  2.4068  0.9917  0.9917

 Free energy of the ion-electron system (eV)
  ---------------------------------------------------
  alpha Z        PSCENC =         0.02092140
  Ewald energy   TEWEN  =       392.29232300
  -Hartree energ DENC   =     -1173.34165744
  -exchange      EXHF   =         0.00000000
  -V(xc)+E(xc)   XCENC  =        68.06360320
  PAW double counting   =      1113.01782377    -1117.20053344
  entropy T*S    EENTRO =        -0.00000000
  eigenvalues    EBANDS =      -226.04450008
  atomic energy  EATOM  =       914.71016949
  Solvation  Ediel_sol  =         0.00000000
  ---------------------------------------------------
  free energy    TOTEN  =       -28.48185010 eV

  energy without entropy =      -28.48185010  energy(sigma->0) =      -28.48185010


--------------------------------------------------------------------------------------------------------




--------------------------------------- Iteration      1(   9)  ---------------------------------------


    POTLOK:  cpu time   22.0328: real time   22.0623
    SETDIJ:  cpu time    0.0432: real time    0.0432
     EDDAV:  cpu time   10.8836: real time   10.9027
       DOS:  cpu time    0.0268: real time    0.0268
    CHARGE:  cpu time    3.1449: real time    3.1487
    MIXING:  cpu time    0.5559: real time    0.5567
    --------------------------------------------
      LOOP:  cpu time   36.6872: real time   36.7403

 eigenvalue-minimisations  :    32
 total energy-change (2. order) : 0.6927428E-02  (-0.3865215E-02)
 number of electron      15.9999999 magnetization 
 augmentation part        1.3930166 magnetization 

 Broyden mixing:
  rms(total) = 0.20920E-01    rms(broyden)= 0.20920E-01
  rms(prec ) = 0.24845E-01
  weight for this iteration     100.00

 eigenvalues of (default mixing * dielectric matrix)
  average eigenvalue GAMMA=   1.7666
  0.9986  0.9986  2.5347  2.5347

 Free energy of the ion-electron system (eV)
  ---------------------------------------------------
  alpha Z        PSCENC =         0.02092140
  Ewald energy   TEWEN  =       392.29232300
  -Hartree energ DENC   =     -1175.98466895
  -exchange      EXHF   =         0.00000000
  -V(xc)+E(xc)   XCENC  =        68.18946783
  PAW double counting   =      1115.39931855    -1119.60820128
  entropy T*S    EENTRO =        -0.00000000
  eigenvalues    EBANDS =      -223.49425272
  atomic energy  EATOM  =       914.71016949
  Solvation  Ediel_sol  =         0.00000000
  ---------------------------------------------------
  free energy    TOTEN  =       -28.47492267 eV

  energy without entropy =      -28.47492267  energy(sigma->0) =      -28.47492267


--------------------------------------------------------------------------------------------------------




--------------------------------------- Iteration      1(  10)  ---------------------------------------


    POTLOK:  cpu time   22.0810: real time   22.1118
    SETDIJ:  cpu time    0.0402: real time    0.0402
     EDDAV:  cpu time   10.9842: real time   10.9995
       DOS:  cpu time    0.0072: real time    0.0072
    CHARGE:  cpu time    3.1406: real time    3.1444
    MIXING:  cpu time    0.5743: real time    0.5751
    --------------------------------------------
      LOOP:  cpu time   36.8275: real time   36.8783

 eigenvalue-minimisations  :    32
 total energy-change (2. order) :-0.6949507E-02  (-0.7181853E-03)
 number of electron      15.9999999 magnetization 
 augmentation part        1.3946475 magnetization 

 Broyden mixing:
  rms(total) = 0.11016E-01    rms(broyden)= 0.11016E-01
  rms(prec ) = 0.13281E-01
  weight for this iteration     100.00

 eigenvalues of (default mixing * dielectric matrix)
  average eigenvalue GAMMA=   1.7143
  3.2243  2.4294  1.0589  0.9294  0.9294

 Free energy of the ion-electron system (eV)
  ---------------------------------------------------
  alpha Z        PSCENC =         0.02092140
  Ewald energy   TEWEN  =       392.29232300
  -Hartree energ DENC   =     -1177.42720433
  -exchange      EXHF   =         0.00000000
  -V(xc)+E(xc)   XCENC  =        68.20143270
  PAW double counting   =      1101.56537400    -1105.75195669
  entropy T*S    EENTRO =        -0.00000000
  eigenvalues    EBANDS =      -222.09293176
  atomic energy  EATOM  =       914.71016949
  Solvation  Ediel_sol  =         0.00000000
  ---------------------------------------------------
  free energy    TOTEN  =       -28.48187218 eV

  energy without entropy =      -28.48187218  energy(sigma->0) =      -28.48187218


--------------------------------------------------------------------------------------------------------




--------------------------------------- Iteration      1(  11)  ---------------------------------------


    POTLOK:  cpu time   22.0495: real time   22.0825
    SETDIJ:  cpu time    0.0581: real time    0.0581
     EDDAV:  cpu time   10.9388: real time   10.9543
       DOS:  cpu time    0.0134: real time    0.0134
    CHARGE:  cpu time    3.1845: real time    3.1883
    MIXING:  cpu time    0.5847: real time    0.5855
    --------------------------------------------
      LOOP:  cpu time   36.8290: real time   36.8821

 eigenvalue-minimisations  :    32
 total energy-change (2. order) :-0.2661676E-02  (-0.4090626E-03)
 number of electron      15.9999999 magnetization 
 augmentation part        1.3907571 magnetization 

 Broyden mixing:
  rms(total) = 0.60758E-02    rms(broyden)= 0.60757E-02
  rms(prec ) = 0.81298E-02
  weight for this iteration     100.00

 eigenvalues of (default mixing * dielectric matrix)
  average eigenvalue GAMMA=   1.9439
  3.8216  2.7178  2.1787  0.9657  0.9657  1.0138

 Free energy of the ion-electron system (eV)
  ---------------------------------------------------
  alpha Z        PSCENC =         0.02092140
  Ewald energy   TEWEN  =       392.29232300
  -Hartree energ DENC   =     -1178.58409405
  -exchange      EXHF   =         0.00000000
  -V(xc)+E(xc)   XCENC  =        68.24603707
  PAW double counting   =      1103.36005677    -1107.55299677
  entropy T*S    EENTRO =        -0.00000000
  eigenvalues    EBANDS =      -220.97695076
  atomic energy  EATOM  =       914.71016949
  Solvation  Ediel_sol  =         0.00000000
  ---------------------------------------------------
  free energy    TOTEN  =       -28.48453385 eV

  energy without entropy =      -28.48453385  energy(sigma->0) =      -28.48453385


--------------------------------------------------------------------------------------------------------




--------------------------------------- Iteration      1(  12)  ---------------------------------------


    POTLOK:  cpu time   22.0229: real time   22.0558
    SETDIJ:  cpu time    0.0434: real time    0.0435
     EDDAV:  cpu time    9.9840: real time    9.9979
       DOS:  cpu time    0.0209: real time    0.0209
    CHARGE:  cpu time    3.1604: real time    3.1642
    MIXING:  cpu time    0.5964: real time    0.5972
    --------------------------------------------
      LOOP:  cpu time   35.8279: real time   35.8794

 eigenvalue-minimisations  :    28
 total energy-change (2. order) :-0.1010934E-01  (-0.2755388E-03)
 number of electron      15.9999999 magnetization 
 augmentation part        1.3919637 magnetization 

 Broyden mixing:
  rms(total) = 0.31737E-02    rms(broyden)= 0.31737E-02
  rms(prec ) = 0.41840E-02
  weight for this iteration     100.00

 eigenvalues of (default mixing * dielectric matrix)
  average eigenvalue GAMMA=   2.0346
  4.1600  3.3764  2.4603  0.9376  1.0026  1.0026  1.3027

 Free energy of the ion-electron system (eV)
  ---------------------------------------------------
  alpha Z        PSCENC =         0.02092140
  Ewald energy   TEWEN  =       392.29232300
  -Hartree energ DENC   =     -1179.00402651
  -exchange      EXHF   =         0.00000000
  -V(xc)+E(xc)   XCENC  =        68.23140863
  PAW double counting   =      1102.50221119    -1106.69564578
  entropy T*S    EENTRO =        -0.00000000
  eigenvalues    EBANDS =      -220.55200462
  atomic energy  EATOM  =       914.71016949
  Solvation  Ediel_sol  =         0.00000000
  ---------------------------------------------------
  free energy    TOTEN  =       -28.49464319 eV

  energy without entropy =      -28.49464319  energy(sigma->0) =      -28.49464319


--------------------------------------------------------------------------------------------------------




--------------------------------------- Iteration      1(  13)  ---------------------------------------


    POTLOK:  cpu time   22.0935: real time   22.1201
    SETDIJ:  cpu time    0.0395: real time    0.0395
     EDDAV:  cpu time   12.8078: real time   12.8255
       DOS:  cpu time    0.0135: real time    0.0135
    CHARGE:  cpu time    3.1168: real time    3.1209
    MIXING:  cpu time    0.6954: real time    0.6963
    --------------------------------------------
      LOOP:  cpu time   38.7666: real time   38.8159

 eigenvalue-minimisations  :    40
 total energy-change (2. order) :-0.4193529E-02  (-0.7933127E-04)
 number of electron      15.9999999 magnetization 
 augmentation part        1.3913866 magnetization 

 Broyden mixing:
  rms(total) = 0.24499E-02    rms(broyden)= 0.24499E-02
  rms(prec ) = 0.29466E-02
  weight for this iteration     100.00

 eigenvalues of (default mixing * dielectric matrix)
  average eigenvalue GAMMA=   2.0764
  5.1947  3.0573  2.4876  1.8268  1.2051  0.9858  0.9858  0.8681

 Free energy of the ion-electron system (eV)
  ---------------------------------------------------
  alpha Z        PSCENC =         0.02092140
  Ewald energy   TEWEN  =       392.29232300
  -Hartree energ DENC   =     -1179.22966221
  -exchange      EXHF   =         0.00000000
  -V(xc)+E(xc)   XCENC  =        68.23108753
  PAW double counting   =      1104.28502835    -1108.47950712
  entropy T*S    EENTRO =        -0.00000000
  eigenvalues    EBANDS =      -220.32919717
  atomic energy  EATOM  =       914.71016949
  Solvation  Ediel_sol  =         0.00000000
  ---------------------------------------------------
  free energy    TOTEN  =       -28.49883672 eV

  energy without entropy =      -28.49883672  energy(sigma->0) =      -28.49883672


--------------------------------------------------------------------------------------------------------




--------------------------------------- Iteration      1(  14)  ---------------------------------------


    POTLOK:  cpu time   22.0369: real time   22.0669
    SETDIJ:  cpu time    0.0616: real time    0.0616
     EDDAV:  cpu time   12.8155: real time   12.8361
       DOS:  cpu time    0.0167: real time    0.0167
    CHARGE:  cpu time    3.1628: real time    3.1685
    MIXING:  cpu time    0.6746: real time    0.6755
    --------------------------------------------
      LOOP:  cpu time   38.7680: real time   38.8252

 eigenvalue-minimisations  :    40
 total energy-change (2. order) :-0.1925793E-02  (-0.2340172E-04)
 number of electron      15.9999999 magnetization 
 augmentation part        1.3907183 magnetization 

 Broyden mixing:
  rms(total) = 0.14131E-02    rms(broyden)= 0.14131E-02
  rms(prec ) = 0.17355E-02
  weight for this iteration     100.00

 eigenvalues of (default mixing * dielectric matrix)
  average eigenvalue GAMMA=   2.2111
  6.5115  3.3509  2.5482  2.3513  1.1238  1.1238  0.9865  0.9865  0.9171

 Free energy of the ion-electron system (eV)
  ---------------------------------------------------
  alpha Z        PSCENC =         0.02092140
  Ewald energy   TEWEN  =       392.29232300
  -Hartree energ DENC   =     -1179.42399337
  -exchange      EXHF   =         0.00000000
  -V(xc)+E(xc)   XCENC  =        68.23269613
  PAW double counting   =      1103.72325823    -1107.91705043
  entropy T*S    EENTRO =        -0.00000000
  eigenvalues    EBANDS =      -220.13908697
  atomic energy  EATOM  =       914.71016949
  Solvation  Ediel_sol  =         0.00000000
  ---------------------------------------------------
  free energy    TOTEN  =       -28.50076252 eV

  energy without entropy =      -28.50076252  energy(sigma->0) =      -28.50076252


--------------------------------------------------------------------------------------------------------




--------------------------------------- Iteration      1(  15)  ---------------------------------------


    POTLOK:  cpu time   22.0380: real time   22.0656
    SETDIJ:  cpu time    0.0398: real time    0.0399
     EDDAV:  cpu time    9.0203: real time    9.0434
       DOS:  cpu time    0.0205: real time    0.0205
    CHARGE:  cpu time    3.1056: real time    3.1122
    MIXING:  cpu time    0.7250: real time    0.7260
    --------------------------------------------
      LOOP:  cpu time   34.9492: real time   35.0075

 eigenvalue-minimisations  :    24
 total energy-change (2. order) :-0.1597702E-02  (-0.1439998E-04)
 number of electron      15.9999999 magnetization 
 augmentation part        1.3910121 magnetization 

 Broyden mixing:
  rms(total) = 0.58679E-03    rms(broyden)= 0.58679E-03
  rms(prec ) = 0.77820E-03
  weight for this iteration     100.00

 eigenvalues of (default mixing * dielectric matrix)
  average eigenvalue GAMMA=   2.3384
  7.4589  3.9602  2.7994  2.4379  1.7467  1.1665  0.9817  0.9817  0.9253  0.9253

 Free energy of the ion-electron system (eV)
  ---------------------------------------------------
  alpha Z        PSCENC =         0.02092140
  Ewald energy   TEWEN  =       392.29232300
  -Hartree energ DENC   =     -1179.40699268
  -exchange      EXHF   =         0.00000000
  -V(xc)+E(xc)   XCENC  =        68.22682167
  PAW double counting   =      1103.38958981    -1107.58158233
  entropy T*S    EENTRO =        -0.00000000
  eigenvalues    EBANDS =      -220.15361058
  atomic energy  EATOM  =       914.71016949
  Solvation  Ediel_sol  =         0.00000000
  ---------------------------------------------------
  free energy    TOTEN  =       -28.50236022 eV

  energy without entropy =      -28.50236022  energy(sigma->0) =      -28.50236022


--------------------------------------------------------------------------------------------------------




--------------------------------------- Iteration      1(  16)  ---------------------------------------


    POTLOK:  cpu time   22.0368: real time   22.0640
    SETDIJ:  cpu time    0.0394: real time    0.0395
     EDDAV:  cpu time   12.8647: real time   12.8832
       DOS:  cpu time    0.0110: real time    0.0110
    CHARGE:  cpu time    3.1314: real time    3.1351
    MIXING:  cpu time    0.7231: real time    0.7240
    --------------------------------------------
      LOOP:  cpu time   38.8065: real time   38.8568

 eigenvalue-minimisations  :    40
 total energy-change (2. order) :-0.8349608E-03  (-0.6526158E-05)
 number of electron      15.9999999 magnetization 
 augmentation part        1.3910115 magnetization 

 Broyden mixing:
  rms(total) = 0.37733E-03    rms(broyden)= 0.37733E-03
  rms(prec ) = 0.46050E-03
  weight for this iteration     100.00

 eigenvalues of (default mixing * dielectric matrix)
  average eigenvalue GAMMA=   2.3173
  7.9982  4.2441  2.8845  2.4752  1.9213  1.3451  1.0551  0.9797  0.9797  0.8947
  0.7122

 Free energy of the ion-electron system (eV)
  ---------------------------------------------------
  alpha Z        PSCENC =         0.02092140
  Ewald energy   TEWEN  =       392.29232300
  -Hartree energ DENC   =     -1179.40884846
  -exchange      EXHF   =         0.00000000
  -V(xc)+E(xc)   XCENC  =        68.22530613
  PAW double counting   =      1103.27477233    -1107.46663109
  entropy T*S    EENTRO =        -0.00000000
  eigenvalues    EBANDS =      -220.15120798
  atomic energy  EATOM  =       914.71016949
  Solvation  Ediel_sol  =         0.00000000
  ---------------------------------------------------
  free energy    TOTEN  =       -28.50319518 eV

  energy without entropy =      -28.50319518  energy(sigma->0) =      -28.50319518


--------------------------------------------------------------------------------------------------------




--------------------------------------- Iteration      1(  17)  ---------------------------------------


    POTLOK:  cpu time   22.0177: real time   22.0537
    SETDIJ:  cpu time    0.0428: real time    0.0428
     EDDAV:  cpu time   10.9057: real time   10.9369
       DOS:  cpu time    0.0269: real time    0.0269
    CHARGE:  cpu time    3.0809: real time    3.0848
    MIXING:  cpu time    0.8518: real time    0.8529
    --------------------------------------------
      LOOP:  cpu time   36.9257: real time   36.9979

 eigenvalue-minimisations  :    32
 total energy-change (2. order) :-0.2621860E-03  (-0.5822587E-06)
 number of electron      15.9999999 magnetization 
 augmentation part        1.3909808 magnetization 

 Broyden mixing:
  rms(total) = 0.20510E-03    rms(broyden)= 0.20510E-03
  rms(prec ) = 0.26737E-03
  weight for this iteration     100.00

 eigenvalues of (default mixing * dielectric matrix)
  average eigenvalue GAMMA=   2.4463
  8.6686  4.8394  3.2265  2.8239  2.4078  1.3912  1.3912  0.9805  0.9805  1.0015
  0.8974  0.7471

 Free energy of the ion-electron system (eV)
  ---------------------------------------------------
  alpha Z        PSCENC =         0.02092140
  Ewald energy   TEWEN  =       392.29232300
  -Hartree energ DENC   =     -1179.41459924
  -exchange      EXHF   =         0.00000000
  -V(xc)+E(xc)   XCENC  =        68.22503209
  PAW double counting   =      1103.25461753    -1107.44672974
  entropy T*S    EENTRO =        -0.00000000
  eigenvalues    EBANDS =      -220.14519190
  atomic energy  EATOM  =       914.71016949
  Solvation  Ediel_sol  =         0.00000000
  ---------------------------------------------------
  free energy    TOTEN  =       -28.50345737 eV

  energy without entropy =      -28.50345737  energy(sigma->0) =      -28.50345737


--------------------------------------------------------------------------------------------------------




--------------------------------------- Iteration      1(  18)  ---------------------------------------


    POTLOK:  cpu time   22.0304: real time   22.0663
    SETDIJ:  cpu time    0.0425: real time    0.0425
     EDDAV:  cpu time    8.9292: real time    8.9494
       DOS:  cpu time    0.0039: real time    0.0039
    CHARGE:  cpu time    3.1339: real time    3.1378
    MIXING:  cpu time    0.7978: real time    0.7989
    --------------------------------------------
      LOOP:  cpu time   34.9378: real time   34.9987

 eigenvalue-minimisations  :    24
 total energy-change (2. order) :-0.2583872E-03  (-0.7032405E-06)
 number of electron      15.9999999 magnetization 
 augmentation part        1.3910076 magnetization 

 Broyden mixing:
  rms(total) = 0.15716E-03    rms(broyden)= 0.15716E-03
  rms(prec ) = 0.17593E-03
  weight for this iteration     100.00

 eigenvalues of (default mixing * dielectric matrix)
  average eigenvalue GAMMA=   2.4769
  8.9578  5.2885  3.5938  2.6054  2.6054  2.1724  1.1744  1.1744  0.9827  0.9827
  1.0072  0.8955  0.7595

 Free energy of the ion-electron system (eV)
  ---------------------------------------------------
  alpha Z        PSCENC =         0.02092140
  Ewald energy   TEWEN  =       392.29232300
  -Hartree energ DENC   =     -1179.41121212
  -exchange      EXHF   =         0.00000000
  -V(xc)+E(xc)   XCENC  =        68.22445650
  PAW double counting   =      1103.29626737    -1107.48866665
  entropy T*S    EENTRO =        -0.00000000
  eigenvalues    EBANDS =      -220.14797474
  atomic energy  EATOM  =       914.71016949
  Solvation  Ediel_sol  =         0.00000000
  ---------------------------------------------------
  free energy    TOTEN  =       -28.50371575 eV

  energy without entropy =      -28.50371575  energy(sigma->0) =      -28.50371575


--------------------------------------------------------------------------------------------------------




--------------------------------------- Iteration      1(  19)  ---------------------------------------


    POTLOK:  cpu time   21.9990: real time   22.0360
    SETDIJ:  cpu time    0.0421: real time    0.0422
     EDDAV:  cpu time   12.9055: real time   12.9316
       DOS:  cpu time    0.0017: real time    0.0017
    CHARGE:  cpu time    2.9877: real time    2.9914
    MIXING:  cpu time    0.9460: real time    0.9472
    --------------------------------------------
      LOOP:  cpu time   38.8821: real time   38.9501

 eigenvalue-minimisations  :    40
 total energy-change (2. order) :-0.8049974E-04  (-0.1094598E-06)
 number of electron      15.9999999 magnetization 
 augmentation part        1.3910073 magnetization 

 Broyden mixing:
  rms(total) = 0.64096E-04    rms(broyden)= 0.64096E-04
  rms(prec ) = 0.77060E-04
  weight for this iteration     100.00

 eigenvalues of (default mixing * dielectric matrix)
  average eigenvalue GAMMA=   2.4796
  9.2434  5.6707  3.8056  2.6833  2.6833  2.3003  1.3872  1.3872  0.9806  0.9806
  1.0332  0.9172  0.8913  0.7512

 Free energy of the ion-electron system (eV)
  ---------------------------------------------------
  alpha Z        PSCENC =         0.02092140
  Ewald energy   TEWEN  =       392.29232300
  -Hartree energ DENC   =     -1179.41364059
  -exchange      EXHF   =         0.00000000
  -V(xc)+E(xc)   XCENC  =        68.22432032
  PAW double counting   =      1103.32445250    -1107.51672550
  entropy T*S    EENTRO =        -0.00000000
  eigenvalues    EBANDS =      -220.14561689
  atomic energy  EATOM  =       914.71016949
  Solvation  Ediel_sol  =         0.00000000
  ---------------------------------------------------
  free energy    TOTEN  =       -28.50379625 eV

  energy without entropy =      -28.50379625  energy(sigma->0) =      -28.50379625


--------------------------------------------------------------------------------------------------------




--------------------------------------- Iteration      1(  20)  ---------------------------------------


    POTLOK:  cpu time   21.9250: real time   21.9591
    SETDIJ:  cpu time    0.1242: real time    0.1243
     EDDAV:  cpu time    9.0006: real time    9.0134
       DOS:  cpu time    0.0160: real time    0.0160
    CHARGE:  cpu time    3.1986: real time    3.2027
    MIXING:  cpu time    0.8509: real time    0.8521
    --------------------------------------------
      LOOP:  cpu time   35.1155: real time   35.1676

 eigenvalue-minimisations  :    24
 total energy-change (2. order) :-0.3775309E-04  (-0.2440310E-07)
 number of electron      15.9999999 magnetization 
 augmentation part        1.3909939 magnetization 

 Broyden mixing:
  rms(total) = 0.38629E-04    rms(broyden)= 0.38629E-04
  rms(prec ) = 0.45870E-04
  weight for this iteration     100.00

 eigenvalues of (default mixing * dielectric matrix)
  average eigenvalue GAMMA=   2.5432
  9.3796  6.2329  4.2625  3.2118  2.5668  2.5668  2.0150  1.2451  0.9782  0.9782
  1.0702  1.0702  0.9089  0.9089  0.7530

 Free energy of the ion-electron system (eV)
  ---------------------------------------------------
  alpha Z        PSCENC =         0.02092140
  Ewald energy   TEWEN  =       392.29232300
  -Hartree energ DENC   =     -1179.41679647
  -exchange      EXHF   =         0.00000000
  -V(xc)+E(xc)   XCENC  =        68.22443494
  PAW double counting   =      1103.32784613    -1107.52009607
  entropy T*S    EENTRO =        -0.00000000
  eigenvalues    EBANDS =      -220.14263643
  atomic energy  EATOM  =       914.71016949
  Solvation  Ediel_sol  =         0.00000000
  ---------------------------------------------------
  free energy    TOTEN  =       -28.50383401 eV

  energy without entropy =      -28.50383401  energy(sigma->0) =      -28.50383401


--------------------------------------------------------------------------------------------------------




--------------------------------------- Iteration      1(  21)  ---------------------------------------


    POTLOK:  cpu time   21.9479: real time   21.9849
    SETDIJ:  cpu time    0.0405: real time    0.0405
     EDDAV:  cpu time    8.8356: real time    8.8575
       DOS:  cpu time    0.0017: real time    0.0017
    CHARGE:  cpu time    3.1638: real time    3.1677
    MIXING:  cpu time    0.8961: real time    0.8973
    --------------------------------------------
      LOOP:  cpu time   34.8855: real time   34.9495

 eigenvalue-minimisations  :    24
 total energy-change (2. order) :-0.2323285E-04  (-0.2069640E-07)
 number of electron      15.9999999 magnetization 
 augmentation part        1.3909986 magnetization 

 Broyden mixing:
  rms(total) = 0.19186E-04    rms(broyden)= 0.19186E-04
  rms(prec ) = 0.22501E-04
  weight for this iteration     100.00

 eigenvalues of (default mixing * dielectric matrix)
  average eigenvalue GAMMA=   2.5476
  9.5007  6.4951  4.5295  3.3544  2.7151  2.5041  2.2047  1.4351  1.4351  0.9794
  0.9794  1.0081  1.0081  0.9674  0.8863  0.7590

 Free energy of the ion-electron system (eV)
  ---------------------------------------------------
  alpha Z        PSCENC =         0.02092140
  Ewald energy   TEWEN  =       392.29232300
  -Hartree energ DENC   =     -1179.41685712
  -exchange      EXHF   =         0.00000000
  -V(xc)+E(xc)   XCENC  =        68.22441306
  PAW double counting   =      1103.31233845    -1107.50454681
  entropy T*S    EENTRO =        -0.00000000
  eigenvalues    EBANDS =      -220.14261871
  atomic energy  EATOM  =       914.71016949
  Solvation  Ediel_sol  =         0.00000000
  ---------------------------------------------------
  free energy    TOTEN  =       -28.50385724 eV

  energy without entropy =      -28.50385724  energy(sigma->0) =      -28.50385724


--------------------------------------------------------------------------------------------------------




--------------------------------------- Iteration      1(  22)  ---------------------------------------


    POTLOK:  cpu time   21.9515: real time   21.9904
    SETDIJ:  cpu time    0.0401: real time    0.0401
     EDDAV:  cpu time    9.0037: real time    9.0221
       DOS:  cpu time    0.0016: real time    0.0016
    CHARGE:  cpu time    3.1677: real time    3.1715
    MIXING:  cpu time    0.9115: real time    0.9128
    --------------------------------------------
      LOOP:  cpu time   35.0761: real time   35.1386

 eigenvalue-minimisations  :    24
 total energy-change (2. order) :-0.8445678E-05  (-0.3393811E-08)
 number of electron      15.9999999 magnetization 
 augmentation part        1.3909996 magnetization 

 Broyden mixing:
  rms(total) = 0.10395E-04    rms(broyden)= 0.10395E-04
  rms(prec ) = 0.12332E-04
  weight for this iteration     100.00

 eigenvalues of (default mixing * dielectric matrix)
  average eigenvalue GAMMA=   2.5842
  9.6183  6.8364  4.8315  3.6590  2.8177  2.5524  2.5524  1.9982  1.1863  1.1863
  1.1716  0.9807  0.9807  0.9596  0.9596  0.8840  0.7574

 Free energy of the ion-electron system (eV)
  ---------------------------------------------------
  alpha Z        PSCENC =         0.02092140
  Ewald energy   TEWEN  =       392.29232300
  -Hartree energ DENC   =     -1179.41673176
  -exchange      EXHF   =         0.00000000
  -V(xc)+E(xc)   XCENC  =        68.22440252
  PAW double counting   =      1103.31228280    -1107.50451477
  entropy T*S    EENTRO =        -0.00000000
  eigenvalues    EBANDS =      -220.14271836
  atomic energy  EATOM  =       914.71016949
  Solvation  Ediel_sol  =         0.00000000
  ---------------------------------------------------
  free energy    TOTEN  =       -28.50386568 eV

  energy without entropy =      -28.50386568  energy(sigma->0) =      -28.50386568


--------------------------------------------------------------------------------------------------------




--------------------------------------- Iteration      1(  23)  ---------------------------------------


    POTLOK:  cpu time   21.9810: real time   22.0121
    SETDIJ:  cpu time    0.0400: real time    0.0401
     EDDAV:  cpu time    7.0621: real time    7.0817
       DOS:  cpu time    0.0158: real time    0.0158
    CHARGE:  cpu time    3.1564: real time    3.1605
    MIXING:  cpu time    0.9562: real time    0.9575
    --------------------------------------------
      LOOP:  cpu time   33.2116: real time   33.2678

 eigenvalue-minimisations  :    16
 total energy-change (2. order) :-0.4405170E-05  (-0.3029786E-08)
 number of electron      15.9999999 magnetization 
 augmentation part        1.3909987 magnetization 

 Broyden mixing:
  rms(total) = 0.62515E-05    rms(broyden)= 0.62515E-05
  rms(prec ) = 0.71158E-05
  weight for this iteration     100.00

 eigenvalues of (default mixing * dielectric matrix)
  average eigenvalue GAMMA=   2.5888
  9.6656  7.1509  5.0822  3.9080  2.9381  2.6419  2.4828  2.1273  1.6091  1.2968
  0.9797  0.9797  1.0793  1.0793  0.9659  0.9659  0.8895  0.7568

 Free energy of the ion-electron system (eV)
  ---------------------------------------------------
  alpha Z        PSCENC =         0.02092140
  Ewald energy   TEWEN  =       392.29232300
  -Hartree energ DENC   =     -1179.41677266
  -exchange      EXHF   =         0.00000000
  -V(xc)+E(xc)   XCENC  =        68.22439971
  PAW double counting   =      1103.31452505    -1107.50677828
  entropy T*S    EENTRO =        -0.00000000
  eigenvalues    EBANDS =      -220.14265780
  atomic energy  EATOM  =       914.71016949
  Solvation  Ediel_sol  =         0.00000000
  ---------------------------------------------------
  free energy    TOTEN  =       -28.50387009 eV

  energy without entropy =      -28.50387009  energy(sigma->0) =      -28.50387009


--------------------------------------------------------------------------------------------------------




--------------------------------------- Iteration      1(  24)  ---------------------------------------


    POTLOK:  cpu time   21.9737: real time   22.0011
    SETDIJ:  cpu time    0.0410: real time    0.0411
     EDDAV:  cpu time    7.0722: real time    7.0822
       DOS:  cpu time    0.0126: real time    0.0126
    CHARGE:  cpu time    3.1434: real time    3.1498
    MIXING:  cpu time    1.0235: real time    1.0249
    --------------------------------------------
      LOOP:  cpu time   33.2663: real time   33.3116

 eigenvalue-minimisations  :    16
 total energy-change (2. order) :-0.1584981E-05  (-0.1535579E-08)
 number of electron      15.9999999 magnetization 
 augmentation part        1.3909986 magnetization 

 Broyden mixing:
  rms(total) = 0.40414E-05    rms(broyden)= 0.40414E-05
  rms(prec ) = 0.45253E-05
  weight for this iteration     100.00

 eigenvalues of (default mixing * dielectric matrix)
  average eigenvalue GAMMA=   2.6119
  9.6955  7.3905  5.4157  4.1172  3.2877  2.7569  2.4489  2.3697  1.9863  1.2491
  1.2491  0.9802  0.9802  1.1120  1.0444  0.9494  0.9494  0.8872  0.7572

 Free energy of the ion-electron system (eV)
  ---------------------------------------------------
  alpha Z        PSCENC =         0.02092140
  Ewald energy   TEWEN  =       392.29232300
  -Hartree energ DENC   =     -1179.41669056
  -exchange      EXHF   =         0.00000000
  -V(xc)+E(xc)   XCENC  =        68.22439213
  PAW double counting   =      1103.31453220    -1107.50677814
  entropy T*S    EENTRO =        -0.00000000
  eigenvalues    EBANDS =      -220.14274120
  atomic energy  EATOM  =       914.71016949
  Solvation  Ediel_sol  =         0.00000000
  ---------------------------------------------------
  free energy    TOTEN  =       -28.50387167 eV

  energy without entropy =      -28.50387167  energy(sigma->0) =      -28.50387167


--------------------------------------------------------------------------------------------------------




--------------------------------------- Iteration      1(  25)  ---------------------------------------


    POTLOK:  cpu time   21.9771: real time   22.0079
    SETDIJ:  cpu time    0.0482: real time    0.0483
     EDDAV:  cpu time    7.0607: real time    7.0788
       DOS:  cpu time    0.0034: real time    0.0034
    CHARGE:  cpu time    3.1265: real time    3.1306
    MIXING:  cpu time    1.0740: real time    1.0818
    --------------------------------------------
      LOOP:  cpu time   33.2899: real time   33.3507

 eigenvalue-minimisations  :    16
 total energy-change (2. order) :-0.8935781E-06  (-0.1103137E-08)
 number of electron      15.9999999 magnetization 
 augmentation part        1.3909990 magnetization 

 Broyden mixing:
  rms(total) = 0.15489E-05    rms(broyden)= 0.15489E-05
  rms(prec ) = 0.18421E-05
  weight for this iteration     100.00

 eigenvalues of (default mixing * dielectric matrix)
  average eigenvalue GAMMA=   2.5961
  9.7090  7.6299  5.6051  4.3280  3.3570  2.6188  2.6188  2.2049  2.2049  1.7294
  1.2055  1.2055  0.7573  0.9799  0.9799  1.0783  0.8835  0.9383  0.9383  0.9505

 Free energy of the ion-electron system (eV)
  ---------------------------------------------------
  alpha Z        PSCENC =         0.02092140
  Ewald energy   TEWEN  =       392.29232300
  -Hartree energ DENC   =     -1179.41658271
  -exchange      EXHF   =         0.00000000
  -V(xc)+E(xc)   XCENC  =        68.22438405
  PAW double counting   =      1103.31445828    -1107.50669780
  entropy T*S    EENTRO =        -0.00000000
  eigenvalues    EBANDS =      -220.14284828
  atomic energy  EATOM  =       914.71016949
  Solvation  Ediel_sol  =         0.00000000
  ---------------------------------------------------
  free energy    TOTEN  =       -28.50387257 eV

  energy without entropy =      -28.50387257  energy(sigma->0) =      -28.50387257


--------------------------------------------------------------------------------------------------------




--------------------------------------- Iteration      1(  26)  ---------------------------------------


    POTLOK:  cpu time   21.9765: real time   22.0141
    SETDIJ:  cpu time    0.0481: real time    0.0481
     EDDAV:  cpu time    9.0064: real time    9.0285
       DOS:  cpu time    0.0111: real time    0.0111
    CHARGE:  cpu time    3.1766: real time    3.1861
    MIXING:  cpu time    1.0519: real time    1.0535
    --------------------------------------------
      LOOP:  cpu time   35.2706: real time   35.3415

 eigenvalue-minimisations  :    24
 total energy-change (2. order) :-0.2872168E-06  (-0.6655885E-09)
 number of electron      15.9999999 magnetization 
 augmentation part        1.3909991 magnetization 

 Broyden mixing:
  rms(total) = 0.15761E-05    rms(broyden)= 0.15761E-05
  rms(prec ) = 0.17209E-05
  weight for this iteration     100.00

 eigenvalues of (default mixing * dielectric matrix)
  average eigenvalue GAMMA=   2.6258
  9.7305  7.8628  5.9267  4.5413  3.6334  2.9845  2.5302  2.5302  2.2183  1.9779
  1.2917  1.2917  1.0943  1.0943  0.9804  0.9804  0.7571  0.9536  0.9536  0.8919
  0.9161

 Free energy of the ion-electron system (eV)
  ---------------------------------------------------
  alpha Z        PSCENC =         0.02092140
  Ewald energy   TEWEN  =       392.29232300
  -Hartree energ DENC   =     -1179.41657203
  -exchange      EXHF   =         0.00000000
  -V(xc)+E(xc)   XCENC  =        68.22438460
  PAW double counting   =      1103.31443084    -1107.50667037
  entropy T*S    EENTRO =        -0.00000000
  eigenvalues    EBANDS =      -220.14285978
  atomic energy  EATOM  =       914.71016949
  Solvation  Ediel_sol  =         0.00000000
  ---------------------------------------------------
  free energy    TOTEN  =       -28.50387285 eV

  energy without entropy =      -28.50387285  energy(sigma->0) =      -28.50387285


--------------------------------------------------------------------------------------------------------




--------------------------------------- Iteration      1(  27)  ---------------------------------------


    POTLOK:  cpu time   21.9091: real time   21.9420
    SETDIJ:  cpu time    0.0402: real time    0.0402
     EDDAV:  cpu time    6.9830: real time    6.9927
       DOS:  cpu time    0.0107: real time    0.0107
    CHARGE:  cpu time    3.1408: real time    3.1445
    MIXING:  cpu time    1.1289: real time    1.1305
    --------------------------------------------
      LOOP:  cpu time   33.2126: real time   33.2606

 eigenvalue-minimisations  :    16
 total energy-change (2. order) :-0.2328416E-06  (-0.5197762E-09)
 number of electron      15.9999999 magnetization 
 augmentation part        1.3909990 magnetization 

 Broyden mixing:
  rms(total) = 0.47550E-06    rms(broyden)= 0.47550E-06
  rms(prec ) = 0.57231E-06
  weight for this iteration     100.00

 eigenvalues of (default mixing * dielectric matrix)
  average eigenvalue GAMMA=   2.6353
  9.7585  8.0443  6.1733  4.7859  3.8198  3.0767  2.6265  2.5301  2.1423  2.1423
  1.9551  1.2220  1.2220  1.0939  0.9803  0.9803  0.7572  0.9779  0.9779  0.9478
  0.8862  0.8769

 Free energy of the ion-electron system (eV)
  ---------------------------------------------------
  alpha Z        PSCENC =         0.02092140
  Ewald energy   TEWEN  =       392.29232300
  -Hartree energ DENC   =     -1179.41662186
  -exchange      EXHF   =         0.00000000
  -V(xc)+E(xc)   XCENC  =        68.22438740
  PAW double counting   =      1103.31435613    -1107.50659678
  entropy T*S    EENTRO =        -0.00000000
  eigenvalues    EBANDS =      -220.14281188
  atomic energy  EATOM  =       914.71016949
  Solvation  Ediel_sol  =         0.00000000
  ---------------------------------------------------
  free energy    TOTEN  =       -28.50387309 eV

  energy without entropy =      -28.50387309  energy(sigma->0) =      -28.50387309


--------------------------------------------------------------------------------------------------------




--------------------------------------- Iteration      1(  28)  ---------------------------------------


    POTLOK:  cpu time   21.8880: real time   21.9235
    SETDIJ:  cpu time    0.0420: real time    0.0420
     EDDAV:  cpu time    8.0180: real time    8.0290
       DOS:  cpu time    0.0143: real time    0.0143
    --------------------------------------------
      LOOP:  cpu time   29.9623: real time   30.0087

 eigenvalue-minimisations  :    20
 total energy-change (2. order) :-0.8118081E-07  (-0.4048299E-09)
 number of electron      15.9999999 magnetization 
 augmentation part        1.3909990 magnetization 

 Free energy of the ion-electron system (eV)
  ---------------------------------------------------
  alpha Z        PSCENC =         0.02092140
  Ewald energy   TEWEN  =       392.29232300
  -Hartree energ DENC   =     -1179.41663661
  -exchange      EXHF   =         0.00000000
  -V(xc)+E(xc)   XCENC  =        68.22438825
  PAW double counting   =      1103.31435969    -1107.50660038
  entropy T*S    EENTRO =        -0.00000000
  eigenvalues    EBANDS =      -220.14279801
  atomic energy  EATOM  =       914.71016949
  Solvation  Ediel_sol  =         0.00000000
  ---------------------------------------------------
  free energy    TOTEN  =       -28.50387317 eV

  energy without entropy =      -28.50387317  energy(sigma->0) =      -28.50387317


--------------------------------------------------------------------------------------------------------




 average (electrostatic) potential at core
  the test charge radii are     0.5201  0.7215
  (the norm of the test charge is              1.0000)
       1 -44.9146       2 -44.9143       3 -44.5891       4 -44.6274       5 -80.7095
       6 -80.4043
 
 
 
 E-fermi :  -6.9688     XC(G=0):  -0.0333     alpha+bet : -0.0061


 k-point     1 :       0.0000    0.0000    0.0000
  band No.  band energies     occupation 
      1     -25.5426      2.00000
      2     -25.2384      2.00000
      3     -13.2934      2.00000
      4     -12.9883      2.00000
      5      -9.4435      2.00000
      6      -9.1308      2.00000
      7      -7.3677      2.00000
      8      -7.0667      2.00000
      9      -1.1085      0.00000
     10      -0.7222      0.00000
     11      -0.0006      0.00000
     12       0.0912      0.00000


--------------------------------------------------------------------------------------------------------


 soft charge-density along one line, spin component            1
         0         1         2         3         4         5         6         7         8         9
 total charge-density along one line
 
 pseudopotential strength for first ion, spin component:            1
 -2.382  -4.114  -0.010  -0.014   0.000
 -4.114  -7.020  -0.019  -0.027   0.001
 -0.010  -0.019  -0.312   0.015  -0.000
 -0.014  -0.027   0.015  -0.302  -0.000
  0.000   0.001  -0.000  -0.000  -0.323
 total augmentation occupancy for first ion, spin component:            1
  3.782  -0.789   0.450   0.602  -0.014
 -0.789   0.219  -0.094  -0.117   0.003
  0.450  -0.094   0.074   0.059  -0.001
  0.602  -0.117   0.059   0.105  -0.001
 -0.014   0.003  -0.001  -0.001   0.044


------------------------ aborting loop because EDIFF is reached ----------------------------------------



 DIPCOR: dipole corrections for dipol
 direction  1 min pos   502, direction  2 min pos   520, direction  3 min pos   451,
 dipolmoment          -0.293326      0.634254      0.008605 electrons x Angstroem
 Tr[quadrupol]         8.802980

 energy correction for charged system         0.000000 eV
 dipol+quadrupol energy correction            0.000344 eV
 added-field ion interaction          0.000000 eV  (added to PSCEN)

 
  *************** adding dipol energy to TOTEN NOW **************** 
    CHARGE:  cpu time    3.1512: real time    3.1552
    FORLOC:  cpu time    0.9025: real time    0.9035
    FORNL :  cpu time    0.3015: real time    0.3020
    STRESS:  cpu time    4.1726: real time    4.1847
    FORCOR:  cpu time   21.0478: real time   21.0757
    FORHAR:  cpu time    6.3663: real time    6.3736
    MIXING:  cpu time    1.1512: real time    1.1528
    OFIELD:  cpu time    0.0000: real time    0.0000

  FORCE on cell =-STRESS in cart. coord.  units (eV):
  Direction    XX          YY          ZZ          XY          YZ          ZX
  --------------------------------------------------------------------------------------
  Alpha Z     0.02092     0.02092     0.02092
  Ewald      39.40198   281.55305    71.33675    29.84943    -0.63890    -4.28384
  Hartree   333.85667   506.42684   339.13308     7.46991    -0.07121    -0.75090
  E(xc)     -72.65547   -72.31878   -72.54050     0.09321    -0.00234    -0.01758
  Local    -564.70996  -955.43965  -592.80339   -29.90958     0.52093     3.74647
  n-local   -61.87024   -61.98299   -61.37416     0.41266    -0.01278    -0.01248
  augment    14.56086    12.94479    13.98161    -0.47261     0.01190     0.08577
  Kinetic   311.85958   289.60066   302.94047    -7.26979     0.18787     1.20917
  Fock        0.00000     0.00000     0.00000     0.00000     0.00000     0.00000
  -------------------------------------------------------------------------------------
  Total       0.46434     0.80483     0.69479     0.17324    -0.00453    -0.02339
  in kB       0.01735     0.03008     0.02596     0.00647    -0.00017    -0.00087
  external pressure =        0.02 kB  Pullay stress =        0.00 kB


 VOLUME and BASIS-vectors are now :
 -----------------------------------------------------------------------------
  energy-cutoff  :     1600.00
  volume of cell :    42875.00
      direct lattice vectors                 reciprocal lattice vectors
    35.000000000  0.000000000  0.000000000     0.028571429  0.000000000  0.000000000
     0.000000000 35.000000000  0.000000000     0.000000000  0.028571429  0.000000000
     0.000000000  0.000000000 35.000000000     0.000000000  0.000000000  0.028571429

  length of vectors
    35.000000000 35.000000000 35.000000000     0.028571429  0.028571429  0.028571429


 FORCES acting on ions
    electron-ion (+dipol)            ewald-force                    non-local-force                 convergence-correction
 -----------------------------------------------------------------------------------------------
   -.161E+01 0.546E+02 0.732E+02   0.178E+01 -.599E+02 -.807E+02   -.160E+00 0.505E+01 0.701E+01   -.160E-06 0.128E-05 0.122E-05
   0.136E+01 0.554E+02 -.726E+02   -.150E+01 -.609E+02 0.800E+02   0.126E+00 0.513E+01 -.695E+01   -.110E-06 0.125E-05 -.119E-05
   0.562E+01 0.842E+02 0.413E-01   -.619E+01 -.934E+02 -.457E-01   0.491E+00 0.864E+01 0.531E-02   -.249E-07 0.929E-06 0.253E-08
   -.868E+02 -.261E+02 0.174E+01   0.956E+02 0.284E+02 -.192E+01   -.836E+01 -.217E+01 0.168E+00   -.134E-05 -.582E-06 0.246E-07
   0.721E+00 -.428E+02 -.371E+00   -.960E+00 0.929E+02 0.660E+00   0.245E+00 -.495E+02 -.286E+00   -.623E-06 0.368E-05 -.948E-06
   0.499E+02 -.612E+02 -.111E+01   -.887E+02 0.929E+02 0.197E+01   0.384E+02 -.313E+02 -.845E+00   -.862E-06 -.180E-05 -.166E-08
 -----------------------------------------------------------------------------------------------
   -.307E+02 0.641E+02 0.900E+00   0.000E+00 0.142E-13 0.169E-13   0.307E+02 -.641E+02 -.899E+00   -.312E-05 0.476E-05 -.889E-06
 
 
 POSITION                                       TOTAL-FORCE (eV/Angst)
 -----------------------------------------------------------------------------------
      0.01761      0.64046     34.23865         0.007227     -0.268761     -0.461000
     34.98662      0.63163      0.75455        -0.011442     -0.273731      0.458035
      0.02409      5.92692      0.00129        -0.083070     -0.551617      0.000916
      0.98480      7.09983     34.98366         0.495429      0.173143     -0.009747
      0.00000      1.22721      0.00000         0.006624      0.556499      0.002813
      0.04724      6.88801      0.00253        -0.414768      0.364466      0.008984
 -----------------------------------------------------------------------------------
    total drift:                                0.000089     -0.000073      0.000052


--------------------------------------------------------------------------------------------------------



  FREE ENERGIE OF THE ION-ELECTRON SYSTEM (eV)
  ---------------------------------------------------
  free  energy   TOTEN  =       -28.50352962 eV

  energy  without entropy=      -28.50352962  energy(sigma->0) =      -28.50352962
 


--------------------------------------------------------------------------------------------------------


    POTLOK:  cpu time   21.9082: real time   21.9399


--------------------------------------------------------------------------------------------------------


 writing wavefunctions
     LOOP+:  cpu time 1540.2998: real time 1542.1864
    4ORBIT:  cpu time    0.0000: real time    0.0000

 total amount of memory used by VASP MPI-rank0  3455162. kBytes
=======================================================================

   base      :      30000. kBytes
   nonl-proj :      87230. kBytes
   fftplans  :    1215227. kBytes
   grid      :    2104012. kBytes
   one-center:          1. kBytes
   wavefun   :      18692. kBytes
 
  
  
 General timing and accounting informations for this job:
 ========================================================
  
                  Total CPU time used (sec):     2187.777
                            User time (sec):     2064.781
                          System time (sec):      122.996
                         Elapsed time (sec):     2198.759
  
                   Maximum memory used (kb):     4260552.
                   Average memory used (kb):           0.
  
                          Minor page faults:     48422878
                          Major page faults:          140
                 Voluntary context switches:        49090
