 vasp.6.1.2 22Jul20 (build Jan  6 2021 09:55:43) gamma-only                      
 executed on             LinuxPGI date 2021.02.28  21:25:25
 running on   32 total cores
 distrk:  each k-point on   32 cores,    1 groups
 distr:  one band on NCORE=   8 cores,    4 groups


--------------------------------------------------------------------------------------------------------


 INCAR:
 POTCAR:    PAW_PBE H 15Jun2001                   
 POTCAR:    PAW_PBE O 08Apr2002                   
 POTCAR:    PAW_PBE H 15Jun2001                   
   VRHFIN =H: ultrasoft test                                                                        
   LEXCH  = PE                                                                                      
   EATOM  =    12.4884 eV,    0.9179 Ry                                                             
                                                                                                    
   TITEL  = PAW_PBE H 15Jun2001                                                                     
   LULTRA =        F    use ultrasoft PP ?                                                          
   IUNSCR =        0    unscreen: 0-lin 1-nonlin 2-no                                               
   RPACOR =    0.000    partial core radius                                                         
   POMASS =    1.000; ZVAL   =    1.000    mass and valenz                                          
   RCORE  =    1.100    outmost cutoff radius                                                       
   RWIGS  =    0.700; RWIGS  =    0.370    wigner-seitz radius (au A)                               
   ENMAX  =  250.000; ENMIN  =  200.000 eV                                                          
   RCLOC  =    0.701    cutoff for local pot                                                        
   LCOR   =        T    correct aug charges                                                         
   LPAW   =        T    paw PP                                                                      
   EAUG   =  400.000                                                                                
   RMAX   =    1.123    core radius for proj-oper                                                   
   RAUG   =    1.200    factor for augmentation sphere                                              
   RDEP   =    1.112    radius for radial grids                                                     
   RDEPT  =    0.926    core radius for aug-charge                                                  
                                                                                                    
   Atomic configuration                                                                             
    2 entries                                                                                       
     n  l   j            E        occ.                                                              
     1  0  0.50        -6.4927   1.0000                                                             
     2  1  0.50        -3.4015   0.0000                                                             
   Description                                                                                      
     l       E           TYP  RCUT    TYP  RCUT                                                     
     0     -6.4927494     23  1.100                                                                 
     0      6.8029130     23  1.100                                                                 
     1     -4.0817478     23  1.100                                                                 
  local pseudopotential read in
  atomic valenz-charges read in
  non local Contribution for L=            0  read in
    real space projection operators read in
  non local Contribution for L=            0  read in
    real space projection operators read in
  non local Contribution for L=            1  read in
    real space projection operators read in
    PAW grid and wavefunctions read in
 
   number of l-projection  operators is LMAX  =            3
   number of lm-projection operators is LMMAX =            5
 
 POTCAR:    PAW_PBE O 08Apr2002                   
   VRHFIN =O: s2p4                                                                                  
   LEXCH  = PE                                                                                      
   EATOM  =   432.3788 eV,   31.7789 Ry                                                             
                                                                                                    
   TITEL  = PAW_PBE O 08Apr2002                                                                     
   LULTRA =        F    use ultrasoft PP ?                                                          
   IUNSCR =        1    unscreen: 0-lin 1-nonlin 2-no                                               
   RPACOR =    1.200    partial core radius                                                         
   POMASS =   16.000; ZVAL   =    6.000    mass and valenz                                          
   RCORE  =    1.520    outmost cutoff radius                                                       
   RWIGS  =    1.550; RWIGS  =    0.820    wigner-seitz radius (au A)                               
   ENMAX  =  400.000; ENMIN  =  300.000 eV                                                          
   ICORE  =        2    local potential                                                             
   LCOR   =        T    correct aug charges                                                         
   LPAW   =        T    paw PP                                                                      
   EAUG   =  605.392                                                                                
   DEXC   =    0.000                                                                                
   RMAX   =    1.553    core radius for proj-oper                                                   
   RAUG   =    1.300    factor for augmentation sphere                                              
   RDEP   =    1.550    radius for radial grids                                                     
   RDEPT  =    1.329    core radius for aug-charge                                                  
                                                                                                    
   Atomic configuration                                                                             
    4 entries                                                                                       
     n  l   j            E        occ.                                                              
     1  0  0.50      -514.6923   2.0000                                                             
     2  0  0.50       -23.9615   2.0000                                                             
     2  1  0.50        -9.0305   4.0000                                                             
     3  2  1.50        -9.5241   0.0000                                                             
   Description                                                                                      
     l       E           TYP  RCUT    TYP  RCUT                                                     
     0    -23.9615318     23  1.200                                                                 
     0     -9.5240782     23  1.200                                                                 
     1     -9.0304911     23  1.520                                                                 
     1      8.1634956     23  1.520                                                                 
     2     -9.5240782      7  1.500                                                                 
  local pseudopotential read in
  partial core-charges read in
  partial kinetic energy density read in
  kinetic energy density of atom read in
  atomic valenz-charges read in
  non local Contribution for L=            0  read in
    real space projection operators read in
  non local Contribution for L=            0  read in
    real space projection operators read in
  non local Contribution for L=            1  read in
    real space projection operators read in
  non local Contribution for L=            1  read in
    real space projection operators read in
    PAW grid and wavefunctions read in
 
   number of l-projection  operators is LMAX  =            4
   number of lm-projection operators is LMMAX =            8
 
  PAW_PBE H 15Jun2001                   :
 energy of atom  1       EATOM=  -12.4884
 kinetic energy error for atom=    0.0000 (will be added to EATOM!!)
  PAW_PBE O 08Apr2002                   :
 energy of atom  2       EATOM= -432.3788
 kinetic energy error for atom=    0.0005 (will be added to EATOM!!)
 
 
 POSCAR:  H  O
  positions in cartesian coordinates
  No initial velocities read in
 exchange correlation table for  LEXCH =        8
   RHO(1)=    0.500       N(1)  =     2000
   RHO(2)=  100.500       N(2)  =     4000
 


--------------------------------------------------------------------------------------------------------


 ion  position               nearest neighbor table
   1  0.001  0.018  0.978-   5 0.96
   2  1.000  0.018  0.022-   5 0.96
   3  0.001  0.109  0.000-   6 0.96
   4  0.028  0.143  1.000-   6 0.96
   5  0.000  0.035  0.000-   1 0.96   2 0.96
   6  0.001  0.137  0.000-   3 0.96   4 0.96
 
  LATTYP: Found a simple cubic cell.
 ALAT       =    35.0000000000
  
  Lattice vectors:
  
 A1 = (  35.0000000000,   0.0000000000,   0.0000000000)
 A2 = (   0.0000000000,  35.0000000000,   0.0000000000)
 A3 = (   0.0000000000,   0.0000000000,  35.0000000000)


Analysis of symmetry for initial positions (statically):
=====================================================================
 Subroutine PRICEL returns:
 Original cell was already a primitive cell.
 

 Routine SETGRP: Setting up the symmetry group for a 
 simple cubic supercell.


 Subroutine GETGRP returns: Found  1 space group operations
 (whereof  1 operations were pure point group operations)
 out of a pool of 48 trial point group operations.


The static configuration has the point symmetry C_1 .


Analysis of symmetry for dynamics (positions and initial velocities):
=====================================================================
 Subroutine PRICEL returns:
 Original cell was already a primitive cell.
 

 Routine SETGRP: Setting up the symmetry group for a 
 simple cubic supercell.


 Subroutine GETGRP returns: Found  1 space group operations
 (whereof  1 operations were pure point group operations)
 out of a pool of 48 trial point group operations.


The dynamic configuration has the point symmetry C_1 .


 Subroutine INISYM returns: Found  1 space group operations
 (whereof  1 operations are pure point group operations),
 and found     1 'primitive' translations


----------------------------------------------------------------------------------------

                                     Primitive cell                                     

  volume of cell :   42875.0000

  direct lattice vectors                    reciprocal lattice vectors
    35.000000000  0.000000000  0.000000000     0.028571429  0.000000000  0.000000000
     0.000000000 35.000000000  0.000000000     0.000000000  0.028571429  0.000000000
     0.000000000  0.000000000 35.000000000     0.000000000  0.000000000  0.028571429

  length of vectors
    35.000000000 35.000000000 35.000000000     0.028571429  0.028571429  0.028571429

  position of ions in fractional coordinates (direct lattice)
     0.000503079  0.018298976  0.978247097
     0.999617776  0.018046666  0.021558586
     0.000688177  0.109340430  0.000036905
     0.028137029  0.142852209  0.999533239
     0.000000000  0.035063029  0.000000000
     0.001349770  0.136800153  0.000072384

  ion indices of the primitive-cell ions
   primitive index   ion index
                 1           1
                 2           2
                 3           3
                 4           4
                 5           5
                 6           6

----------------------------------------------------------------------------------------

 
 
 KPOINTS: automatic mesh                          

Automatic generation of k-mesh.
Space group operators:
 irot       det(A)        alpha          n_x          n_y          n_z        tau_x        tau_y        tau_z
    1     1.000000     0.000000     1.000000     0.000000     0.000000     0.000000     0.000000     0.000000
 
 Subroutine IBZKPT returns following result:
 ===========================================
 
 Found      1 irreducible k-points:
 
 Following reciprocal coordinates:
            Coordinates               Weight
  0.000000  0.000000  0.000000      1.000000
 
 Following cartesian coordinates:
            Coordinates               Weight
  0.000000  0.000000  0.000000      1.000000
 


--------------------------------------------------------------------------------------------------------




 Dimension of arrays:
   k-points           NKPTS =      1   k-points in BZ     NKDIM =      1   number of bands    NBANDS=     12
   number of dos      NEDOS =    301   number of ions     NIONS =      6
   non local maximal  LDIM  =      4   non local SUM 2l+1 LMDIM =      8
   total plane-waves  NPLWV = ******
   max r-space proj   IRMAX =      1   max aug-charges    IRDMAX=  33660
   dimension x,y,z NGX =   480 NGY =  480 NGZ =  480
   dimension x,y,z NGXF=   960 NGYF=  960 NGZF=  960
   support grid    NGXF=   960 NGYF=  960 NGZF=  960
   ions per type =               4   2
   NGX,Y,Z   is equivalent  to a cutoff of  22.80, 22.80, 22.80 a.u.
   NGXF,Y,Z  is equivalent  to a cutoff of  45.60, 45.60, 45.60 a.u.

 SYSTEM =  C                                       
 POSCAR =   H  O                                   

 Startparameter for this run:
   NWRITE =      2    write-flag & timer
   PREC   = acc       normal or accurate (medium, high low for compatibility)
   ISTART =      0    job   : 0-new  1-cont  2-samecut
   ICHARG =      2    charge: 1-file 2-atom 10-const
   ISPIN  =      1    spin polarized calculation?
   LNONCOLLINEAR =      F non collinear calculations
   LSORBIT =      F    spin-orbit coupling
   INIWAV =      1    electr: 0-lowe 1-rand  2-diag
   LASPH  =      T    aspherical Exc in radial PAW
   METAGGA=      F    non-selfconsistent MetaGGA calc.

 Electronic Relaxation 1
   ENCUT  = 1600.0 eV 117.60 Ry   10.84 a.u. 114.15114.15114.15*2*pi/ulx,y,z
   ENINI  = 1600.0     initial cutoff
   ENAUG  =  605.4 eV  augmentation charge cutoff
   NELM   =     60;   NELMIN=  2; NELMDL= -5     # of ELM steps 
   EDIFF  = 0.1E-06   stopping-criterion for ELM
   LREAL  =      F    real-space projection
   NLSPLINE    = F    spline interpolate recip. space projectors
   LCOMPAT=      F    compatible to vasp.4.4
   GGA_COMPAT  = T    GGA compatible to vasp.4.4-vasp.4.6
   LMAXPAW     = -100 max onsite density
   LMAXMIX     =    2 max onsite mixed and CHGCAR
   VOSKOWN=      0    Vosko Wilk Nusair interpolation
   ROPT   =    0.00000   0.00000
 Ionic relaxation
   EDIFFG = 0.1E-05   stopping-criterion for IOM
   NSW    =      0    number of steps for IOM
   NBLOCK =      1;   KBLOCK =      1    inner block; outer block 
   IBRION =     -1    ionic relax: 0-MD 1-quasi-New 2-CG
   NFREE  =      0    steps in history (QN), initial steepest desc. (CG)
   ISIF   =      2    stress and relaxation
   IWAVPR =     10    prediction:  0-non 1-charg 2-wave 3-comb
   ISYM   =      2    0-nonsym 1-usesym 2-fastsym
   LCORR  =      T    Harris-Foulkes like correction to forces

   POTIM  = 0.5000    time-step for ionic-motion
   TEIN   =    0.0    initial temperature
   TEBEG  =    0.0;   TEEND  =   0.0 temperature during run
   SMASS  =  -3.00    Nose mass-parameter (am)
   estimated Nose-frequenzy (Omega)   =  0.10E-29 period in steps = 0.13E+47 mass=  -0.280E-25a.u.
   SCALEE = 1.0000    scale energy and forces
   NPACO  =    256;   APACO  = 16.0  distance and # of slots for P.C.
   PSTRESS=    0.0 pullay stress

  Mass of Ions in am
   POMASS =   1.00 16.00
  Ionic Valenz
   ZVAL   =   1.00  6.00
  Atomic Wigner-Seitz radii
   RWIGS  =  -1.00 -1.00
  virtual crystal weights 
   VCA    =   1.00  1.00
   NELECT =      16.0000    total number of electrons
   NUPDOWN=      -1.0000    fix difference up-down

 DOS related values:
   EMIN   =  10.00;   EMAX   =-10.00  energy-range for DOS
   EFERMI =   0.00
   ISMEAR =     0;   SIGMA  =   0.01  broadening in eV -4-tet -1-fermi 0-gaus

 Electronic relaxation 2 (details)
   IALGO  =     38    algorithm
   LDIAG  =      T    sub-space diagonalisation (order eigenvalues)
   LSUBROT=      F    optimize rotation matrix (better conditioning)
   TURBO    =      0    0=normal 1=particle mesh
   IRESTART =      0    0=no restart 2=restart with 2 vectors
   NREBOOT  =      0    no. of reboots
   NMIN     =      0    reboot dimension
   EREF     =   0.00    reference energy to select bands
   IMIX   =      4    mixing-type and parameters
     AMIX     =   0.40;   BMIX     =  1.00
     AMIX_MAG =   1.60;   BMIX_MAG =  1.00
     AMIN     =   0.10
     WC   =   100.;   INIMIX=   1;  MIXPRE=   1;  MAXMIX= -45

 Intra band minimization:
   WEIMIN = 0.0000     energy-eigenvalue tresh-hold
   EBREAK =  0.21E-08  absolut break condition
   DEPER  =   0.30     relativ break condition  

   TIME   =   0.40     timestep for ELM

  volume/ion in A,a.u.               =    7145.83     48222.46
  Fermi-wavevector in a.u.,A,eV,Ry     =   0.117864  0.222730  0.189010  0.013892
  Thomas-Fermi vector in A             =   0.732055
 
 Write flags
   LWAVE        =      T    write WAVECAR
   LDOWNSAMPLE  =      F    k-point downsampling of WAVECAR
   LCHARG       =      T    write CHGCAR
   LVTOT        =      F    write LOCPOT, total local potential
   LVHAR        =      F    write LOCPOT, Hartree potential only
   LELF         =      F    write electronic localiz. function (ELF)
   LORBIT       =      0    0 simple, 1 ext, 2 COOP (PROOUT), +10 PAW based schemes


 Dipole corrections
   LMONO  =      F    monopole corrections only (constant potential shift)
   LDIPOL =      F    correct potential (dipole corrections)
   IDIPOL =      4    1-x, 2-y, 3-z, 4-all directions 
   EPSILON=  1.0000000 bulk dielectric constant

 Exchange correlation treatment:
   GGA     =    --    GGA type
   LEXCH   =     8    internal setting for exchange type
   VOSKOWN=      0    Vosko Wilk Nusair interpolation
   LHFCALC =     F    Hartree Fock is set to
   LHFONE  =     F    Hartree Fock one center treatment
   AEXX    =    0.0000 exact exchange contribution

 Linear response parameters
   LEPSILON=     F    determine dielectric tensor
   LRPA    =     F    only Hartree local field effects (RPA)
   LNABLA  =     F    use nabla operator in PAW spheres
   LVEL    =     F    velocity operator in full k-point grid
   LINTERFAST=   F  fast interpolation
   KINTER  =     0    interpolate to denser k-point grid
   CSHIFT  =0.1000    complex shift for real part using Kramers Kronig
   OMEGAMAX=  -1.0    maximum frequency
   DEG_THRESHOLD= 0.2000000E-02 threshold for treating states as degnerate
   RTIME   =   -0.100 relaxation time in fs
  (WPLASMAI=    0.000 imaginary part of plasma frequency in eV, 0.658/RTIME)
   DFIELD  = 0.0000000 0.0000000 0.0000000 field for delta impulse in time
 
 Orbital magnetization related:
   ORBITALMAG=     F  switch on orbital magnetization
   LCHIMAG   =     F  perturbation theory with respect to B field
   DQ        =  0.001000  dq finite difference perturbation B field
   LLRAUG    =     F  two centre corrections for induced B field



--------------------------------------------------------------------------------------------------------


 Static calculation
 charge density and potential will be updated during run
 non-spin polarized calculation
 Variant of blocked Davidson
 Davidson routine will perform the subspace rotation
 perform sub-space diagonalisation
    after iterative eigenvector-optimisation
 modified Broyden-mixing scheme, WC =      100.0
 initial mixing is a Kerker type mixing with AMIX =  0.4000 and BMIX =      1.0000
 Hartree-type preconditioning will be used
 using additional bands             4
 reciprocal scheme for non local part
 use partial core corrections
 calculate Harris-corrections to forces 
   (improved forces if not selfconsistent)
 use gradient corrections 
 use of overlap-Matrix (Vanderbilt PP)
 Gauss-broadening in eV      SIGMA  =   0.01


--------------------------------------------------------------------------------------------------------


  energy-cutoff  :     1600.00
  volume of cell :    42875.00
      direct lattice vectors                 reciprocal lattice vectors
    35.000000000  0.000000000  0.000000000     0.028571429  0.000000000  0.000000000
     0.000000000 35.000000000  0.000000000     0.000000000  0.028571429  0.000000000
     0.000000000  0.000000000 35.000000000     0.000000000  0.000000000  0.028571429

  length of vectors
    35.000000000 35.000000000 35.000000000     0.028571429  0.028571429  0.028571429


 
 k-points in units of 2pi/SCALE and weight: automatic mesh                          
   0.00000000  0.00000000  0.00000000       1.000
 
 k-points in reciprocal lattice and weights: automatic mesh                          
   0.00000000  0.00000000  0.00000000       1.000
 
 position of ions in fractional coordinates (direct lattice) 
   0.00050308  0.01829898  0.97824710
   0.99961778  0.01804667  0.02155859
   0.00068818  0.10934043  0.00003690
   0.02813703  0.14285221  0.99953324
   0.00000000  0.03506303  0.00000000
   0.00134977  0.13680015  0.00007238
 
 position of ions in cartesian coordinates  (Angst):
   0.01760775  0.64046416 34.23864840
  34.98662216  0.63163330  0.75455051
   0.02408619  3.82691505  0.00129166
   0.98479602  4.99982731 34.98366338
   0.00000000  1.22720600  0.00000000
   0.04724194  4.78800534  0.00253342
 


--------------------------------------------------------------------------------------------------------


 use parallel FFT for orbitals z direction half grid
 k-point   1 :   0.0000 0.0000 0.0000  plane waves: 3115599

 maximum and minimum number of plane-waves per node :    389462   389421

 maximum number of plane-waves:   3115599
 maximum index in each direction: 
   IXMAX=  114   IYMAX=  114   IZMAX=  114
   IXMIN= -114   IYMIN= -114   IZMIN=    0


 parallel 3D FFT for wavefunctions:
    minimum data exchange during FFTs selected (reduces bandwidth)
 parallel 3D FFT for charge:
    minimum data exchange during FFTs selected (reduces bandwidth)


 total amount of memory used by VASP MPI-rank0  3455162. kBytes
=======================================================================

   base      :      30000. kBytes
   nonl-proj :      87230. kBytes
   fftplans  :    1215227. kBytes
   grid      :    2104012. kBytes
   one-center:          1. kBytes
   wavefun   :      18692. kBytes
 
     INWAV:  cpu time    0.0001: real time    0.0000
 Broyden mixing: mesh for mixing (old mesh)
   NGX =229   NGY =229   NGZ =229
  (NGX  =960   NGY  =960   NGZ  =960)
  gives a total of ****** points

 initial charge density was supplied:
 charge density of overlapping atoms calculated
 number of electron      16.0000000 magnetization 
 keeping initial charge density in first step


--------------------------------------------------------------------------------------------------------


 Maximum index for augmentation-charges          1230 (set IRDMAX)


--------------------------------------------------------------------------------------------------------


 First call to EWALD:  gamma=   0.051
 Maximum number of real-space cells 3x 3x 3
 Maximum number of reciprocal cells 3x 3x 3

    FEWALD:  cpu time    0.0057: real time    0.0058


--------------------------------------- Iteration      1(   1)  ---------------------------------------


    POTLOK:  cpu time   23.5663: real time   23.5996
    SETDIJ:  cpu time    0.0482: real time    0.0499
     EDDAV:  cpu time   11.8345: real time   14.6761
       DOS:  cpu time    0.0031: real time    0.0031
    --------------------------------------------
      LOOP:  cpu time   35.4521: real time   38.3288

 eigenvalue-minimisations  :    40
 total energy-change (2. order) : 0.1524913E+03  (-0.3077872E+03)
 number of electron      16.0000000 magnetization 
 augmentation part       16.0000000 magnetization 

 Free energy of the ion-electron system (eV)
  ---------------------------------------------------
  alpha Z        PSCENC =         0.02092140
  Ewald energy   TEWEN  =       486.72385237
  -Hartree energ DENC   =     -1202.00157970
  -exchange      EXHF   =         0.00000000
  -V(xc)+E(xc)   XCENC  =        64.48785662
  PAW double counting   =       701.63506352     -705.26791599
  entropy T*S    EENTRO =        -0.00000000
  eigenvalues    EBANDS =      -107.81703826
  atomic energy  EATOM  =       914.71016949
  Solvation  Ediel_sol  =         0.00000000
  ---------------------------------------------------
  free energy    TOTEN  =       152.49132947 eV

  energy without entropy =      152.49132947  energy(sigma->0) =      152.49132947


--------------------------------------------------------------------------------------------------------




--------------------------------------- Iteration      1(   2)  ---------------------------------------


     EDDAV:  cpu time   13.6400: real time   13.6621
       DOS:  cpu time    0.0002: real time    0.0002
    --------------------------------------------
      LOOP:  cpu time   13.6402: real time   13.6623

 eigenvalue-minimisations  :    48
 total energy-change (2. order) :-0.1034519E+03  (-0.1023777E+03)
 number of electron      16.0000000 magnetization 
 augmentation part       16.0000000 magnetization 

 Free energy of the ion-electron system (eV)
  ---------------------------------------------------
  alpha Z        PSCENC =         0.02092140
  Ewald energy   TEWEN  =       486.72385237
  -Hartree energ DENC   =     -1202.00157970
  -exchange      EXHF   =         0.00000000
  -V(xc)+E(xc)   XCENC  =        64.48785662
  PAW double counting   =       701.63506352     -705.26791599
  entropy T*S    EENTRO =        -0.00000000
  eigenvalues    EBANDS =      -211.26890754
  atomic energy  EATOM  =       914.71016949
  Solvation  Ediel_sol  =         0.00000000
  ---------------------------------------------------
  free energy    TOTEN  =        49.03946018 eV

  energy without entropy =       49.03946018  energy(sigma->0) =       49.03946018


--------------------------------------------------------------------------------------------------------




--------------------------------------- Iteration      1(   3)  ---------------------------------------


     EDDAV:  cpu time   10.9216: real time   10.9392
       DOS:  cpu time    0.0037: real time    0.0037
    --------------------------------------------
      LOOP:  cpu time   10.9253: real time   10.9430

 eigenvalue-minimisations  :    36
 total energy-change (2. order) :-0.7078496E+02  (-0.7026482E+02)
 number of electron      16.0000000 magnetization 
 augmentation part       16.0000000 magnetization 

 Free energy of the ion-electron system (eV)
  ---------------------------------------------------
  alpha Z        PSCENC =         0.02092140
  Ewald energy   TEWEN  =       486.72385237
  -Hartree energ DENC   =     -1202.00157970
  -exchange      EXHF   =         0.00000000
  -V(xc)+E(xc)   XCENC  =        64.48785662
  PAW double counting   =       701.63506352     -705.26791599
  entropy T*S    EENTRO =        -0.00000000
  eigenvalues    EBANDS =      -282.05386341
  atomic energy  EATOM  =       914.71016949
  Solvation  Ediel_sol  =         0.00000000
  ---------------------------------------------------
  free energy    TOTEN  =       -21.74549568 eV

  energy without entropy =      -21.74549568  energy(sigma->0) =      -21.74549568


--------------------------------------------------------------------------------------------------------




--------------------------------------- Iteration      1(   4)  ---------------------------------------


     EDDAV:  cpu time    9.9531: real time    9.9695
       DOS:  cpu time    0.0017: real time    0.0017
    --------------------------------------------
      LOOP:  cpu time    9.9549: real time    9.9712

 eigenvalue-minimisations  :    32
 total energy-change (2. order) :-0.1078945E+02  (-0.1078499E+02)
 number of electron      16.0000000 magnetization 
 augmentation part       16.0000000 magnetization 

 Free energy of the ion-electron system (eV)
  ---------------------------------------------------
  alpha Z        PSCENC =         0.02092140
  Ewald energy   TEWEN  =       486.72385237
  -Hartree energ DENC   =     -1202.00157970
  -exchange      EXHF   =         0.00000000
  -V(xc)+E(xc)   XCENC  =        64.48785662
  PAW double counting   =       701.63506352     -705.26791599
  entropy T*S    EENTRO =        -0.00000000
  eigenvalues    EBANDS =      -292.84330855
  atomic energy  EATOM  =       914.71016949
  Solvation  Ediel_sol  =         0.00000000
  ---------------------------------------------------
  free energy    TOTEN  =       -32.53494082 eV

  energy without entropy =      -32.53494082  energy(sigma->0) =      -32.53494082


--------------------------------------------------------------------------------------------------------




--------------------------------------- Iteration      1(   5)  ---------------------------------------


     EDDAV:  cpu time    9.9788: real time    9.9951
       DOS:  cpu time    0.0042: real time    0.0042
    CHARGE:  cpu time    3.2109: real time    3.2155
    MIXING:  cpu time    0.4491: real time    0.4499
    --------------------------------------------
      LOOP:  cpu time   13.6431: real time   13.6647

 eigenvalue-minimisations  :    32
 total energy-change (2. order) :-0.1527700E+00  (-0.1527637E+00)
 number of electron      16.0000000 magnetization 
 augmentation part        1.6809846 magnetization 

 Broyden mixing:
  rms(total) = 0.11321E+01    rms(broyden)= 0.11321E+01
  rms(prec ) = 0.11682E+01
  weight for this iteration     100.00

 Free energy of the ion-electron system (eV)
  ---------------------------------------------------
  alpha Z        PSCENC =         0.02092140
  Ewald energy   TEWEN  =       486.72385237
  -Hartree energ DENC   =     -1202.00157970
  -exchange      EXHF   =         0.00000000
  -V(xc)+E(xc)   XCENC  =        64.48785662
  PAW double counting   =       701.63506352     -705.26791599
  entropy T*S    EENTRO =        -0.00000000
  eigenvalues    EBANDS =      -292.99607857
  atomic energy  EATOM  =       914.71016949
  Solvation  Ediel_sol  =         0.00000000
  ---------------------------------------------------
  free energy    TOTEN  =       -32.68771085 eV

  energy without entropy =      -32.68771085  energy(sigma->0) =      -32.68771085


--------------------------------------------------------------------------------------------------------




--------------------------------------- Iteration      1(   6)  ---------------------------------------


    POTLOK:  cpu time   23.3791: real time   23.4120
    SETDIJ:  cpu time    0.0501: real time    0.0501
     EDDAV:  cpu time    9.1302: real time    9.1460
       DOS:  cpu time    0.0035: real time    0.0035
    CHARGE:  cpu time    3.0486: real time    3.0531
    MIXING:  cpu time    0.4727: real time    0.4837
    --------------------------------------------
      LOOP:  cpu time   36.0842: real time   36.1484

 eigenvalue-minimisations  :    28
 total energy-change (2. order) : 0.3750897E+01  (-0.1621189E+01)
 number of electron      16.0000000 magnetization 
 augmentation part        1.4132619 magnetization 

 Broyden mixing:
  rms(total) = 0.45087E+00    rms(broyden)= 0.45087E+00
  rms(prec ) = 0.45883E+00
  weight for this iteration     100.00

 eigenvalues of (default mixing * dielectric matrix)
  average eigenvalue GAMMA=   0.9425
  0.9425

 Free energy of the ion-electron system (eV)
  ---------------------------------------------------
  alpha Z        PSCENC =         0.02092140
  Ewald energy   TEWEN  =       486.72385237
  -Hartree energ DENC   =     -1250.31703340
  -exchange      EXHF   =         0.00000000
  -V(xc)+E(xc)   XCENC  =        67.17147839
  PAW double counting   =       891.75679817     -896.12248936
  entropy T*S    EENTRO =        -0.00000000
  eigenvalues    EBANDS =      -242.88051126
  atomic energy  EATOM  =       914.71016949
  Solvation  Ediel_sol  =         0.00000000
  ---------------------------------------------------
  free energy    TOTEN  =       -28.93681420 eV

  energy without entropy =      -28.93681420  energy(sigma->0) =      -28.93681420


--------------------------------------------------------------------------------------------------------




--------------------------------------- Iteration      1(   7)  ---------------------------------------


    POTLOK:  cpu time   23.3894: real time   23.4222
    SETDIJ:  cpu time    0.0616: real time    0.0616
     EDDAV:  cpu time   10.9265: real time   10.9441
       DOS:  cpu time    0.0050: real time    0.0050
    CHARGE:  cpu time    3.0601: real time    3.0645
    MIXING:  cpu time    0.4882: real time    0.4889
    --------------------------------------------
      LOOP:  cpu time   37.9307: real time   37.9864

 eigenvalue-minimisations  :    36
 total energy-change (2. order) : 0.1744045E+00  (-0.5016301E-01)
 number of electron      16.0000000 magnetization 
 augmentation part        1.3986951 magnetization 

 Broyden mixing:
  rms(total) = 0.29624E+00    rms(broyden)= 0.29624E+00
  rms(prec ) = 0.30138E+00
  weight for this iteration     100.00

 eigenvalues of (default mixing * dielectric matrix)
  average eigenvalue GAMMA=   1.7194
  1.0864  2.3524

 Free energy of the ion-electron system (eV)
  ---------------------------------------------------
  alpha Z        PSCENC =         0.02092140
  Ewald energy   TEWEN  =       486.72385237
  -Hartree energ DENC   =     -1258.37110794
  -exchange      EXHF   =         0.00000000
  -V(xc)+E(xc)   XCENC  =        67.59221949
  PAW double counting   =       981.49397211     -985.79275104
  entropy T*S    EENTRO =        -0.00000000
  eigenvalues    EBANDS =      -235.13968557
  atomic energy  EATOM  =       914.71016949
  Solvation  Ediel_sol  =         0.00000000
  ---------------------------------------------------
  free energy    TOTEN  =       -28.76240970 eV

  energy without entropy =      -28.76240970  energy(sigma->0) =      -28.76240970


--------------------------------------------------------------------------------------------------------




--------------------------------------- Iteration      1(   8)  ---------------------------------------


    POTLOK:  cpu time   23.4668: real time   23.4997
    SETDIJ:  cpu time    0.0487: real time    0.0487
     EDDAV:  cpu time    9.0807: real time    9.0952
       DOS:  cpu time    0.0034: real time    0.0034
    CHARGE:  cpu time    2.9992: real time    3.0051
    MIXING:  cpu time    0.5618: real time    0.5626
    --------------------------------------------
      LOOP:  cpu time   36.1605: real time   36.2147

 eigenvalue-minimisations  :    28
 total energy-change (2. order) : 0.1637260E+00  (-0.1504793E-01)
 number of electron      16.0000000 magnetization 
 augmentation part        1.4090281 magnetization 

 Broyden mixing:
  rms(total) = 0.45789E-01    rms(broyden)= 0.45789E-01
  rms(prec ) = 0.50720E-01
  weight for this iteration     100.00

 eigenvalues of (default mixing * dielectric matrix)
  average eigenvalue GAMMA=   1.4459
  2.4039  0.9669  0.9669

 Free energy of the ion-electron system (eV)
  ---------------------------------------------------
  alpha Z        PSCENC =         0.02092140
  Ewald energy   TEWEN  =       486.72385237
  -Hartree energ DENC   =     -1267.23372701
  -exchange      EXHF   =         0.00000000
  -V(xc)+E(xc)   XCENC  =        68.08292099
  PAW double counting   =      1113.76171593    -1117.96302934
  entropy T*S    EENTRO =        -0.00000000
  eigenvalues    EBANDS =      -226.70150754
  atomic energy  EATOM  =       914.71016949
  Solvation  Ediel_sol  =         0.00000000
  ---------------------------------------------------
  free energy    TOTEN  =       -28.59868370 eV

  energy without entropy =      -28.59868370  energy(sigma->0) =      -28.59868370


--------------------------------------------------------------------------------------------------------




--------------------------------------- Iteration      1(   9)  ---------------------------------------


    POTLOK:  cpu time   23.3771: real time   23.4100
    SETDIJ:  cpu time    0.0496: real time    0.0496
     EDDAV:  cpu time    9.1129: real time    9.1278
       DOS:  cpu time    0.0051: real time    0.0051
    CHARGE:  cpu time    3.3477: real time    3.3518
    MIXING:  cpu time    0.5134: real time    0.5143
    --------------------------------------------
      LOOP:  cpu time   36.4058: real time   36.4585

 eigenvalue-minimisations  :    28
 total energy-change (2. order) : 0.1001562E-01  (-0.3153764E-02)
 number of electron      16.0000000 magnetization 
 augmentation part        1.3971318 magnetization 

 Broyden mixing:
  rms(total) = 0.21365E-01    rms(broyden)= 0.21365E-01
  rms(prec ) = 0.26605E-01
  weight for this iteration     100.00

 eigenvalues of (default mixing * dielectric matrix)
  average eigenvalue GAMMA=   1.6341
  0.9914  0.9914  2.2768  2.2768

 Free energy of the ion-electron system (eV)
  ---------------------------------------------------
  alpha Z        PSCENC =         0.02092140
  Ewald energy   TEWEN  =       486.72385237
  -Hartree energ DENC   =     -1269.73738594
  -exchange      EXHF   =         0.00000000
  -V(xc)+E(xc)   XCENC  =        68.19796836
  PAW double counting   =      1116.25631369    -1120.48051294
  entropy T*S    EENTRO =        -0.00000000
  eigenvalues    EBANDS =      -224.27999452
  atomic energy  EATOM  =       914.71016949
  Solvation  Ediel_sol  =         0.00000000
  ---------------------------------------------------
  free energy    TOTEN  =       -28.58866809 eV

  energy without entropy =      -28.58866809  energy(sigma->0) =      -28.58866809


--------------------------------------------------------------------------------------------------------




--------------------------------------- Iteration      1(  10)  ---------------------------------------


    POTLOK:  cpu time   23.4559: real time   23.4887
    SETDIJ:  cpu time    0.0559: real time    0.0559
     EDDAV:  cpu time    9.1159: real time    9.1306
       DOS:  cpu time    0.0070: real time    0.0070
    CHARGE:  cpu time    3.0462: real time    3.0506
    MIXING:  cpu time    0.5491: real time    0.5500
    --------------------------------------------
      LOOP:  cpu time   36.2299: real time   36.2828

 eigenvalue-minimisations  :    28
 total energy-change (2. order) : 0.1493134E-02  (-0.6634197E-03)
 number of electron      16.0000000 magnetization 
 augmentation part        1.3968740 magnetization 

 Broyden mixing:
  rms(total) = 0.10702E-01    rms(broyden)= 0.10702E-01
  rms(prec ) = 0.14542E-01
  weight for this iteration     100.00

 eigenvalues of (default mixing * dielectric matrix)
  average eigenvalue GAMMA=   1.6353
  2.7143  2.3650  0.9670  0.9670  1.1631

 Free energy of the ion-electron system (eV)
  ---------------------------------------------------
  alpha Z        PSCENC =         0.02092140
  Ewald energy   TEWEN  =       486.72385237
  -Hartree energ DENC   =     -1271.51689434
  -exchange      EXHF   =         0.00000000
  -V(xc)+E(xc)   XCENC  =        68.22490528
  PAW double counting   =      1105.81768569    -1110.02575009
  entropy T*S    EENTRO =        -0.00000000
  eigenvalues    EBANDS =      -222.54206476
  atomic energy  EATOM  =       914.71016949
  Solvation  Ediel_sol  =         0.00000000
  ---------------------------------------------------
  free energy    TOTEN  =       -28.58717495 eV

  energy without entropy =      -28.58717495  energy(sigma->0) =      -28.58717495


--------------------------------------------------------------------------------------------------------




--------------------------------------- Iteration      1(  11)  ---------------------------------------


    POTLOK:  cpu time   23.4373: real time   23.4701
    SETDIJ:  cpu time    0.0563: real time    0.0563
     EDDAV:  cpu time   10.0258: real time   10.0420
       DOS:  cpu time    0.0039: real time    0.0039
    CHARGE:  cpu time    3.0442: real time    3.0485
    MIXING:  cpu time    0.7783: real time    0.7793
    --------------------------------------------
      LOOP:  cpu time   37.3457: real time   37.4001

 eigenvalue-minimisations  :    32
 total energy-change (2. order) :-0.1748121E-02  (-0.4614052E-03)
 number of electron      16.0000000 magnetization 
 augmentation part        1.3933449 magnetization 

 Broyden mixing:
  rms(total) = 0.90918E-02    rms(broyden)= 0.90918E-02
  rms(prec ) = 0.11620E-01
  weight for this iteration     100.00

 eigenvalues of (default mixing * dielectric matrix)
  average eigenvalue GAMMA=   1.6209
  3.3376  2.4638  1.0248  1.0248  1.0125  0.8619

 Free energy of the ion-electron system (eV)
  ---------------------------------------------------
  alpha Z        PSCENC =         0.02092140
  Ewald energy   TEWEN  =       486.72385237
  -Hartree energ DENC   =     -1272.84497177
  -exchange      EXHF   =         0.00000000
  -V(xc)+E(xc)   XCENC  =        68.26692851
  PAW double counting   =      1106.31714820    -1110.52983533
  entropy T*S    EENTRO =        -0.00000000
  eigenvalues    EBANDS =      -221.25313595
  atomic energy  EATOM  =       914.71016949
  Solvation  Ediel_sol  =         0.00000000
  ---------------------------------------------------
  free energy    TOTEN  =       -28.58892307 eV

  energy without entropy =      -28.58892307  energy(sigma->0) =      -28.58892307


--------------------------------------------------------------------------------------------------------




--------------------------------------- Iteration      1(  12)  ---------------------------------------


    POTLOK:  cpu time   23.4392: real time   23.4719
    SETDIJ:  cpu time    0.0519: real time    0.0520
     EDDAV:  cpu time    9.1081: real time    9.1229
       DOS:  cpu time    0.0011: real time    0.0011
    CHARGE:  cpu time    3.0325: real time    3.0369
    MIXING:  cpu time    0.7666: real time    0.7676
    --------------------------------------------
      LOOP:  cpu time   36.3993: real time   36.4524

 eigenvalue-minimisations  :    28
 total energy-change (2. order) :-0.3004451E-02  (-0.1114063E-03)
 number of electron      16.0000000 magnetization 
 augmentation part        1.3945873 magnetization 

 Broyden mixing:
  rms(total) = 0.50913E-02    rms(broyden)= 0.50913E-02
  rms(prec ) = 0.73160E-02
  weight for this iteration     100.00

 eigenvalues of (default mixing * dielectric matrix)
  average eigenvalue GAMMA=   1.9105
  3.9986  2.7658  2.6315  1.0405  1.0405  0.9483  0.9483

 Free energy of the ion-electron system (eV)
  ---------------------------------------------------
  alpha Z        PSCENC =         0.02092140
  Ewald energy   TEWEN  =       486.72385237
  -Hartree energ DENC   =     -1273.18863695
  -exchange      EXHF   =         0.00000000
  -V(xc)+E(xc)   XCENC  =        68.25781851
  PAW double counting   =      1103.73998377    -1107.94767776
  entropy T*S    EENTRO =        -0.00000000
  eigenvalues    EBANDS =      -220.90835836
  atomic energy  EATOM  =       914.71016949
  Solvation  Ediel_sol  =         0.00000000
  ---------------------------------------------------
  free energy    TOTEN  =       -28.59192752 eV

  energy without entropy =      -28.59192752  energy(sigma->0) =      -28.59192752


--------------------------------------------------------------------------------------------------------




--------------------------------------- Iteration      1(  13)  ---------------------------------------


    POTLOK:  cpu time   23.4603: real time   23.4926
    SETDIJ:  cpu time    0.0723: real time    0.0724
     EDDAV:  cpu time   10.8738: real time   10.8914
       DOS:  cpu time    0.0011: real time    0.0011
    CHARGE:  cpu time    3.0658: real time    3.0702
    MIXING:  cpu time    0.6222: real time    0.6232
    --------------------------------------------
      LOOP:  cpu time   38.0954: real time   38.1508

 eigenvalue-minimisations  :    36
 total energy-change (2. order) :-0.9582963E-02  (-0.2939807E-03)
 number of electron      16.0000000 magnetization 
 augmentation part        1.3942983 magnetization 

 Broyden mixing:
  rms(total) = 0.27740E-02    rms(broyden)= 0.27740E-02
  rms(prec ) = 0.35560E-02
  weight for this iteration     100.00

 eigenvalues of (default mixing * dielectric matrix)
  average eigenvalue GAMMA=   1.9962
  5.5116  3.0189  2.4234  1.1091  1.1091  0.9656  0.9656  0.8665

 Free energy of the ion-electron system (eV)
  ---------------------------------------------------
  alpha Z        PSCENC =         0.02092140
  Ewald energy   TEWEN  =       486.72385237
  -Hartree energ DENC   =     -1273.88906296
  -exchange      EXHF   =         0.00000000
  -V(xc)+E(xc)   XCENC  =        68.25380977
  PAW double counting   =      1105.59126409    -1109.80100508
  entropy T*S    EENTRO =        -0.00000000
  eigenvalues    EBANDS =      -220.21145958
  atomic energy  EATOM  =       914.71016949
  Solvation  Ediel_sol  =         0.00000000
  ---------------------------------------------------
  free energy    TOTEN  =       -28.60151049 eV

  energy without entropy =      -28.60151049  energy(sigma->0) =      -28.60151049


--------------------------------------------------------------------------------------------------------




--------------------------------------- Iteration      1(  14)  ---------------------------------------


    POTLOK:  cpu time   23.4820: real time   23.5146
    SETDIJ:  cpu time    0.0562: real time    0.0563
     EDDAV:  cpu time   11.7693: real time   11.7886
       DOS:  cpu time    0.0015: real time    0.0015
    CHARGE:  cpu time    3.1400: real time    3.1446
    MIXING:  cpu time    0.6913: real time    0.6923
    --------------------------------------------
      LOOP:  cpu time   39.1404: real time   39.1979

 eigenvalue-minimisations  :    40
 total energy-change (2. order) :-0.2315424E-02  (-0.2691940E-04)
 number of electron      16.0000000 magnetization 
 augmentation part        1.3941332 magnetization 

 Broyden mixing:
  rms(total) = 0.19121E-02    rms(broyden)= 0.19121E-02
  rms(prec ) = 0.24242E-02
  weight for this iteration     100.00

 eigenvalues of (default mixing * dielectric matrix)
  average eigenvalue GAMMA=   2.2803
  6.9546  3.5053  2.6935  2.4138  1.0457  1.0457  0.9442  0.9442  0.9760

 Free energy of the ion-electron system (eV)
  ---------------------------------------------------
  alpha Z        PSCENC =         0.02092140
  Ewald energy   TEWEN  =       486.72385237
  -Hartree energ DENC   =     -1274.03324273
  -exchange      EXHF   =         0.00000000
  -V(xc)+E(xc)   XCENC  =        68.24987452
  PAW double counting   =      1104.84855289    -1109.05722101
  entropy T*S    EENTRO =        -0.00000000
  eigenvalues    EBANDS =      -220.06673285
  atomic energy  EATOM  =       914.71016949
  Solvation  Ediel_sol  =         0.00000000
  ---------------------------------------------------
  free energy    TOTEN  =       -28.60382591 eV

  energy without entropy =      -28.60382591  energy(sigma->0) =      -28.60382591


--------------------------------------------------------------------------------------------------------




--------------------------------------- Iteration      1(  15)  ---------------------------------------


    POTLOK:  cpu time   23.4357: real time   23.4685
    SETDIJ:  cpu time    0.0500: real time    0.0500
     EDDAV:  cpu time    9.1244: real time    9.1391
       DOS:  cpu time    0.0005: real time    0.0005
    CHARGE:  cpu time    3.2031: real time    3.2075
    MIXING:  cpu time    0.6830: real time    0.6841
    --------------------------------------------
      LOOP:  cpu time   36.4965: real time   36.5495

 eigenvalue-minimisations  :    28
 total energy-change (2. order) :-0.3776793E-02  (-0.5407790E-04)
 number of electron      16.0000000 magnetization 
 augmentation part        1.3939548 magnetization 

 Broyden mixing:
  rms(total) = 0.13628E-02    rms(broyden)= 0.13628E-02
  rms(prec ) = 0.14900E-02
  weight for this iteration     100.00

 eigenvalues of (default mixing * dielectric matrix)
  average eigenvalue GAMMA=   2.2887
  7.1722  3.9833  2.6478  2.3969  1.7612  1.0598  1.0064  1.0064  0.9265  0.9265

 Free energy of the ion-electron system (eV)
  ---------------------------------------------------
  alpha Z        PSCENC =         0.02092140
  Ewald energy   TEWEN  =       486.72385237
  -Hartree energ DENC   =     -1274.11696657
  -exchange      EXHF   =         0.00000000
  -V(xc)+E(xc)   XCENC  =        68.24496466
  PAW double counting   =      1104.68961006    -1108.89491670
  entropy T*S    EENTRO =        -0.00000000
  eigenvalues    EBANDS =      -219.98523742
  atomic energy  EATOM  =       914.71016949
  Solvation  Ediel_sol  =         0.00000000
  ---------------------------------------------------
  free energy    TOTEN  =       -28.60760270 eV

  energy without entropy =      -28.60760270  energy(sigma->0) =      -28.60760270


--------------------------------------------------------------------------------------------------------




--------------------------------------- Iteration      1(  16)  ---------------------------------------


    POTLOK:  cpu time   23.4825: real time   23.5170
    SETDIJ:  cpu time    0.0957: real time    0.0958
     EDDAV:  cpu time   11.8406: real time   11.8622
       DOS:  cpu time    0.0051: real time    0.0051
    CHARGE:  cpu time    3.0119: real time    3.0165
    MIXING:  cpu time    1.0088: real time    1.0101
    --------------------------------------------
      LOOP:  cpu time   39.4446: real time   39.5066

 eigenvalue-minimisations  :    40
 total energy-change (2. order) :-0.7948800E-03  (-0.8575017E-05)
 number of electron      16.0000000 magnetization 
 augmentation part        1.3939884 magnetization 

 Broyden mixing:
  rms(total) = 0.60662E-03    rms(broyden)= 0.60662E-03
  rms(prec ) = 0.70038E-03
  weight for this iteration     100.00

 eigenvalues of (default mixing * dielectric matrix)
  average eigenvalue GAMMA=   2.3252
  7.9800  4.5054  2.7707  2.4630  2.0301  1.0724  1.0724  0.9594  0.9594  0.8820
  0.8820

 Free energy of the ion-electron system (eV)
  ---------------------------------------------------
  alpha Z        PSCENC =         0.02092140
  Ewald energy   TEWEN  =       486.72385237
  -Hartree energ DENC   =     -1274.09493655
  -exchange      EXHF   =         0.00000000
  -V(xc)+E(xc)   XCENC  =        68.24295707
  PAW double counting   =      1104.64185039    -1108.84759747
  entropy T*S    EENTRO =        -0.00000000
  eigenvalues    EBANDS =      -220.00561429
  atomic energy  EATOM  =       914.71016949
  Solvation  Ediel_sol  =         0.00000000
  ---------------------------------------------------
  free energy    TOTEN  =       -28.60839758 eV

  energy without entropy =      -28.60839758  energy(sigma->0) =      -28.60839758


--------------------------------------------------------------------------------------------------------




--------------------------------------- Iteration      1(  17)  ---------------------------------------


    POTLOK:  cpu time   23.4686: real time   23.5023
    SETDIJ:  cpu time    0.0563: real time    0.0564
     EDDAV:  cpu time   10.0369: real time   10.0537
       DOS:  cpu time    0.0062: real time    0.0062
    CHARGE:  cpu time    3.2226: real time    3.2271
    MIXING:  cpu time    0.9735: real time    0.9748
    --------------------------------------------
      LOOP:  cpu time   37.7640: real time   37.8204

 eigenvalue-minimisations  :    32
 total energy-change (2. order) :-0.3988953E-03  (-0.1292601E-05)
 number of electron      16.0000000 magnetization 
 augmentation part        1.3939453 magnetization 

 Broyden mixing:
  rms(total) = 0.23496E-03    rms(broyden)= 0.23496E-03
  rms(prec ) = 0.31252E-03
  weight for this iteration     100.00

 eigenvalues of (default mixing * dielectric matrix)
  average eigenvalue GAMMA=   2.4242
  8.5785  4.9389  3.1517  2.7205  2.4165  1.2662  1.2662  0.9692  0.9847  0.9847
  0.9063  0.9063

 Free energy of the ion-electron system (eV)
  ---------------------------------------------------
  alpha Z        PSCENC =         0.02092140
  Ewald energy   TEWEN  =       486.72385237
  -Hartree energ DENC   =     -1274.10212518
  -exchange      EXHF   =         0.00000000
  -V(xc)+E(xc)   XCENC  =        68.24250670
  PAW double counting   =      1104.60298613    -1108.80917468
  entropy T*S    EENTRO =        -0.00000000
  eigenvalues    EBANDS =      -219.99793272
  atomic energy  EATOM  =       914.71016949
  Solvation  Ediel_sol  =         0.00000000
  ---------------------------------------------------
  free energy    TOTEN  =       -28.60879648 eV

  energy without entropy =      -28.60879648  energy(sigma->0) =      -28.60879648


--------------------------------------------------------------------------------------------------------




--------------------------------------- Iteration      1(  18)  ---------------------------------------


    POTLOK:  cpu time   23.4608: real time   23.4945
    SETDIJ:  cpu time    0.0633: real time    0.0634
     EDDAV:  cpu time    8.2138: real time    8.2299
       DOS:  cpu time    0.0002: real time    0.0001
    CHARGE:  cpu time    3.2521: real time    3.2566
    MIXING:  cpu time    0.7933: real time    0.7946
    --------------------------------------------
      LOOP:  cpu time   35.7835: real time   35.8391

 eigenvalue-minimisations  :    24
 total energy-change (2. order) :-0.3265647E-03  (-0.5253204E-06)
 number of electron      16.0000000 magnetization 
 augmentation part        1.3939494 magnetization 

 Broyden mixing:
  rms(total) = 0.23038E-03    rms(broyden)= 0.23038E-03
  rms(prec ) = 0.25163E-03
  weight for this iteration     100.00

 eigenvalues of (default mixing * dielectric matrix)
  average eigenvalue GAMMA=   2.4719
  8.9280  5.5417  3.5673  2.6765  2.4904  2.0259  1.0937  1.0937  0.9819  0.9819
  0.9646  0.8949  0.8949

 Free energy of the ion-electron system (eV)
  ---------------------------------------------------
  alpha Z        PSCENC =         0.02092140
  Ewald energy   TEWEN  =       486.72385237
  -Hartree energ DENC   =     -1274.10177109
  -exchange      EXHF   =         0.00000000
  -V(xc)+E(xc)   XCENC  =        68.24197454
  PAW double counting   =      1104.61475740    -1108.82140817
  entropy T*S    EENTRO =        -0.00000000
  eigenvalues    EBANDS =      -219.99761898
  atomic energy  EATOM  =       914.71016949
  Solvation  Ediel_sol  =         0.00000000
  ---------------------------------------------------
  free energy    TOTEN  =       -28.60912304 eV

  energy without entropy =      -28.60912304  energy(sigma->0) =      -28.60912304


--------------------------------------------------------------------------------------------------------




--------------------------------------- Iteration      1(  19)  ---------------------------------------


    POTLOK:  cpu time   23.4318: real time   23.4649
    SETDIJ:  cpu time    0.0539: real time    0.0539
     EDDAV:  cpu time   11.8264: real time   11.8454
       DOS:  cpu time    0.0012: real time    0.0012
    CHARGE:  cpu time    3.0679: real time    3.0723
    MIXING:  cpu time    1.0759: real time    1.0774
    --------------------------------------------
      LOOP:  cpu time   39.4571: real time   39.5152

 eigenvalue-minimisations  :    40
 total energy-change (2. order) :-0.1104325E-03  (-0.1498990E-06)
 number of electron      16.0000000 magnetization 
 augmentation part        1.3939709 magnetization 

 Broyden mixing:
  rms(total) = 0.75556E-04    rms(broyden)= 0.75556E-04
  rms(prec ) = 0.92517E-04
  weight for this iteration     100.00

 eigenvalues of (default mixing * dielectric matrix)
  average eigenvalue GAMMA=   2.5278
  9.1850  5.9891  3.9267  2.8647  2.4991  2.4442  1.5629  1.1005  1.1005  0.9805
  0.9805  0.9051  0.9051  0.9452

 Free energy of the ion-electron system (eV)
  ---------------------------------------------------
  alpha Z        PSCENC =         0.02092140
  Ewald energy   TEWEN  =       486.72385237
  -Hartree energ DENC   =     -1274.09912210
  -exchange      EXHF   =         0.00000000
  -V(xc)+E(xc)   XCENC  =        68.24158138
  PAW double counting   =      1104.63441837    -1108.84083561
  entropy T*S    EENTRO =        -0.00000000
  eigenvalues    EBANDS =      -220.00021878
  atomic energy  EATOM  =       914.71016949
  Solvation  Ediel_sol  =         0.00000000
  ---------------------------------------------------
  free energy    TOTEN  =       -28.60923348 eV

  energy without entropy =      -28.60923348  energy(sigma->0) =      -28.60923348


--------------------------------------------------------------------------------------------------------




--------------------------------------- Iteration      1(  20)  ---------------------------------------


    POTLOK:  cpu time   23.3508: real time   23.3842
    SETDIJ:  cpu time    0.0489: real time    0.0489
     EDDAV:  cpu time    8.2228: real time    8.2368
       DOS:  cpu time    0.0027: real time    0.0027
    CHARGE:  cpu time    3.2623: real time    3.2666
    MIXING:  cpu time    0.8944: real time    0.8959
    --------------------------------------------
      LOOP:  cpu time   35.7818: real time   35.8351

 eigenvalue-minimisations  :    24
 total energy-change (2. order) :-0.6323126E-04  (-0.3639527E-07)
 number of electron      16.0000000 magnetization 
 augmentation part        1.3939664 magnetization 

 Broyden mixing:
  rms(total) = 0.61567E-04    rms(broyden)= 0.61567E-04
  rms(prec ) = 0.67433E-04
  weight for this iteration     100.00

 eigenvalues of (default mixing * dielectric matrix)
  average eigenvalue GAMMA=   2.5566
  9.3356  6.3385  4.4336  3.1177  2.6033  2.4697  2.1043  1.0999  1.0999  0.9850
  0.9850  0.9022  0.9022  1.0206  0.9517

 Free energy of the ion-electron system (eV)
  ---------------------------------------------------
  alpha Z        PSCENC =         0.02092140
  Ewald energy   TEWEN  =       486.72385237
  -Hartree energ DENC   =     -1274.10082484
  -exchange      EXHF   =         0.00000000
  -V(xc)+E(xc)   XCENC  =        68.24153275
  PAW double counting   =      1104.63531085    -1108.84158920
  entropy T*S    EENTRO =        -0.00000000
  eigenvalues    EBANDS =      -219.99866953
  atomic energy  EATOM  =       914.71016949
  Solvation  Ediel_sol  =         0.00000000
  ---------------------------------------------------
  free energy    TOTEN  =       -28.60929671 eV

  energy without entropy =      -28.60929671  energy(sigma->0) =      -28.60929671


--------------------------------------------------------------------------------------------------------




--------------------------------------- Iteration      1(  21)  ---------------------------------------


    POTLOK:  cpu time   23.3316: real time   23.3654
    SETDIJ:  cpu time    0.0550: real time    0.0551
     EDDAV:  cpu time    8.2144: real time    8.2281
       DOS:  cpu time    0.0023: real time    0.0023
    CHARGE:  cpu time    3.2228: real time    3.2273
    MIXING:  cpu time    1.0134: real time    1.0150
    --------------------------------------------
      LOOP:  cpu time   35.8395: real time   35.8931

 eigenvalue-minimisations  :    24
 total energy-change (2. order) :-0.2435032E-04  (-0.1738735E-07)
 number of electron      16.0000000 magnetization 
 augmentation part        1.3939616 magnetization 

 Broyden mixing:
  rms(total) = 0.18269E-04    rms(broyden)= 0.18269E-04
  rms(prec ) = 0.22788E-04
  weight for this iteration     100.00

 eigenvalues of (default mixing * dielectric matrix)
  average eigenvalue GAMMA=   2.5802
  9.4358  6.6725  4.7151  3.3383  2.7404  2.4434  1.9940  1.9940  1.1242  1.1242
  0.9814  0.9814  0.9011  0.9011  0.9683  0.9683

 Free energy of the ion-electron system (eV)
  ---------------------------------------------------
  alpha Z        PSCENC =         0.02092140
  Ewald energy   TEWEN  =       486.72385237
  -Hartree energ DENC   =     -1274.10297472
  -exchange      EXHF   =         0.00000000
  -V(xc)+E(xc)   XCENC  =        68.24162192
  PAW double counting   =      1104.63345590    -1108.83975297
  entropy T*S    EENTRO =        -0.00000000
  eigenvalues    EBANDS =      -219.99661446
  atomic energy  EATOM  =       914.71016949
  Solvation  Ediel_sol  =         0.00000000
  ---------------------------------------------------
  free energy    TOTEN  =       -28.60932106 eV

  energy without entropy =      -28.60932106  energy(sigma->0) =      -28.60932106


--------------------------------------------------------------------------------------------------------




--------------------------------------- Iteration      1(  22)  ---------------------------------------


    POTLOK:  cpu time   23.3419: real time   23.3758
    SETDIJ:  cpu time    0.0527: real time    0.0527
     EDDAV:  cpu time    8.2025: real time    8.2164
       DOS:  cpu time    0.0013: real time    0.0013
    CHARGE:  cpu time    3.1644: real time    3.1690
    MIXING:  cpu time    0.9711: real time    0.9727
    --------------------------------------------
      LOOP:  cpu time   35.7339: real time   35.7879

 eigenvalue-minimisations  :    24
 total energy-change (2. order) :-0.1162146E-04  (-0.3120986E-08)
 number of electron      16.0000000 magnetization 
 augmentation part        1.3939603 magnetization 

 Broyden mixing:
  rms(total) = 0.10476E-04    rms(broyden)= 0.10476E-04
  rms(prec ) = 0.12795E-04
  weight for this iteration     100.00

 eigenvalues of (default mixing * dielectric matrix)
  average eigenvalue GAMMA=   2.5924
  9.5588  6.8942  5.0695  3.6245  2.7276  2.6860  2.4083  2.0443  1.1364  1.1017
  1.1017  0.9832  0.9832  0.9026  0.9026  0.9736  0.9736

 Free energy of the ion-electron system (eV)
  ---------------------------------------------------
  alpha Z        PSCENC =         0.02092140
  Ewald energy   TEWEN  =       486.72385237
  -Hartree energ DENC   =     -1274.10312966
  -exchange      EXHF   =         0.00000000
  -V(xc)+E(xc)   XCENC  =        68.24162974
  PAW double counting   =      1104.63161375    -1108.83794057
  entropy T*S    EENTRO =        -0.00000000
  eigenvalues    EBANDS =      -219.99644920
  atomic energy  EATOM  =       914.71016949
  Solvation  Ediel_sol  =         0.00000000
  ---------------------------------------------------
  free energy    TOTEN  =       -28.60933268 eV

  energy without entropy =      -28.60933268  energy(sigma->0) =      -28.60933268


--------------------------------------------------------------------------------------------------------




--------------------------------------- Iteration      1(  23)  ---------------------------------------


    POTLOK:  cpu time   23.3969: real time   23.4303
    SETDIJ:  cpu time    0.0603: real time    0.0604
     EDDAV:  cpu time    6.4718: real time    6.4821
       DOS:  cpu time    0.0029: real time    0.0029
    CHARGE:  cpu time    3.1974: real time    3.2018
    MIXING:  cpu time    1.0107: real time    1.0124
    --------------------------------------------
      LOOP:  cpu time   34.1400: real time   34.1899

 eigenvalue-minimisations  :    16
 total energy-change (2. order) :-0.4712140E-05  (-0.2225178E-08)
 number of electron      16.0000000 magnetization 
 augmentation part        1.3939610 magnetization 

 Broyden mixing:
  rms(total) = 0.83099E-05    rms(broyden)= 0.83099E-05
  rms(prec ) = 0.93057E-05
  weight for this iteration     100.00

 eigenvalues of (default mixing * dielectric matrix)
  average eigenvalue GAMMA=   2.6108
  9.5805  7.2573  5.2636  3.9892  2.7779  2.7779  2.4003  1.9971  1.9971  1.1272
  1.1272  0.9818  0.9818  0.9016  0.9016  1.0232  0.9541  0.9541

 Free energy of the ion-electron system (eV)
  ---------------------------------------------------
  alpha Z        PSCENC =         0.02092140
  Ewald energy   TEWEN  =       486.72385237
  -Hartree energ DENC   =     -1274.10290619
  -exchange      EXHF   =         0.00000000
  -V(xc)+E(xc)   XCENC  =        68.24161359
  PAW double counting   =      1104.63076186    -1108.83710642
  entropy T*S    EENTRO =        -0.00000000
  eigenvalues    EBANDS =      -219.99664351
  atomic energy  EATOM  =       914.71016949
  Solvation  Ediel_sol  =         0.00000000
  ---------------------------------------------------
  free energy    TOTEN  =       -28.60933739 eV

  energy without entropy =      -28.60933739  energy(sigma->0) =      -28.60933739


--------------------------------------------------------------------------------------------------------




--------------------------------------- Iteration      1(  24)  ---------------------------------------


    POTLOK:  cpu time   23.3711: real time   23.4043
    SETDIJ:  cpu time    0.0504: real time    0.0504
     EDDAV:  cpu time    8.2484: real time    8.2622
       DOS:  cpu time    0.0024: real time    0.0024
    CHARGE:  cpu time    3.1287: real time    3.1333
    MIXING:  cpu time    1.0653: real time    1.0671
    --------------------------------------------
      LOOP:  cpu time   35.8662: real time   35.9197

 eigenvalue-minimisations  :    24
 total energy-change (2. order) :-0.2255967E-05  (-0.1308996E-08)
 number of electron      16.0000000 magnetization 
 augmentation part        1.3939620 magnetization 

 Broyden mixing:
  rms(total) = 0.33313E-05    rms(broyden)= 0.33313E-05
  rms(prec ) = 0.39934E-05
  weight for this iteration     100.00

 eigenvalues of (default mixing * dielectric matrix)
  average eigenvalue GAMMA=   2.6358
  9.6568  7.5376  5.6169  4.3582  3.2323  2.7355  2.5242  2.2482  2.0818  1.1631
  1.1146  1.1146  0.9818  0.9818  0.9020  0.9020  1.0465  0.9415  0.9415

 Free energy of the ion-electron system (eV)
  ---------------------------------------------------
  alpha Z        PSCENC =         0.02092140
  Ewald energy   TEWEN  =       486.72385237
  -Hartree energ DENC   =     -1274.10256563
  -exchange      EXHF   =         0.00000000
  -V(xc)+E(xc)   XCENC  =        68.24159357
  PAW double counting   =      1104.63157556    -1108.83791168
  entropy T*S    EENTRO =        -0.00000000
  eigenvalues    EBANDS =      -219.99697473
  atomic energy  EATOM  =       914.71016949
  Solvation  Ediel_sol  =         0.00000000
  ---------------------------------------------------
  free energy    TOTEN  =       -28.60933965 eV

  energy without entropy =      -28.60933965  energy(sigma->0) =      -28.60933965


--------------------------------------------------------------------------------------------------------




--------------------------------------- Iteration      1(  25)  ---------------------------------------


    POTLOK:  cpu time   23.3628: real time   23.3964
    SETDIJ:  cpu time    0.0474: real time    0.0475
     EDDAV:  cpu time    6.4335: real time    6.4441
       DOS:  cpu time    0.0026: real time    0.0026
    CHARGE:  cpu time    3.0987: real time    3.1033
    MIXING:  cpu time    1.1556: real time    1.1576
    --------------------------------------------
      LOOP:  cpu time   34.1007: real time   34.1515

 eigenvalue-minimisations  :    16
 total energy-change (2. order) :-0.1046899E-05  (-0.9167831E-09)
 number of electron      16.0000000 magnetization 
 augmentation part        1.3939622 magnetization 

 Broyden mixing:
  rms(total) = 0.29592E-05    rms(broyden)= 0.29592E-05
  rms(prec ) = 0.32072E-05
  weight for this iteration     100.00

 eigenvalues of (default mixing * dielectric matrix)
  average eigenvalue GAMMA=   2.6296
  9.6601  7.6773  5.7607  4.4548  3.2911  2.6195  2.6195  2.2019  2.2019  2.1635
  1.1139  1.1139  0.9013  0.9013  0.9818  0.9818  1.0858  0.9608  0.9608  0.9408

 Free energy of the ion-electron system (eV)
  ---------------------------------------------------
  alpha Z        PSCENC =         0.02092140
  Ewald energy   TEWEN  =       486.72385237
  -Hartree energ DENC   =     -1274.10255978
  -exchange      EXHF   =         0.00000000
  -V(xc)+E(xc)   XCENC  =        68.24158948
  PAW double counting   =      1104.63234348    -1108.83867638
  entropy T*S    EENTRO =        -0.00000000
  eigenvalues    EBANDS =      -219.99698075
  atomic energy  EATOM  =       914.71016949
  Solvation  Ediel_sol  =         0.00000000
  ---------------------------------------------------
  free energy    TOTEN  =       -28.60934070 eV

  energy without entropy =      -28.60934070  energy(sigma->0) =      -28.60934070


--------------------------------------------------------------------------------------------------------




--------------------------------------- Iteration      1(  26)  ---------------------------------------


    POTLOK:  cpu time   23.2818: real time   23.3156
    SETDIJ:  cpu time    0.0487: real time    0.0487
     EDDAV:  cpu time    8.2184: real time    8.2321
       DOS:  cpu time    0.0032: real time    0.0032
    CHARGE:  cpu time    3.2318: real time    3.2364
    MIXING:  cpu time    1.2009: real time    1.2029
    --------------------------------------------
      LOOP:  cpu time   35.9848: real time   36.0389

 eigenvalue-minimisations  :    24
 total energy-change (2. order) :-0.4668595E-06  (-0.4983587E-09)
 number of electron      16.0000000 magnetization 
 augmentation part        1.3939618 magnetization 

 Broyden mixing:
  rms(total) = 0.11397E-05    rms(broyden)= 0.11397E-05
  rms(prec ) = 0.13149E-05
  weight for this iteration     100.00

 eigenvalues of (default mixing * dielectric matrix)
  average eigenvalue GAMMA=   2.6481
  9.6926  7.9365  6.0938  4.7662  3.7205  2.9189  2.5758  2.5353  2.1398  2.1398
  1.2362  1.0935  1.0935  0.9817  0.9817  0.9017  0.9017  1.0031  1.0031  0.9223
  0.9731

 Free energy of the ion-electron system (eV)
  ---------------------------------------------------
  alpha Z        PSCENC =         0.02092140
  Ewald energy   TEWEN  =       486.72385237
  -Hartree energ DENC   =     -1274.10271266
  -exchange      EXHF   =         0.00000000
  -V(xc)+E(xc)   XCENC  =        68.24159782
  PAW double counting   =      1104.63218733    -1108.83852124
  entropy T*S    EENTRO =        -0.00000000
  eigenvalues    EBANDS =      -219.99683569
  atomic energy  EATOM  =       914.71016949
  Solvation  Ediel_sol  =         0.00000000
  ---------------------------------------------------
  free energy    TOTEN  =       -28.60934116 eV

  energy without entropy =      -28.60934116  energy(sigma->0) =      -28.60934116


--------------------------------------------------------------------------------------------------------




--------------------------------------- Iteration      1(  27)  ---------------------------------------


    POTLOK:  cpu time   23.2238: real time   23.2573
    SETDIJ:  cpu time    0.0514: real time    0.0514
     EDDAV:  cpu time    6.4638: real time    6.4748
       DOS:  cpu time    0.0014: real time    0.0014
    CHARGE:  cpu time    3.3104: real time    3.3146
    MIXING:  cpu time    1.2674: real time    1.2695
    --------------------------------------------
      LOOP:  cpu time   34.3181: real time   34.3690

 eigenvalue-minimisations  :    16
 total energy-change (2. order) :-0.2129589E-06  (-0.3560849E-09)
 number of electron      16.0000000 magnetization 
 augmentation part        1.3939616 magnetization 

 Broyden mixing:
  rms(total) = 0.11353E-05    rms(broyden)= 0.11353E-05
  rms(prec ) = 0.12063E-05
  weight for this iteration     100.00

 eigenvalues of (default mixing * dielectric matrix)
  average eigenvalue GAMMA=   2.6125
  9.7081  8.0030  6.1969  4.8415  3.7770  2.8002  2.7342  2.5340  1.9754  1.9754
  1.9134  1.1796  1.1171  1.1171  0.9824  0.9824  0.9015  0.9015  0.9922  0.9922
  0.9245  0.9245

 Free energy of the ion-electron system (eV)
  ---------------------------------------------------
  alpha Z        PSCENC =         0.02092140
  Ewald energy   TEWEN  =       486.72385237
  -Hartree energ DENC   =     -1274.10269510
  -exchange      EXHF   =         0.00000000
  -V(xc)+E(xc)   XCENC  =        68.24159671
  PAW double counting   =      1104.63195818    -1108.83829139
  entropy T*S    EENTRO =        -0.00000000
  eigenvalues    EBANDS =      -219.99685304
  atomic energy  EATOM  =       914.71016949
  Solvation  Ediel_sol  =         0.00000000
  ---------------------------------------------------
  free energy    TOTEN  =       -28.60934138 eV

  energy without entropy =      -28.60934138  energy(sigma->0) =      -28.60934138


--------------------------------------------------------------------------------------------------------




--------------------------------------- Iteration      1(  28)  ---------------------------------------


    POTLOK:  cpu time   23.2503: real time   23.2844
    SETDIJ:  cpu time    0.0482: real time    0.0482
     EDDAV:  cpu time    8.2604: real time    8.2757
       DOS:  cpu time    0.0012: real time    0.0012
    --------------------------------------------
      LOOP:  cpu time   31.5600: real time   31.6095

 eigenvalue-minimisations  :    24
 total energy-change (2. order) :-0.7313542E-07  (-0.2688338E-09)
 number of electron      16.0000000 magnetization 
 augmentation part        1.3939616 magnetization 

 Free energy of the ion-electron system (eV)
  ---------------------------------------------------
  alpha Z        PSCENC =         0.02092140
  Ewald energy   TEWEN  =       486.72385237
  -Hartree energ DENC   =     -1274.10263425
  -exchange      EXHF   =         0.00000000
  -V(xc)+E(xc)   XCENC  =        68.24159338
  PAW double counting   =      1104.63180992    -1108.83814212
  entropy T*S    EENTRO =        -0.00000000
  eigenvalues    EBANDS =      -219.99691165
  atomic energy  EATOM  =       914.71016949
  Solvation  Ediel_sol  =         0.00000000
  ---------------------------------------------------
  free energy    TOTEN  =       -28.60934145 eV

  energy without entropy =      -28.60934145  energy(sigma->0) =      -28.60934145


--------------------------------------------------------------------------------------------------------




 average (electrostatic) potential at core
  the test charge radii are     0.5201  0.7215
  (the norm of the test charge is              1.0000)
       1 -45.1731       2 -45.1726       3 -44.1391       4 -44.3423       5 -81.0039
       6 -80.0785
 
 
 
 E-fermi :  -6.6768     XC(G=0):  -0.0322     alpha+bet : -0.0061


 k-point     1 :       0.0000    0.0000    0.0000
  band No.  band energies     occupation 
      1     -25.8232      2.00000
      2     -24.9096      2.00000
      3     -13.5634      2.00000
      4     -12.6599      2.00000
      5      -9.8185      2.00000
      6      -8.8019      2.00000
      7      -7.6530      2.00000
      8      -6.7689      2.00000
      9      -1.2640      0.00000
     10      -0.3392      0.00000
     11      -0.0034      0.00000
     12       0.0766      0.00000


--------------------------------------------------------------------------------------------------------


 soft charge-density along one line, spin component            1
         0         1         2         3         4         5         6         7         8         9
 total charge-density along one line
 
 pseudopotential strength for first ion, spin component:            1
 -2.386  -4.121  -0.010  -0.014   0.000
 -4.121  -7.033  -0.019  -0.027   0.001
 -0.010  -0.019  -0.311   0.015  -0.000
 -0.014  -0.027   0.015  -0.301  -0.000
  0.000   0.001  -0.000  -0.000  -0.323
 total augmentation occupancy for first ion, spin component:            1
  3.778  -0.789   0.451   0.603  -0.014
 -0.789   0.219  -0.094  -0.118   0.003
  0.451  -0.094   0.074   0.059  -0.001
  0.603  -0.118   0.059   0.105  -0.001
 -0.014   0.003  -0.001  -0.001   0.044


------------------------ aborting loop because EDIFF is reached ----------------------------------------



 DIPCOR: dipole corrections for dipol
 direction  1 min pos   504, direction  2 min pos   526, direction  3 min pos   555,
 dipolmoment          -0.288058      0.688009      0.008459 electrons x Angstroem
 Tr[quadrupol]         7.575462

 energy correction for charged system         0.000000 eV
 dipol+quadrupol energy correction            0.000391 eV
 added-field ion interaction          0.000000 eV  (added to PSCEN)

 
  *************** adding dipol energy to TOTEN NOW **************** 
    CHARGE:  cpu time    2.9963: real time    3.0007
    FORLOC:  cpu time    1.0064: real time    1.0076
    FORNL :  cpu time    0.2761: real time    0.2765
    STRESS:  cpu time    4.3036: real time    4.3101
    FORCOR:  cpu time   22.5260: real time   22.5565
    FORHAR:  cpu time    6.6133: real time    6.6229
    MIXING:  cpu time    1.3007: real time    1.3028
    OFIELD:  cpu time    0.0000: real time    0.0000

  FORCE on cell =-STRESS in cart. coord.  units (eV):
  Direction    XX          YY          ZZ          XY          YZ          ZX
  --------------------------------------------------------------------------------------
  Alpha Z     0.02092     0.02092     0.02092
  Ewald      41.04265   372.54294    73.13772    35.27558    -0.57291    -4.32893
  Hartree   341.18921   586.69095   346.22251    11.60827    -0.01120    -0.76418
  E(xc)     -72.68200   -72.31552   -72.56668     0.09388    -0.00233    -0.01759
  Local    -573.65214 -1126.87908  -601.57518   -39.44240     0.39686     3.80393
  n-local   -61.89738   -62.05996   -61.39602     0.42005    -0.01261    -0.01256
  augment    14.57953    12.98899    13.99437    -0.47870     0.01183     0.08587
  Kinetic   311.84382   289.59070   302.88536    -7.31525     0.18657     1.21039
  Fock        0.00000     0.00000     0.00000     0.00000     0.00000     0.00000
  -------------------------------------------------------------------------------------
  Total       0.44462     0.57994     0.72300     0.16143    -0.00379    -0.02306
  in kB       0.01661     0.02167     0.02702     0.00603    -0.00014    -0.00086
  external pressure =        0.02 kB  Pullay stress =        0.00 kB


 VOLUME and BASIS-vectors are now :
 -----------------------------------------------------------------------------
  energy-cutoff  :     1600.00
  volume of cell :    42875.00
      direct lattice vectors                 reciprocal lattice vectors
    35.000000000  0.000000000  0.000000000     0.028571429  0.000000000  0.000000000
     0.000000000 35.000000000  0.000000000     0.000000000  0.028571429  0.000000000
     0.000000000  0.000000000 35.000000000     0.000000000  0.000000000  0.028571429

  length of vectors
    35.000000000 35.000000000 35.000000000     0.028571429  0.028571429  0.028571429


 FORCES acting on ions
    electron-ion (+dipol)            ewald-force                    non-local-force                 convergence-correction
 -----------------------------------------------------------------------------------------------
   -.149E+01 0.584E+02 0.741E+02   0.165E+01 -.637E+02 -.816E+02   -.158E+00 0.507E+01 0.702E+01   0.741E-07 -.554E-06 -.710E-06
   0.152E+01 0.592E+02 -.735E+02   -.166E+01 -.646E+02 0.809E+02   0.128E+00 0.516E+01 -.696E+01   0.393E-07 -.502E-06 0.797E-06
   0.551E+01 0.735E+02 0.324E-01   -.608E+01 -.829E+02 -.359E-01   0.487E+00 0.870E+01 0.525E-02   0.477E-07 -.113E-05 -.201E-08
   -.880E+02 -.299E+02 0.176E+01   0.969E+02 0.322E+02 -.193E+01   -.834E+01 -.216E+01 0.167E+00   0.119E-05 0.273E-06 -.308E-07
   0.213E+01 -.698E+01 -.364E+00   -.250E+01 0.560E+02 0.650E+00   0.386E+00 -.485E+02 -.284E+00   0.126E-05 0.866E-06 0.108E-05
   0.496E+02 -.918E+02 -.115E+01   -.883E+02 0.123E+03 0.200E+01   0.383E+02 -.307E+02 -.844E+00   0.368E-06 0.879E-06 -.569E-07
 -----------------------------------------------------------------------------------------------
   -.308E+02 0.624E+02 0.897E+00   -.142E-13 0.000E+00 -.933E-14   0.308E+02 -.624E+02 -.897E+00   0.297E-05 -.166E-06 0.108E-05
 
 
 POSITION                                       TOTAL-FORCE (eV/Angst)
 -----------------------------------------------------------------------------------
      0.01761      0.64046     34.23865         0.002797     -0.238651     -0.479226
     34.98662      0.63163      0.75455        -0.015989     -0.242588      0.476967
      0.02409      3.82692      0.00129        -0.088412     -0.721100      0.001722
      0.98480      4.99983     34.98366         0.474533      0.161587     -0.008796
      0.00000      1.22721      0.00000         0.022053      0.601478      0.001501
      0.04724      4.78801      0.00253        -0.394981      0.439274      0.007831
 -----------------------------------------------------------------------------------
    total drift:                                0.000108      0.000019      0.000049


--------------------------------------------------------------------------------------------------------



  FREE ENERGIE OF THE ION-ELECTRON SYSTEM (eV)
  ---------------------------------------------------
  free  energy   TOTEN  =       -28.60895004 eV

  energy  without entropy=      -28.60895004  energy(sigma->0) =      -28.60895004
 


--------------------------------------------------------------------------------------------------------


    POTLOK:  cpu time   23.4065: real time   23.4395


--------------------------------------------------------------------------------------------------------


 writing wavefunctions
     LOOP+:  cpu time 1695.2288: real time 1704.9827
    4ORBIT:  cpu time    0.0000: real time    0.0000

 total amount of memory used by VASP MPI-rank0  3455162. kBytes
=======================================================================

   base      :      30000. kBytes
   nonl-proj :      87230. kBytes
   fftplans  :    1215227. kBytes
   grid      :    2104012. kBytes
   one-center:          1. kBytes
   wavefun   :      18692. kBytes
 
  
  
 General timing and accounting informations for this job:
 ========================================================
  
                  Total CPU time used (sec):     2474.146
                            User time (sec):     2391.173
                          System time (sec):       82.973
                         Elapsed time (sec):     2506.791
  
                   Maximum memory used (kb):     4261376.
                   Average memory used (kb):           0.
  
                          Minor page faults:     49802077
                          Major page faults:         3920
                 Voluntary context switches:        75356
