 vasp.6.1.2 22Jul20 (build Jan  6 2021 09:55:43) gamma-only                      
 executed on             LinuxPGI date 2021.02.28  21:43:37
 running on   32 total cores
 distrk:  each k-point on   32 cores,    1 groups
 distr:  one band on NCORE=   8 cores,    4 groups


--------------------------------------------------------------------------------------------------------


 INCAR:
 POTCAR:    PAW_PBE H 15Jun2001                   
 POTCAR:    PAW_PBE O 08Apr2002                   
 POTCAR:    PAW_PBE H 15Jun2001                   
   VRHFIN =H: ultrasoft test                                                                        
   LEXCH  = PE                                                                                      
   EATOM  =    12.4884 eV,    0.9179 Ry                                                             
                                                                                                    
   TITEL  = PAW_PBE H 15Jun2001                                                                     
   LULTRA =        F    use ultrasoft PP ?                                                          
   IUNSCR =        0    unscreen: 0-lin 1-nonlin 2-no                                               
   RPACOR =    0.000    partial core radius                                                         
   POMASS =    1.000; ZVAL   =    1.000    mass and valenz                                          
   RCORE  =    1.100    outmost cutoff radius                                                       
   RWIGS  =    0.700; RWIGS  =    0.370    wigner-seitz radius (au A)                               
   ENMAX  =  250.000; ENMIN  =  200.000 eV                                                          
   RCLOC  =    0.701    cutoff for local pot                                                        
   LCOR   =        T    correct aug charges                                                         
   LPAW   =        T    paw PP                                                                      
   EAUG   =  400.000                                                                                
   RMAX   =    1.123    core radius for proj-oper                                                   
   RAUG   =    1.200    factor for augmentation sphere                                              
   RDEP   =    1.112    radius for radial grids                                                     
   RDEPT  =    0.926    core radius for aug-charge                                                  
                                                                                                    
   Atomic configuration                                                                             
    2 entries                                                                                       
     n  l   j            E        occ.                                                              
     1  0  0.50        -6.4927   1.0000                                                             
     2  1  0.50        -3.4015   0.0000                                                             
   Description                                                                                      
     l       E           TYP  RCUT    TYP  RCUT                                                     
     0     -6.4927494     23  1.100                                                                 
     0      6.8029130     23  1.100                                                                 
     1     -4.0817478     23  1.100                                                                 
  local pseudopotential read in
  atomic valenz-charges read in
  non local Contribution for L=            0  read in
    real space projection operators read in
  non local Contribution for L=            0  read in
    real space projection operators read in
  non local Contribution for L=            1  read in
    real space projection operators read in
    PAW grid and wavefunctions read in
 
   number of l-projection  operators is LMAX  =            3
   number of lm-projection operators is LMMAX =            5
 
 POTCAR:    PAW_PBE O 08Apr2002                   
   VRHFIN =O: s2p4                                                                                  
   LEXCH  = PE                                                                                      
   EATOM  =   432.3788 eV,   31.7789 Ry                                                             
                                                                                                    
   TITEL  = PAW_PBE O 08Apr2002                                                                     
   LULTRA =        F    use ultrasoft PP ?                                                          
   IUNSCR =        1    unscreen: 0-lin 1-nonlin 2-no                                               
   RPACOR =    1.200    partial core radius                                                         
   POMASS =   16.000; ZVAL   =    6.000    mass and valenz                                          
   RCORE  =    1.520    outmost cutoff radius                                                       
   RWIGS  =    1.550; RWIGS  =    0.820    wigner-seitz radius (au A)                               
   ENMAX  =  400.000; ENMIN  =  300.000 eV                                                          
   ICORE  =        2    local potential                                                             
   LCOR   =        T    correct aug charges                                                         
   LPAW   =        T    paw PP                                                                      
   EAUG   =  605.392                                                                                
   DEXC   =    0.000                                                                                
   RMAX   =    1.553    core radius for proj-oper                                                   
   RAUG   =    1.300    factor for augmentation sphere                                              
   RDEP   =    1.550    radius for radial grids                                                     
   RDEPT  =    1.329    core radius for aug-charge                                                  
                                                                                                    
   Atomic configuration                                                                             
    4 entries                                                                                       
     n  l   j            E        occ.                                                              
     1  0  0.50      -514.6923   2.0000                                                             
     2  0  0.50       -23.9615   2.0000                                                             
     2  1  0.50        -9.0305   4.0000                                                             
     3  2  1.50        -9.5241   0.0000                                                             
   Description                                                                                      
     l       E           TYP  RCUT    TYP  RCUT                                                     
     0    -23.9615318     23  1.200                                                                 
     0     -9.5240782     23  1.200                                                                 
     1     -9.0304911     23  1.520                                                                 
     1      8.1634956     23  1.520                                                                 
     2     -9.5240782      7  1.500                                                                 
  local pseudopotential read in
  partial core-charges read in
  partial kinetic energy density read in
  kinetic energy density of atom read in
  atomic valenz-charges read in
  non local Contribution for L=            0  read in
    real space projection operators read in
  non local Contribution for L=            0  read in
    real space projection operators read in
  non local Contribution for L=            1  read in
    real space projection operators read in
  non local Contribution for L=            1  read in
    real space projection operators read in
    PAW grid and wavefunctions read in
 
   number of l-projection  operators is LMAX  =            4
   number of lm-projection operators is LMMAX =            8
 
  PAW_PBE H 15Jun2001                   :
 energy of atom  1       EATOM=  -12.4884
 kinetic energy error for atom=    0.0000 (will be added to EATOM!!)
  PAW_PBE O 08Apr2002                   :
 energy of atom  2       EATOM= -432.3788
 kinetic energy error for atom=    0.0005 (will be added to EATOM!!)
 
 
 POSCAR:  H  O
  positions in cartesian coordinates
  No initial velocities read in
 exchange correlation table for  LEXCH =        8
   RHO(1)=    0.500       N(1)  =     2000
   RHO(2)=  100.500       N(2)  =     4000
 


--------------------------------------------------------------------------------------------------------


 ion  position               nearest neighbor table
   1  0.001  0.018  0.978-   5 0.96
   2  1.000  0.018  0.022-   5 0.96
   3  0.001  0.149  0.000-   6 0.96
   4  0.028  0.183  1.000-   6 0.96
   5  0.000  0.035  0.000-   1 0.96   2 0.96
   6  0.001  0.177  0.000-   3 0.96   4 0.96
 
  LATTYP: Found a simple cubic cell.
 ALAT       =    35.0000000000
  
  Lattice vectors:
  
 A1 = (  35.0000000000,   0.0000000000,   0.0000000000)
 A2 = (   0.0000000000,  35.0000000000,   0.0000000000)
 A3 = (   0.0000000000,   0.0000000000,  35.0000000000)


Analysis of symmetry for initial positions (statically):
=====================================================================
 Subroutine PRICEL returns:
 Original cell was already a primitive cell.
 

 Routine SETGRP: Setting up the symmetry group for a 
 simple cubic supercell.


 Subroutine GETGRP returns: Found  1 space group operations
 (whereof  1 operations were pure point group operations)
 out of a pool of 48 trial point group operations.


The static configuration has the point symmetry C_1 .


Analysis of symmetry for dynamics (positions and initial velocities):
=====================================================================
 Subroutine PRICEL returns:
 Original cell was already a primitive cell.
 

 Routine SETGRP: Setting up the symmetry group for a 
 simple cubic supercell.


 Subroutine GETGRP returns: Found  1 space group operations
 (whereof  1 operations were pure point group operations)
 out of a pool of 48 trial point group operations.


The dynamic configuration has the point symmetry C_1 .


 Subroutine INISYM returns: Found  1 space group operations
 (whereof  1 operations are pure point group operations),
 and found     1 'primitive' translations


----------------------------------------------------------------------------------------

                                     Primitive cell                                     

  volume of cell :   42875.0000

  direct lattice vectors                    reciprocal lattice vectors
    35.000000000  0.000000000  0.000000000     0.028571429  0.000000000  0.000000000
     0.000000000 35.000000000  0.000000000     0.000000000  0.028571429  0.000000000
     0.000000000  0.000000000 35.000000000     0.000000000  0.000000000  0.028571429

  length of vectors
    35.000000000 35.000000000 35.000000000     0.028571429  0.028571429  0.028571429

  position of ions in fractional coordinates (direct lattice)
     0.000503079  0.018298976  0.978247097
     0.999617776  0.018046666  0.021558586
     0.000688177  0.149340430  0.000036905
     0.028137029  0.182852209  0.999533239
     0.000000000  0.035063029  0.000000000
     0.001349770  0.176800153  0.000072384

  ion indices of the primitive-cell ions
   primitive index   ion index
                 1           1
                 2           2
                 3           3
                 4           4
                 5           5
                 6           6

----------------------------------------------------------------------------------------

 
 
 KPOINTS: automatic mesh                          

Automatic generation of k-mesh.
Space group operators:
 irot       det(A)        alpha          n_x          n_y          n_z        tau_x        tau_y        tau_z
    1     1.000000     0.000000     1.000000     0.000000     0.000000     0.000000     0.000000     0.000000
 
 Subroutine IBZKPT returns following result:
 ===========================================
 
 Found      1 irreducible k-points:
 
 Following reciprocal coordinates:
            Coordinates               Weight
  0.000000  0.000000  0.000000      1.000000
 
 Following cartesian coordinates:
            Coordinates               Weight
  0.000000  0.000000  0.000000      1.000000
 


--------------------------------------------------------------------------------------------------------




 Dimension of arrays:
   k-points           NKPTS =      1   k-points in BZ     NKDIM =      1   number of bands    NBANDS=     12
   number of dos      NEDOS =    301   number of ions     NIONS =      6
   non local maximal  LDIM  =      4   non local SUM 2l+1 LMDIM =      8
   total plane-waves  NPLWV = ******
   max r-space proj   IRMAX =      1   max aug-charges    IRDMAX=  33660
   dimension x,y,z NGX =   480 NGY =  480 NGZ =  480
   dimension x,y,z NGXF=   960 NGYF=  960 NGZF=  960
   support grid    NGXF=   960 NGYF=  960 NGZF=  960
   ions per type =               4   2
   NGX,Y,Z   is equivalent  to a cutoff of  22.80, 22.80, 22.80 a.u.
   NGXF,Y,Z  is equivalent  to a cutoff of  45.60, 45.60, 45.60 a.u.

 SYSTEM =  C                                       
 POSCAR =   H  O                                   

 Startparameter for this run:
   NWRITE =      2    write-flag & timer
   PREC   = acc       normal or accurate (medium, high low for compatibility)
   ISTART =      0    job   : 0-new  1-cont  2-samecut
   ICHARG =      2    charge: 1-file 2-atom 10-const
   ISPIN  =      1    spin polarized calculation?
   LNONCOLLINEAR =      F non collinear calculations
   LSORBIT =      F    spin-orbit coupling
   INIWAV =      1    electr: 0-lowe 1-rand  2-diag
   LASPH  =      T    aspherical Exc in radial PAW
   METAGGA=      F    non-selfconsistent MetaGGA calc.

 Electronic Relaxation 1
   ENCUT  = 1600.0 eV 117.60 Ry   10.84 a.u. 114.15114.15114.15*2*pi/ulx,y,z
   ENINI  = 1600.0     initial cutoff
   ENAUG  =  605.4 eV  augmentation charge cutoff
   NELM   =     60;   NELMIN=  2; NELMDL= -5     # of ELM steps 
   EDIFF  = 0.1E-06   stopping-criterion for ELM
   LREAL  =      F    real-space projection
   NLSPLINE    = F    spline interpolate recip. space projectors
   LCOMPAT=      F    compatible to vasp.4.4
   GGA_COMPAT  = T    GGA compatible to vasp.4.4-vasp.4.6
   LMAXPAW     = -100 max onsite density
   LMAXMIX     =    2 max onsite mixed and CHGCAR
   VOSKOWN=      0    Vosko Wilk Nusair interpolation
   ROPT   =    0.00000   0.00000
 Ionic relaxation
   EDIFFG = 0.1E-05   stopping-criterion for IOM
   NSW    =      0    number of steps for IOM
   NBLOCK =      1;   KBLOCK =      1    inner block; outer block 
   IBRION =     -1    ionic relax: 0-MD 1-quasi-New 2-CG
   NFREE  =      0    steps in history (QN), initial steepest desc. (CG)
   ISIF   =      2    stress and relaxation
   IWAVPR =     10    prediction:  0-non 1-charg 2-wave 3-comb
   ISYM   =      2    0-nonsym 1-usesym 2-fastsym
   LCORR  =      T    Harris-Foulkes like correction to forces

   POTIM  = 0.5000    time-step for ionic-motion
   TEIN   =    0.0    initial temperature
   TEBEG  =    0.0;   TEEND  =   0.0 temperature during run
   SMASS  =  -3.00    Nose mass-parameter (am)
   estimated Nose-frequenzy (Omega)   =  0.10E-29 period in steps = 0.13E+47 mass=  -0.280E-25a.u.
   SCALEE = 1.0000    scale energy and forces
   NPACO  =    256;   APACO  = 16.0  distance and # of slots for P.C.
   PSTRESS=    0.0 pullay stress

  Mass of Ions in am
   POMASS =   1.00 16.00
  Ionic Valenz
   ZVAL   =   1.00  6.00
  Atomic Wigner-Seitz radii
   RWIGS  =  -1.00 -1.00
  virtual crystal weights 
   VCA    =   1.00  1.00
   NELECT =      16.0000    total number of electrons
   NUPDOWN=      -1.0000    fix difference up-down

 DOS related values:
   EMIN   =  10.00;   EMAX   =-10.00  energy-range for DOS
   EFERMI =   0.00
   ISMEAR =     0;   SIGMA  =   0.01  broadening in eV -4-tet -1-fermi 0-gaus

 Electronic relaxation 2 (details)
   IALGO  =     38    algorithm
   LDIAG  =      T    sub-space diagonalisation (order eigenvalues)
   LSUBROT=      F    optimize rotation matrix (better conditioning)
   TURBO    =      0    0=normal 1=particle mesh
   IRESTART =      0    0=no restart 2=restart with 2 vectors
   NREBOOT  =      0    no. of reboots
   NMIN     =      0    reboot dimension
   EREF     =   0.00    reference energy to select bands
   IMIX   =      4    mixing-type and parameters
     AMIX     =   0.40;   BMIX     =  1.00
     AMIX_MAG =   1.60;   BMIX_MAG =  1.00
     AMIN     =   0.10
     WC   =   100.;   INIMIX=   1;  MIXPRE=   1;  MAXMIX= -45

 Intra band minimization:
   WEIMIN = 0.0000     energy-eigenvalue tresh-hold
   EBREAK =  0.21E-08  absolut break condition
   DEPER  =   0.30     relativ break condition  

   TIME   =   0.40     timestep for ELM

  volume/ion in A,a.u.               =    7145.83     48222.46
  Fermi-wavevector in a.u.,A,eV,Ry     =   0.117864  0.222730  0.189010  0.013892
  Thomas-Fermi vector in A             =   0.732055
 
 Write flags
   LWAVE        =      T    write WAVECAR
   LDOWNSAMPLE  =      F    k-point downsampling of WAVECAR
   LCHARG       =      T    write CHGCAR
   LVTOT        =      F    write LOCPOT, total local potential
   LVHAR        =      F    write LOCPOT, Hartree potential only
   LELF         =      F    write electronic localiz. function (ELF)
   LORBIT       =      0    0 simple, 1 ext, 2 COOP (PROOUT), +10 PAW based schemes


 Dipole corrections
   LMONO  =      F    monopole corrections only (constant potential shift)
   LDIPOL =      F    correct potential (dipole corrections)
   IDIPOL =      4    1-x, 2-y, 3-z, 4-all directions 
   EPSILON=  1.0000000 bulk dielectric constant

 Exchange correlation treatment:
   GGA     =    --    GGA type
   LEXCH   =     8    internal setting for exchange type
   VOSKOWN=      0    Vosko Wilk Nusair interpolation
   LHFCALC =     F    Hartree Fock is set to
   LHFONE  =     F    Hartree Fock one center treatment
   AEXX    =    0.0000 exact exchange contribution

 Linear response parameters
   LEPSILON=     F    determine dielectric tensor
   LRPA    =     F    only Hartree local field effects (RPA)
   LNABLA  =     F    use nabla operator in PAW spheres
   LVEL    =     F    velocity operator in full k-point grid
   LINTERFAST=   F  fast interpolation
   KINTER  =     0    interpolate to denser k-point grid
   CSHIFT  =0.1000    complex shift for real part using Kramers Kronig
   OMEGAMAX=  -1.0    maximum frequency
   DEG_THRESHOLD= 0.2000000E-02 threshold for treating states as degnerate
   RTIME   =   -0.100 relaxation time in fs
  (WPLASMAI=    0.000 imaginary part of plasma frequency in eV, 0.658/RTIME)
   DFIELD  = 0.0000000 0.0000000 0.0000000 field for delta impulse in time
 
 Orbital magnetization related:
   ORBITALMAG=     F  switch on orbital magnetization
   LCHIMAG   =     F  perturbation theory with respect to B field
   DQ        =  0.001000  dq finite difference perturbation B field
   LLRAUG    =     F  two centre corrections for induced B field



--------------------------------------------------------------------------------------------------------


 Static calculation
 charge density and potential will be updated during run
 non-spin polarized calculation
 Variant of blocked Davidson
 Davidson routine will perform the subspace rotation
 perform sub-space diagonalisation
    after iterative eigenvector-optimisation
 modified Broyden-mixing scheme, WC =      100.0
 initial mixing is a Kerker type mixing with AMIX =  0.4000 and BMIX =      1.0000
 Hartree-type preconditioning will be used
 using additional bands             4
 reciprocal scheme for non local part
 use partial core corrections
 calculate Harris-corrections to forces 
   (improved forces if not selfconsistent)
 use gradient corrections 
 use of overlap-Matrix (Vanderbilt PP)
 Gauss-broadening in eV      SIGMA  =   0.01


--------------------------------------------------------------------------------------------------------


  energy-cutoff  :     1600.00
  volume of cell :    42875.00
      direct lattice vectors                 reciprocal lattice vectors
    35.000000000  0.000000000  0.000000000     0.028571429  0.000000000  0.000000000
     0.000000000 35.000000000  0.000000000     0.000000000  0.028571429  0.000000000
     0.000000000  0.000000000 35.000000000     0.000000000  0.000000000  0.028571429

  length of vectors
    35.000000000 35.000000000 35.000000000     0.028571429  0.028571429  0.028571429


 
 k-points in units of 2pi/SCALE and weight: automatic mesh                          
   0.00000000  0.00000000  0.00000000       1.000
 
 k-points in reciprocal lattice and weights: automatic mesh                          
   0.00000000  0.00000000  0.00000000       1.000
 
 position of ions in fractional coordinates (direct lattice) 
   0.00050308  0.01829898  0.97824710
   0.99961778  0.01804667  0.02155859
   0.00068818  0.14934043  0.00003690
   0.02813703  0.18285221  0.99953324
   0.00000000  0.03506303  0.00000000
   0.00134977  0.17680015  0.00007238
 
 position of ions in cartesian coordinates  (Angst):
   0.01760775  0.64046416 34.23864840
  34.98662216  0.63163330  0.75455051
   0.02408619  5.22691505  0.00129166
   0.98479602  6.39982731 34.98366338
   0.00000000  1.22720600  0.00000000
   0.04724194  6.18800534  0.00253342
 


--------------------------------------------------------------------------------------------------------


 use parallel FFT for orbitals z direction half grid
 k-point   1 :   0.0000 0.0000 0.0000  plane waves: 3115599

 maximum and minimum number of plane-waves per node :    389462   389421

 maximum number of plane-waves:   3115599
 maximum index in each direction: 
   IXMAX=  114   IYMAX=  114   IZMAX=  114
   IXMIN= -114   IYMIN= -114   IZMIN=    0


 parallel 3D FFT for wavefunctions:
    minimum data exchange during FFTs selected (reduces bandwidth)
 parallel 3D FFT for charge:
    minimum data exchange during FFTs selected (reduces bandwidth)


 total amount of memory used by VASP MPI-rank0  3455162. kBytes
=======================================================================

   base      :      30000. kBytes
   nonl-proj :      87230. kBytes
   fftplans  :    1215227. kBytes
   grid      :    2104012. kBytes
   one-center:          1. kBytes
   wavefun   :      18692. kBytes
 
     INWAV:  cpu time    0.0000: real time    0.0000
 Broyden mixing: mesh for mixing (old mesh)
   NGX =229   NGY =229   NGZ =229
  (NGX  =960   NGY  =960   NGZ  =960)
  gives a total of ****** points

 initial charge density was supplied:
 charge density of overlapping atoms calculated
 number of electron      16.0000000 magnetization 
 keeping initial charge density in first step


--------------------------------------------------------------------------------------------------------


 Maximum index for augmentation-charges          1230 (set IRDMAX)


--------------------------------------------------------------------------------------------------------


 First call to EWALD:  gamma=   0.051
 Maximum number of real-space cells 3x 3x 3
 Maximum number of reciprocal cells 3x 3x 3

    FEWALD:  cpu time    0.0015: real time    0.0015


--------------------------------------- Iteration      1(   1)  ---------------------------------------


    POTLOK:  cpu time   23.6540: real time   23.6881
    SETDIJ:  cpu time    0.0877: real time    0.0897
     EDDAV:  cpu time   11.9006: real time   11.9467
       DOS:  cpu time    0.0048: real time    0.0048
    --------------------------------------------
      LOOP:  cpu time   35.6471: real time   35.7294

 eigenvalue-minimisations  :    40
 total energy-change (2. order) : 0.1526320E+03  (-0.3075276E+03)
 number of electron      16.0000000 magnetization 
 augmentation part       16.0000000 magnetization 

 Free energy of the ion-electron system (eV)
  ---------------------------------------------------
  alpha Z        PSCENC =         0.02092140
  Ewald energy   TEWEN  =       414.67621296
  -Hartree energ DENC   =     -1130.05449600
  -exchange      EXHF   =         0.00000000
  -V(xc)+E(xc)   XCENC  =        64.44889222
  PAW double counting   =       701.63506352     -705.26791599
  entropy T*S    EENTRO =        -0.00000000
  eigenvalues    EBANDS =      -107.53683283
  atomic energy  EATOM  =       914.71016949
  Solvation  Ediel_sol  =         0.00000000
  ---------------------------------------------------
  free energy    TOTEN  =       152.63201478 eV

  energy without entropy =      152.63201478  energy(sigma->0) =      152.63201478


--------------------------------------------------------------------------------------------------------




--------------------------------------- Iteration      1(   2)  ---------------------------------------


     EDDAV:  cpu time   11.9172: real time   11.9371
       DOS:  cpu time    0.0079: real time    0.0079
    --------------------------------------------
      LOOP:  cpu time   11.9251: real time   11.9450

 eigenvalue-minimisations  :    40
 total energy-change (2. order) :-0.8619371E+02  (-0.8188117E+02)
 number of electron      16.0000000 magnetization 
 augmentation part       16.0000000 magnetization 

 Free energy of the ion-electron system (eV)
  ---------------------------------------------------
  alpha Z        PSCENC =         0.02092140
  Ewald energy   TEWEN  =       414.67621296
  -Hartree energ DENC   =     -1130.05449600
  -exchange      EXHF   =         0.00000000
  -V(xc)+E(xc)   XCENC  =        64.44889222
  PAW double counting   =       701.63506352     -705.26791599
  entropy T*S    EENTRO =        -0.00000000
  eigenvalues    EBANDS =      -193.73054286
  atomic energy  EATOM  =       914.71016949
  Solvation  Ediel_sol  =         0.00000000
  ---------------------------------------------------
  free energy    TOTEN  =        66.43830475 eV

  energy without entropy =       66.43830475  energy(sigma->0) =       66.43830475


--------------------------------------------------------------------------------------------------------




--------------------------------------- Iteration      1(   3)  ---------------------------------------


     EDDAV:  cpu time   10.1102: real time   10.1273
       DOS:  cpu time    0.0054: real time    0.0054
    --------------------------------------------
      LOOP:  cpu time   10.1155: real time   10.1327

 eigenvalue-minimisations  :    32
 total energy-change (2. order) :-0.6782566E+02  (-0.5995048E+02)
 number of electron      16.0000000 magnetization 
 augmentation part       16.0000000 magnetization 

 Free energy of the ion-electron system (eV)
  ---------------------------------------------------
  alpha Z        PSCENC =         0.02092140
  Ewald energy   TEWEN  =       414.67621296
  -Hartree energ DENC   =     -1130.05449600
  -exchange      EXHF   =         0.00000000
  -V(xc)+E(xc)   XCENC  =        64.44889222
  PAW double counting   =       701.63506352     -705.26791599
  entropy T*S    EENTRO =        -0.00000000
  eigenvalues    EBANDS =      -261.55620722
  atomic energy  EATOM  =       914.71016949
  Solvation  Ediel_sol  =         0.00000000
  ---------------------------------------------------
  free energy    TOTEN  =        -1.38735961 eV

  energy without entropy =       -1.38735961  energy(sigma->0) =       -1.38735961


--------------------------------------------------------------------------------------------------------




--------------------------------------- Iteration      1(   4)  ---------------------------------------


     EDDAV:  cpu time   10.1005: real time   10.1177
       DOS:  cpu time    0.0046: real time    0.0046
    --------------------------------------------
      LOOP:  cpu time   10.1051: real time   10.1222

 eigenvalue-minimisations  :    32
 total energy-change (2. order) :-0.2944480E+02  (-0.2942654E+02)
 number of electron      16.0000000 magnetization 
 augmentation part       16.0000000 magnetization 

 Free energy of the ion-electron system (eV)
  ---------------------------------------------------
  alpha Z        PSCENC =         0.02092140
  Ewald energy   TEWEN  =       414.67621296
  -Hartree energ DENC   =     -1130.05449600
  -exchange      EXHF   =         0.00000000
  -V(xc)+E(xc)   XCENC  =        64.44889222
  PAW double counting   =       701.63506352     -705.26791599
  entropy T*S    EENTRO =        -0.00000000
  eigenvalues    EBANDS =      -291.00100400
  atomic energy  EATOM  =       914.71016949
  Solvation  Ediel_sol  =         0.00000000
  ---------------------------------------------------
  free energy    TOTEN  =       -30.83215639 eV

  energy without entropy =      -30.83215639  energy(sigma->0) =      -30.83215639


--------------------------------------------------------------------------------------------------------




--------------------------------------- Iteration      1(   5)  ---------------------------------------


     EDDAV:  cpu time   10.0542: real time   10.0723
       DOS:  cpu time    0.0030: real time    0.0030
    CHARGE:  cpu time    3.3419: real time    3.3466
    MIXING:  cpu time    0.4203: real time    0.4210
    --------------------------------------------
      LOOP:  cpu time   13.8195: real time   13.8429

 eigenvalue-minimisations  :    32
 total energy-change (2. order) :-0.1834357E+01  (-0.1834134E+01)
 number of electron      15.9999999 magnetization 
 augmentation part        1.6778146 magnetization 

 Broyden mixing:
  rms(total) = 0.11292E+01    rms(broyden)= 0.11292E+01
  rms(prec ) = 0.11656E+01
  weight for this iteration     100.00

 Free energy of the ion-electron system (eV)
  ---------------------------------------------------
  alpha Z        PSCENC =         0.02092140
  Ewald energy   TEWEN  =       414.67621296
  -Hartree energ DENC   =     -1130.05449600
  -exchange      EXHF   =         0.00000000
  -V(xc)+E(xc)   XCENC  =        64.44889222
  PAW double counting   =       701.63506352     -705.26791599
  entropy T*S    EENTRO =        -0.00000000
  eigenvalues    EBANDS =      -292.83536065
  atomic energy  EATOM  =       914.71016949
  Solvation  Ediel_sol  =         0.00000000
  ---------------------------------------------------
  free energy    TOTEN  =       -32.66651304 eV

  energy without entropy =      -32.66651304  energy(sigma->0) =      -32.66651304


--------------------------------------------------------------------------------------------------------




--------------------------------------- Iteration      1(   6)  ---------------------------------------


    POTLOK:  cpu time   23.4433: real time   23.4771
    SETDIJ:  cpu time    0.0812: real time    0.0812
     EDDAV:  cpu time    9.1670: real time    9.1853
       DOS:  cpu time    0.0047: real time    0.0047
    CHARGE:  cpu time    3.0098: real time    3.0144
    MIXING:  cpu time    0.4732: real time    0.4808
    --------------------------------------------
      LOOP:  cpu time   36.1790: real time   36.2435

 eigenvalue-minimisations  :    28
 total energy-change (2. order) : 0.3823938E+01  (-0.1550756E+01)
 number of electron      15.9999999 magnetization 
 augmentation part        1.4150174 magnetization 

 Broyden mixing:
  rms(total) = 0.44947E+00    rms(broyden)= 0.44947E+00
  rms(prec ) = 0.45771E+00
  weight for this iteration     100.00

 eigenvalues of (default mixing * dielectric matrix)
  average eigenvalue GAMMA=   0.9514
  0.9514

 Free energy of the ion-electron system (eV)
  ---------------------------------------------------
  alpha Z        PSCENC =         0.02092140
  Ewald energy   TEWEN  =       414.67621296
  -Hartree energ DENC   =     -1178.48596521
  -exchange      EXHF   =         0.00000000
  -V(xc)+E(xc)   XCENC  =        67.13268241
  PAW double counting   =       891.58550964     -895.94320387
  entropy T*S    EENTRO =        -0.00000000
  eigenvalues    EBANDS =      -242.53890184
  atomic energy  EATOM  =       914.71016949
  Solvation  Ediel_sol  =         0.00000000
  ---------------------------------------------------
  free energy    TOTEN  =       -28.84257501 eV

  energy without entropy =      -28.84257501  energy(sigma->0) =      -28.84257501


--------------------------------------------------------------------------------------------------------




--------------------------------------- Iteration      1(   7)  ---------------------------------------


    POTLOK:  cpu time   23.4612: real time   23.4950
    SETDIJ:  cpu time    0.0783: real time    0.0783
     EDDAV:  cpu time   10.9353: real time   10.9541
       DOS:  cpu time    0.0061: real time    0.0061
    CHARGE:  cpu time    3.0745: real time    3.0790
    MIXING:  cpu time    0.5717: real time    0.5726
    --------------------------------------------
      LOOP:  cpu time   38.1272: real time   38.1851

 eigenvalue-minimisations  :    36
 total energy-change (2. order) : 0.1821680E+00  (-0.6301747E-01)
 number of electron      15.9999999 magnetization 
 augmentation part        1.3948577 magnetization 

 Broyden mixing:
  rms(total) = 0.29950E+00    rms(broyden)= 0.29950E+00
  rms(prec ) = 0.30454E+00
  weight for this iteration     100.00

 eigenvalues of (default mixing * dielectric matrix)
  average eigenvalue GAMMA=   1.7284
  1.1093  2.3475

 Free energy of the ion-electron system (eV)
  ---------------------------------------------------
  alpha Z        PSCENC =         0.02092140
  Ewald energy   TEWEN  =       414.67621296
  -Hartree energ DENC   =     -1187.05411846
  -exchange      EXHF   =         0.00000000
  -V(xc)+E(xc)   XCENC  =        67.58247144
  PAW double counting   =       982.61566572     -986.91216389
  entropy T*S    EENTRO =        -0.00000000
  eigenvalues    EBANDS =      -234.29956568
  atomic energy  EATOM  =       914.71016949
  Solvation  Ediel_sol  =         0.00000000
  ---------------------------------------------------
  free energy    TOTEN  =       -28.66040701 eV

  energy without entropy =      -28.66040701  energy(sigma->0) =      -28.66040701


--------------------------------------------------------------------------------------------------------




--------------------------------------- Iteration      1(   8)  ---------------------------------------


    POTLOK:  cpu time   23.4376: real time   23.4713
    SETDIJ:  cpu time    0.1175: real time    0.1176
     EDDAV:  cpu time   10.1007: real time   10.1191
       DOS:  cpu time    0.0008: real time    0.0008
    CHARGE:  cpu time    3.0544: real time    3.0588
    MIXING:  cpu time    0.5313: real time    0.5321
    --------------------------------------------
      LOOP:  cpu time   37.2423: real time   37.2996

 eigenvalue-minimisations  :    32
 total energy-change (2. order) : 0.1575195E+00  (-0.1725330E-01)
 number of electron      15.9999999 magnetization 
 augmentation part        1.4084657 magnetization 

 Broyden mixing:
  rms(total) = 0.53755E-01    rms(broyden)= 0.53755E-01
  rms(prec ) = 0.57840E-01
  weight for this iteration     100.00

 eigenvalues of (default mixing * dielectric matrix)
  average eigenvalue GAMMA=   1.4559
  2.4062  0.9807  0.9807

 Free energy of the ion-electron system (eV)
  ---------------------------------------------------
  alpha Z        PSCENC =         0.02092140
  Ewald energy   TEWEN  =       414.67621296
  -Hartree energ DENC   =     -1195.32236759
  -exchange      EXHF   =         0.00000000
  -V(xc)+E(xc)   XCENC  =        68.04608184
  PAW double counting   =      1111.75387718    -1115.93302021
  entropy T*S    EENTRO =        -0.00000000
  eigenvalues    EBANDS =      -226.45476260
  atomic energy  EATOM  =       914.71016949
  Solvation  Ediel_sol  =         0.00000000
  ---------------------------------------------------
  free energy    TOTEN  =       -28.50288754 eV

  energy without entropy =      -28.50288754  energy(sigma->0) =      -28.50288754


--------------------------------------------------------------------------------------------------------




--------------------------------------- Iteration      1(   9)  ---------------------------------------


    POTLOK:  cpu time   23.4160: real time   23.4499
    SETDIJ:  cpu time    0.0774: real time    0.0774
     EDDAV:  cpu time   10.0849: real time   10.1020
       DOS:  cpu time    0.0043: real time    0.0043
    CHARGE:  cpu time    3.0995: real time    3.1040
    MIXING:  cpu time    0.5049: real time    0.5057
    --------------------------------------------
      LOOP:  cpu time   37.1869: real time   37.2435

 eigenvalue-minimisations  :    32
 total energy-change (2. order) : 0.1025497E-01  (-0.4426359E-02)
 number of electron      15.9999999 magnetization 
 augmentation part        1.3940548 magnetization 

 Broyden mixing:
  rms(total) = 0.20389E-01    rms(broyden)= 0.20389E-01
  rms(prec ) = 0.24634E-01
  weight for this iteration     100.00

 eigenvalues of (default mixing * dielectric matrix)
  average eigenvalue GAMMA=   1.6307
  2.2653  2.2653  0.9961  0.9961

 Free energy of the ion-electron system (eV)
  ---------------------------------------------------
  alpha Z        PSCENC =         0.02092140
  Ewald energy   TEWEN  =       414.67621296
  -Hartree energ DENC   =     -1198.15859926
  -exchange      EXHF   =         0.00000000
  -V(xc)+E(xc)   XCENC  =        68.18357259
  PAW double counting   =      1115.27152014    -1119.48043620
  entropy T*S    EENTRO =        -0.00000000
  eigenvalues    EBANDS =      -223.71599370
  atomic energy  EATOM  =       914.71016949
  Solvation  Ediel_sol  =         0.00000000
  ---------------------------------------------------
  free energy    TOTEN  =       -28.49263257 eV

  energy without entropy =      -28.49263257  energy(sigma->0) =      -28.49263257


--------------------------------------------------------------------------------------------------------




--------------------------------------- Iteration      1(  10)  ---------------------------------------


    POTLOK:  cpu time   23.4844: real time   23.5187
    SETDIJ:  cpu time    0.0768: real time    0.0769
     EDDAV:  cpu time   10.0554: real time   10.0725
       DOS:  cpu time    0.0013: real time    0.0013
    CHARGE:  cpu time    3.0986: real time    3.1031
    MIXING:  cpu time    0.5837: real time    0.5847
    --------------------------------------------
      LOOP:  cpu time   37.3001: real time   37.3572

 eigenvalue-minimisations  :    32
 total energy-change (2. order) :-0.3457507E-02  (-0.5516920E-03)
 number of electron      15.9999999 magnetization 
 augmentation part        1.3944693 magnetization 

 Broyden mixing:
  rms(total) = 0.92753E-02    rms(broyden)= 0.92753E-02
  rms(prec ) = 0.12616E-01
  weight for this iteration     100.00

 eigenvalues of (default mixing * dielectric matrix)
  average eigenvalue GAMMA=   1.7123
  3.1002  2.3739  0.9600  0.9600  1.1674

 Free energy of the ion-electron system (eV)
  ---------------------------------------------------
  alpha Z        PSCENC =         0.02092140
  Ewald energy   TEWEN  =       414.67621296
  -Hartree energ DENC   =     -1199.56132259
  -exchange      EXHF   =         0.00000000
  -V(xc)+E(xc)   XCENC  =        68.20349586
  PAW double counting   =      1104.53628117    -1108.72975434
  entropy T*S    EENTRO =        -0.00000000
  eigenvalues    EBANDS =      -222.35209403
  atomic energy  EATOM  =       914.71016949
  Solvation  Ediel_sol  =         0.00000000
  ---------------------------------------------------
  free energy    TOTEN  =       -28.49609007 eV

  energy without entropy =      -28.49609007  energy(sigma->0) =      -28.49609007


--------------------------------------------------------------------------------------------------------




--------------------------------------- Iteration      1(  11)  ---------------------------------------


    POTLOK:  cpu time   23.5067: real time   23.5402
    SETDIJ:  cpu time    0.0835: real time    0.0835
     EDDAV:  cpu time   10.1178: real time   10.1347
       DOS:  cpu time    0.0034: real time    0.0034
    CHARGE:  cpu time    3.0912: real time    3.0957
    MIXING:  cpu time    0.7129: real time    0.7139
    --------------------------------------------
      LOOP:  cpu time   37.5156: real time   37.5715

 eigenvalue-minimisations  :    32
 total energy-change (2. order) :-0.2996593E-02  (-0.5125706E-03)
 number of electron      15.9999999 magnetization 
 augmentation part        1.3903639 magnetization 

 Broyden mixing:
  rms(total) = 0.83677E-02    rms(broyden)= 0.83677E-02
  rms(prec ) = 0.10233E-01
  weight for this iteration     100.00

 eigenvalues of (default mixing * dielectric matrix)
  average eigenvalue GAMMA=   1.7106
  3.3873  2.5204  1.2082  1.2082  0.9697  0.9697

 Free energy of the ion-electron system (eV)
  ---------------------------------------------------
  alpha Z        PSCENC =         0.02092140
  Ewald energy   TEWEN  =       414.67621296
  -Hartree energ DENC   =     -1201.04313480
  -exchange      EXHF   =         0.00000000
  -V(xc)+E(xc)   XCENC  =        68.25351763
  PAW double counting   =      1104.43155066    -1108.63011838
  entropy T*S    EENTRO =        -0.00000000
  eigenvalues    EBANDS =      -220.91820563
  atomic energy  EATOM  =       914.71016949
  Solvation  Ediel_sol  =         0.00000000
  ---------------------------------------------------
  free energy    TOTEN  =       -28.49908667 eV

  energy without entropy =      -28.49908667  energy(sigma->0) =      -28.49908667


--------------------------------------------------------------------------------------------------------




--------------------------------------- Iteration      1(  12)  ---------------------------------------


    POTLOK:  cpu time   23.4346: real time   23.4679
    SETDIJ:  cpu time    0.0912: real time    0.0912
     EDDAV:  cpu time    8.2538: real time    8.2678
       DOS:  cpu time    0.0025: real time    0.0024
    CHARGE:  cpu time    3.0153: real time    3.0198
    MIXING:  cpu time    0.6384: real time    0.6395
    --------------------------------------------
      LOOP:  cpu time   35.4358: real time   35.4886

 eigenvalue-minimisations  :    24
 total energy-change (2. order) :-0.5620123E-02  (-0.1842292E-03)
 number of electron      15.9999999 magnetization 
 augmentation part        1.3926128 magnetization 

 Broyden mixing:
  rms(total) = 0.44261E-02    rms(broyden)= 0.44261E-02
  rms(prec ) = 0.59860E-02
  weight for this iteration     100.00

 eigenvalues of (default mixing * dielectric matrix)
  average eigenvalue GAMMA=   1.8838
  3.5348  3.0718  2.4667  1.0801  1.0801  0.9764  0.9764

 Free energy of the ion-electron system (eV)
  ---------------------------------------------------
  alpha Z        PSCENC =         0.02092140
  Ewald energy   TEWEN  =       414.67621296
  -Hartree energ DENC   =     -1201.07496295
  -exchange      EXHF   =         0.00000000
  -V(xc)+E(xc)   XCENC  =        68.22984997
  PAW double counting   =      1102.01488899    -1106.20829009
  entropy T*S    EENTRO =        -0.00000000
  eigenvalues    EBANDS =      -220.87349657
  atomic energy  EATOM  =       914.71016949
  Solvation  Ediel_sol  =         0.00000000
  ---------------------------------------------------
  free energy    TOTEN  =       -28.50470679 eV

  energy without entropy =      -28.50470679  energy(sigma->0) =      -28.50470679


--------------------------------------------------------------------------------------------------------




--------------------------------------- Iteration      1(  13)  ---------------------------------------


    POTLOK:  cpu time   23.4981: real time   23.5317
    SETDIJ:  cpu time    0.0644: real time    0.0645
     EDDAV:  cpu time   10.9674: real time   10.9877
       DOS:  cpu time    0.0022: real time    0.0022
    CHARGE:  cpu time    3.1291: real time    3.1336
    MIXING:  cpu time    0.7309: real time    0.7319
    --------------------------------------------
      LOOP:  cpu time   38.3921: real time   38.4515

 eigenvalue-minimisations  :    36
 total energy-change (2. order) :-0.6716773E-02  (-0.1421703E-03)
 number of electron      15.9999999 magnetization 
 augmentation part        1.3920912 magnetization 

 Broyden mixing:
  rms(total) = 0.27443E-02    rms(broyden)= 0.27443E-02
  rms(prec ) = 0.34449E-02
  weight for this iteration     100.00

 eigenvalues of (default mixing * dielectric matrix)
  average eigenvalue GAMMA=   2.0038
  5.2998  3.0460  2.4345  1.1974  1.1974  0.9690  0.9690  0.9176

 Free energy of the ion-electron system (eV)
  ---------------------------------------------------
  alpha Z        PSCENC =         0.02092140
  Ewald energy   TEWEN  =       414.67621296
  -Hartree energ DENC   =     -1201.56223703
  -exchange      EXHF   =         0.00000000
  -V(xc)+E(xc)   XCENC  =        68.23092205
  PAW double counting   =      1104.09275663    -1108.28877765
  entropy T*S    EENTRO =        -0.00000000
  eigenvalues    EBANDS =      -220.39139143
  atomic energy  EATOM  =       914.71016949
  Solvation  Ediel_sol  =         0.00000000
  ---------------------------------------------------
  free energy    TOTEN  =       -28.51142356 eV

  energy without entropy =      -28.51142356  energy(sigma->0) =      -28.51142356


--------------------------------------------------------------------------------------------------------




--------------------------------------- Iteration      1(  14)  ---------------------------------------


    POTLOK:  cpu time   23.5433: real time   23.5775
    SETDIJ:  cpu time    0.0886: real time    0.0887
     EDDAV:  cpu time   11.9267: real time   11.9472
       DOS:  cpu time    0.0054: real time    0.0054
    CHARGE:  cpu time    3.0387: real time    3.0436
    MIXING:  cpu time    0.6924: real time    0.6935
    --------------------------------------------
      LOOP:  cpu time   39.2952: real time   39.3559

 eigenvalue-minimisations  :    40
 total energy-change (2. order) :-0.2127088E-02  (-0.3626286E-04)
 number of electron      15.9999999 magnetization 
 augmentation part        1.3914560 magnetization 

 Broyden mixing:
  rms(total) = 0.15274E-02    rms(broyden)= 0.15274E-02
  rms(prec ) = 0.19615E-02
  weight for this iteration     100.00

 eigenvalues of (default mixing * dielectric matrix)
  average eigenvalue GAMMA=   2.2668
  6.7779  3.4668  2.6557  2.3784  0.9651  0.9669  0.9669  1.1119  1.1119

 Free energy of the ion-electron system (eV)
  ---------------------------------------------------
  alpha Z        PSCENC =         0.02092140
  Ewald energy   TEWEN  =       414.67621296
  -Hartree energ DENC   =     -1201.81181616
  -exchange      EXHF   =         0.00000000
  -V(xc)+E(xc)   XCENC  =        68.23250387
  PAW double counting   =      1103.80275912    -1107.99903019
  entropy T*S    EENTRO =        -0.00000000
  eigenvalues    EBANDS =      -220.14527114
  atomic energy  EATOM  =       914.71016949
  Solvation  Ediel_sol  =         0.00000000
  ---------------------------------------------------
  free energy    TOTEN  =       -28.51355065 eV

  energy without entropy =      -28.51355065  energy(sigma->0) =      -28.51355065


--------------------------------------------------------------------------------------------------------




--------------------------------------- Iteration      1(  15)  ---------------------------------------


    POTLOK:  cpu time   23.5437: real time   23.5773
    SETDIJ:  cpu time    0.0771: real time    0.0772
     EDDAV:  cpu time   10.0289: real time   10.0478
       DOS:  cpu time    0.0057: real time    0.0057
    CHARGE:  cpu time    3.0651: real time    3.0696
    MIXING:  cpu time    0.7302: real time    0.7314
    --------------------------------------------
      LOOP:  cpu time   37.4506: real time   37.5089

 eigenvalue-minimisations  :    32
 total energy-change (2. order) :-0.2846926E-02  (-0.3758408E-04)
 number of electron      15.9999999 magnetization 
 augmentation part        1.3913680 magnetization 

 Broyden mixing:
  rms(total) = 0.82616E-03    rms(broyden)= 0.82616E-03
  rms(prec ) = 0.96835E-03
  weight for this iteration     100.00

 eigenvalues of (default mixing * dielectric matrix)
  average eigenvalue GAMMA=   2.2931
  7.5367  3.8675  2.7171  2.4490  1.3068  1.1043  1.1043  0.9503  0.9503  0.9452

 Free energy of the ion-electron system (eV)
  ---------------------------------------------------
  alpha Z        PSCENC =         0.02092140
  Ewald energy   TEWEN  =       414.67621296
  -Hartree energ DENC   =     -1201.87102578
  -exchange      EXHF   =         0.00000000
  -V(xc)+E(xc)   XCENC  =        68.22786427
  PAW double counting   =      1103.59274233    -1107.78617889
  entropy T*S    EENTRO =        -0.00000000
  eigenvalues    EBANDS =      -220.08710336
  atomic energy  EATOM  =       914.71016949
  Solvation  Ediel_sol  =         0.00000000
  ---------------------------------------------------
  free energy    TOTEN  =       -28.51639758 eV

  energy without entropy =      -28.51639758  energy(sigma->0) =      -28.51639758


--------------------------------------------------------------------------------------------------------




--------------------------------------- Iteration      1(  16)  ---------------------------------------


    POTLOK:  cpu time   23.5100: real time   23.5441
    SETDIJ:  cpu time    0.0827: real time    0.0827
     EDDAV:  cpu time   11.9126: real time   11.9326
       DOS:  cpu time    0.0042: real time    0.0042
    CHARGE:  cpu time    3.0332: real time    3.0376
    MIXING:  cpu time    0.7943: real time    0.7956
    --------------------------------------------
      LOOP:  cpu time   39.3370: real time   39.3967

 eigenvalue-minimisations  :    40
 total energy-change (2. order) :-0.6272291E-03  (-0.2794578E-05)
 number of electron      15.9999999 magnetization 
 augmentation part        1.3913973 magnetization 

 Broyden mixing:
  rms(total) = 0.43149E-03    rms(broyden)= 0.43149E-03
  rms(prec ) = 0.52995E-03
  weight for this iteration     100.00

 eigenvalues of (default mixing * dielectric matrix)
  average eigenvalue GAMMA=   2.3941
  8.1193  4.3833  2.8713  2.5493  2.2890  1.1009  1.1009  0.9564  0.9564  1.0484
  0.9604

 Free energy of the ion-electron system (eV)
  ---------------------------------------------------
  alpha Z        PSCENC =         0.02092140
  Ewald energy   TEWEN  =       414.67621296
  -Hartree energ DENC   =     -1201.86428897
  -exchange      EXHF   =         0.00000000
  -V(xc)+E(xc)   XCENC  =        68.22620214
  PAW double counting   =      1103.42030923    -1107.61385860
  entropy T*S    EENTRO =        -0.00000000
  eigenvalues    EBANDS =      -220.09269247
  atomic energy  EATOM  =       914.71016949
  Solvation  Ediel_sol  =         0.00000000
  ---------------------------------------------------
  free energy    TOTEN  =       -28.51702481 eV

  energy without entropy =      -28.51702481  energy(sigma->0) =      -28.51702481


--------------------------------------------------------------------------------------------------------




--------------------------------------- Iteration      1(  17)  ---------------------------------------


    POTLOK:  cpu time   23.4447: real time   23.4802
    SETDIJ:  cpu time    0.0716: real time    0.0717
     EDDAV:  cpu time   10.1094: real time   10.1263
       DOS:  cpu time    0.0022: real time    0.0022
    CHARGE:  cpu time    3.0738: real time    3.0781
    MIXING:  cpu time    0.9152: real time    0.9165
    --------------------------------------------
      LOOP:  cpu time   37.6168: real time   37.6749

 eigenvalue-minimisations  :    32
 total energy-change (2. order) :-0.5047890E-03  (-0.1769078E-05)
 number of electron      15.9999999 magnetization 
 augmentation part        1.3913907 magnetization 

 Broyden mixing:
  rms(total) = 0.19738E-03    rms(broyden)= 0.19738E-03
  rms(prec ) = 0.24488E-03
  weight for this iteration     100.00

 eigenvalues of (default mixing * dielectric matrix)
  average eigenvalue GAMMA=   2.4346
  8.6130  4.9086  3.1216  2.7071  2.4264  1.2883  1.2343  0.9505  0.9505  1.0360
  1.0360  0.9432

 Free energy of the ion-electron system (eV)
  ---------------------------------------------------
  alpha Z        PSCENC =         0.02092140
  Ewald energy   TEWEN  =       414.67621296
  -Hartree energ DENC   =     -1201.86529254
  -exchange      EXHF   =         0.00000000
  -V(xc)+E(xc)   XCENC  =        68.22555949
  PAW double counting   =      1103.41768589    -1107.61206945
  entropy T*S    EENTRO =        -0.00000000
  eigenvalues    EBANDS =      -220.09071686
  atomic energy  EATOM  =       914.71016949
  Solvation  Ediel_sol  =         0.00000000
  ---------------------------------------------------
  free energy    TOTEN  =       -28.51752959 eV

  energy without entropy =      -28.51752959  energy(sigma->0) =      -28.51752959


--------------------------------------------------------------------------------------------------------




--------------------------------------- Iteration      1(  18)  ---------------------------------------


    POTLOK:  cpu time   23.5503: real time   23.5840
    SETDIJ:  cpu time    0.0706: real time    0.0707
     EDDAV:  cpu time   11.9301: real time   11.9501
       DOS:  cpu time    0.0026: real time    0.0026
    CHARGE:  cpu time    2.9884: real time    2.9930
    MIXING:  cpu time    0.8955: real time    0.8969
    --------------------------------------------
      LOOP:  cpu time   39.4375: real time   39.4973

 eigenvalue-minimisations  :    40
 total energy-change (2. order) :-0.1656189E-03  (-0.2789178E-06)
 number of electron      15.9999999 magnetization 
 augmentation part        1.3914189 magnetization 

 Broyden mixing:
  rms(total) = 0.15481E-03    rms(broyden)= 0.15481E-03
  rms(prec ) = 0.17697E-03
  weight for this iteration     100.00

 eigenvalues of (default mixing * dielectric matrix)
  average eigenvalue GAMMA=   2.4981
  9.0441  5.4109  3.5673  2.5979  2.5979  2.1290  1.1899  1.0949  1.0949  0.9545
  0.9545  0.9470  0.8931

 Free energy of the ion-electron system (eV)
  ---------------------------------------------------
  alpha Z        PSCENC =         0.02092140
  Ewald energy   TEWEN  =       414.67621296
  -Hartree energ DENC   =     -1201.86146518
  -exchange      EXHF   =         0.00000000
  -V(xc)+E(xc)   XCENC  =        68.22506537
  PAW double counting   =      1103.45915325    -1107.65358715
  entropy T*S    EENTRO =        -0.00000000
  eigenvalues    EBANDS =      -220.09416537
  atomic energy  EATOM  =       914.71016949
  Solvation  Ediel_sol  =         0.00000000
  ---------------------------------------------------
  free energy    TOTEN  =       -28.51769521 eV

  energy without entropy =      -28.51769521  energy(sigma->0) =      -28.51769521


--------------------------------------------------------------------------------------------------------




--------------------------------------- Iteration      1(  19)  ---------------------------------------


    POTLOK:  cpu time   23.4842: real time   23.5176
    SETDIJ:  cpu time    0.0784: real time    0.0785
     EDDAV:  cpu time    8.2661: real time    8.2802
       DOS:  cpu time    0.0014: real time    0.0014
    CHARGE:  cpu time    3.0834: real time    3.0879
    MIXING:  cpu time    1.0477: real time    1.0491
    --------------------------------------------
      LOOP:  cpu time   35.9612: real time   36.0147

 eigenvalue-minimisations  :    24
 total energy-change (2. order) :-0.9604507E-04  (-0.9552805E-07)
 number of electron      15.9999999 magnetization 
 augmentation part        1.3914027 magnetization 

 Broyden mixing:
  rms(total) = 0.50966E-04    rms(broyden)= 0.50966E-04
  rms(prec ) = 0.65683E-04
  weight for this iteration     100.00

 eigenvalues of (default mixing * dielectric matrix)
  average eigenvalue GAMMA=   2.5307
  9.2602  5.8420  3.9153  2.7943  2.4689  2.4689  1.6788  1.0966  1.0966  0.9548
  0.9548  1.0732  0.9489  0.8764

 Free energy of the ion-electron system (eV)
  ---------------------------------------------------
  alpha Z        PSCENC =         0.02092140
  Ewald energy   TEWEN  =       414.67621296
  -Hartree energ DENC   =     -1201.86585100
  -exchange      EXHF   =         0.00000000
  -V(xc)+E(xc)   XCENC  =        68.22505573
  PAW double counting   =      1103.48824962    -1107.68251072
  entropy T*S    EENTRO =        -0.00000000
  eigenvalues    EBANDS =      -220.09003874
  atomic energy  EATOM  =       914.71016949
  Solvation  Ediel_sol  =         0.00000000
  ---------------------------------------------------
  free energy    TOTEN  =       -28.51779126 eV

  energy without entropy =      -28.51779126  energy(sigma->0) =      -28.51779126


--------------------------------------------------------------------------------------------------------




--------------------------------------- Iteration      1(  20)  ---------------------------------------


    POTLOK:  cpu time   23.3451: real time   23.3788
    SETDIJ:  cpu time    0.0623: real time    0.0623
     EDDAV:  cpu time    8.2830: real time    8.2969
       DOS:  cpu time    0.0019: real time    0.0019
    CHARGE:  cpu time    3.1163: real time    3.1210
    MIXING:  cpu time    0.9156: real time    0.9171
    --------------------------------------------
      LOOP:  cpu time   35.7243: real time   35.7780

 eigenvalue-minimisations  :    24
 total energy-change (2. order) :-0.4211589E-04  (-0.2790605E-07)
 number of electron      15.9999999 magnetization 
 augmentation part        1.3914016 magnetization 

 Broyden mixing:
  rms(total) = 0.34413E-04    rms(broyden)= 0.34413E-04
  rms(prec ) = 0.40998E-04
  weight for this iteration     100.00

 eigenvalues of (default mixing * dielectric matrix)
  average eigenvalue GAMMA=   2.5645
  9.3801  6.3056  4.2693  3.1880  2.6129  2.4756  2.0458  1.2672  1.1018  1.1018
  0.9538  0.9538  0.9481  0.9481  0.9160

 Free energy of the ion-electron system (eV)
  ---------------------------------------------------
  alpha Z        PSCENC =         0.02092140
  Ewald energy   TEWEN  =       414.67621296
  -Hartree energ DENC   =     -1201.86713084
  -exchange      EXHF   =         0.00000000
  -V(xc)+E(xc)   XCENC  =        68.22502428
  PAW double counting   =      1103.46676095    -1107.66091988
  entropy T*S    EENTRO =        -0.00000000
  eigenvalues    EBANDS =      -220.08887174
  atomic energy  EATOM  =       914.71016949
  Solvation  Ediel_sol  =         0.00000000
  ---------------------------------------------------
  free energy    TOTEN  =       -28.51783337 eV

  energy without entropy =      -28.51783337  energy(sigma->0) =      -28.51783337


--------------------------------------------------------------------------------------------------------




--------------------------------------- Iteration      1(  21)  ---------------------------------------


    POTLOK:  cpu time   23.4416: real time   23.4774
    SETDIJ:  cpu time    0.1072: real time    0.1072
     EDDAV:  cpu time    6.5153: real time    6.5263
       DOS:  cpu time    0.0019: real time    0.0019
    CHARGE:  cpu time    3.0830: real time    3.0877
    MIXING:  cpu time    0.9351: real time    0.9366
    --------------------------------------------
      LOOP:  cpu time   34.0842: real time   34.1370

 eigenvalue-minimisations  :    16
 total energy-change (2. order) :-0.1964343E-04  (-0.9150073E-08)
 number of electron      15.9999999 magnetization 
 augmentation part        1.3914009 magnetization 

 Broyden mixing:
  rms(total) = 0.17553E-04    rms(broyden)= 0.17553E-04
  rms(prec ) = 0.20950E-04
  weight for this iteration     100.00

 eigenvalues of (default mixing * dielectric matrix)
  average eigenvalue GAMMA=   2.5899
  9.5141  6.6928  4.6164  3.4057  2.6416  2.4326  2.3400  1.7754  1.1060  1.1060
  0.9546  0.9546  1.0829  0.9544  0.9544  0.9073

 Free energy of the ion-electron system (eV)
  ---------------------------------------------------
  alpha Z        PSCENC =         0.02092140
  Ewald energy   TEWEN  =       414.67621296
  -Hartree energ DENC   =     -1201.86767050
  -exchange      EXHF   =         0.00000000
  -V(xc)+E(xc)   XCENC  =        68.22504609
  PAW double counting   =      1103.46790495    -1107.66206519
  entropy T*S    EENTRO =        -0.00000000
  eigenvalues    EBANDS =      -220.08837223
  atomic energy  EATOM  =       914.71016949
  Solvation  Ediel_sol  =         0.00000000
  ---------------------------------------------------
  free energy    TOTEN  =       -28.51785302 eV

  energy without entropy =      -28.51785302  energy(sigma->0) =      -28.51785302


--------------------------------------------------------------------------------------------------------




--------------------------------------- Iteration      1(  22)  ---------------------------------------


    POTLOK:  cpu time   23.4339: real time   23.4676
    SETDIJ:  cpu time    0.0689: real time    0.0689
     EDDAV:  cpu time    8.2699: real time    8.2836
       DOS:  cpu time    0.0046: real time    0.0046
    CHARGE:  cpu time    3.0950: real time    3.0996
    MIXING:  cpu time    0.9690: real time    0.9706
    --------------------------------------------
      LOOP:  cpu time   35.8412: real time   35.8950

 eigenvalue-minimisations  :    24
 total energy-change (2. order) :-0.8447815E-05  (-0.4603692E-08)
 number of electron      15.9999999 magnetization 
 augmentation part        1.3914012 magnetization 

 Broyden mixing:
  rms(total) = 0.82213E-05    rms(broyden)= 0.82213E-05
  rms(prec ) = 0.10305E-04
  weight for this iteration     100.00

 eigenvalues of (default mixing * dielectric matrix)
  average eigenvalue GAMMA=   2.6442
  9.6209  7.0315  5.0453  3.7789  2.7547  2.7547  2.4071  2.1408  1.4382  1.1102
  1.1102  0.9539  0.9539  1.0165  0.9691  0.9691  0.8964

 Free energy of the ion-electron system (eV)
  ---------------------------------------------------
  alpha Z        PSCENC =         0.02092140
  Ewald energy   TEWEN  =       414.67621296
  -Hartree energ DENC   =     -1201.86757492
  -exchange      EXHF   =         0.00000000
  -V(xc)+E(xc)   XCENC  =        68.22503730
  PAW double counting   =      1103.46853637    -1107.66274117
  entropy T*S    EENTRO =        -0.00000000
  eigenvalues    EBANDS =      -220.08842291
  atomic energy  EATOM  =       914.71016949
  Solvation  Ediel_sol  =         0.00000000
  ---------------------------------------------------
  free energy    TOTEN  =       -28.51786147 eV

  energy without entropy =      -28.51786147  energy(sigma->0) =      -28.51786147


--------------------------------------------------------------------------------------------------------




--------------------------------------- Iteration      1(  23)  ---------------------------------------


    POTLOK:  cpu time   23.4537: real time   23.4875
    SETDIJ:  cpu time    0.0607: real time    0.0607
     EDDAV:  cpu time    6.5027: real time    6.5135
       DOS:  cpu time    0.0026: real time    0.0026
    CHARGE:  cpu time    3.1327: real time    3.1374
    MIXING:  cpu time    1.0204: real time    1.0221
    --------------------------------------------
      LOOP:  cpu time   34.1728: real time   34.2239

 eigenvalue-minimisations  :    16
 total energy-change (2. order) :-0.4549201E-05  (-0.3804537E-08)
 number of electron      15.9999999 magnetization 
 augmentation part        1.3914026 magnetization 

 Broyden mixing:
  rms(total) = 0.64499E-05    rms(broyden)= 0.64499E-05
  rms(prec ) = 0.71276E-05
  weight for this iteration     100.00

 eigenvalues of (default mixing * dielectric matrix)
  average eigenvalue GAMMA=   2.6384
  9.6514  7.3021  5.3291  3.9744  3.1463  2.5208  2.5208  2.1672  1.8590  1.1089
  1.1089  0.9540  0.9540  1.0531  1.0531  0.9455  0.9455  0.8976

 Free energy of the ion-electron system (eV)
  ---------------------------------------------------
  alpha Z        PSCENC =         0.02092140
  Ewald energy   TEWEN  =       414.67621296
  -Hartree energ DENC   =     -1201.86712969
  -exchange      EXHF   =         0.00000000
  -V(xc)+E(xc)   XCENC  =        68.22500696
  PAW double counting   =      1103.46914983    -1107.66336451
  entropy T*S    EENTRO =        -0.00000000
  eigenvalues    EBANDS =      -220.08883245
  atomic energy  EATOM  =       914.71016949
  Solvation  Ediel_sol  =         0.00000000
  ---------------------------------------------------
  free energy    TOTEN  =       -28.51786602 eV

  energy without entropy =      -28.51786602  energy(sigma->0) =      -28.51786602


--------------------------------------------------------------------------------------------------------




--------------------------------------- Iteration      1(  24)  ---------------------------------------


    POTLOK:  cpu time   23.3379: real time   23.3716
    SETDIJ:  cpu time    0.0720: real time    0.0720
     EDDAV:  cpu time    6.4325: real time    6.4431
       DOS:  cpu time    0.0021: real time    0.0021
    CHARGE:  cpu time    3.0915: real time    3.0962
    MIXING:  cpu time    1.0876: real time    1.0894
    --------------------------------------------
      LOOP:  cpu time   34.0237: real time   34.0745

 eigenvalue-minimisations  :    16
 total energy-change (2. order) :-0.1313070E-05  (-0.1540684E-08)
 number of electron      15.9999999 magnetization 
 augmentation part        1.3914024 magnetization 

 Broyden mixing:
  rms(total) = 0.31274E-05    rms(broyden)= 0.31274E-05
  rms(prec ) = 0.35575E-05
  weight for this iteration     100.00

 eigenvalues of (default mixing * dielectric matrix)
  average eigenvalue GAMMA=   2.6445
  9.6667  7.5696  5.5321  4.2379  3.2770  2.6012  2.6012  2.2216  2.2216  1.3996
  1.1076  1.1076  0.9539  0.9539  1.0473  0.9657  0.9657  0.9078  0.9078

 Free energy of the ion-electron system (eV)
  ---------------------------------------------------
  alpha Z        PSCENC =         0.02092140
  Ewald energy   TEWEN  =       414.67621296
  -Hartree energ DENC   =     -1201.86730232
  -exchange      EXHF   =         0.00000000
  -V(xc)+E(xc)   XCENC  =        68.22501467
  PAW double counting   =      1103.46920892    -1107.66341584
  entropy T*S    EENTRO =        -0.00000000
  eigenvalues    EBANDS =      -220.08867661
  atomic energy  EATOM  =       914.71016949
  Solvation  Ediel_sol  =         0.00000000
  ---------------------------------------------------
  free energy    TOTEN  =       -28.51786733 eV

  energy without entropy =      -28.51786733  energy(sigma->0) =      -28.51786733


--------------------------------------------------------------------------------------------------------




--------------------------------------- Iteration      1(  25)  ---------------------------------------


    POTLOK:  cpu time   23.2763: real time   23.3101
    SETDIJ:  cpu time    0.0820: real time    0.0820
     EDDAV:  cpu time    6.4709: real time    6.4819
       DOS:  cpu time    0.0028: real time    0.0028
    CHARGE:  cpu time    3.0719: real time    3.0765
    MIXING:  cpu time    1.2040: real time    1.2060
    --------------------------------------------
      LOOP:  cpu time   34.1078: real time   34.1593

 eigenvalue-minimisations  :    16
 total energy-change (2. order) :-0.7059391E-06  (-0.9397905E-09)
 number of electron      15.9999999 magnetization 
 augmentation part        1.3914017 magnetization 

 Broyden mixing:
  rms(total) = 0.28409E-05    rms(broyden)= 0.28409E-05
  rms(prec ) = 0.30251E-05
  weight for this iteration     100.00

 eigenvalues of (default mixing * dielectric matrix)
  average eigenvalue GAMMA=   2.6592
  9.7182  7.7762  5.8230  4.4424  3.5512  2.8645  2.4257  2.4257  2.2272  1.9058
  1.1020  1.1020  1.1217  0.9538  0.9538  1.0276  0.8987  0.9623  0.9513  0.9513

 Free energy of the ion-electron system (eV)
  ---------------------------------------------------
  alpha Z        PSCENC =         0.02092140
  Ewald energy   TEWEN  =       414.67621296
  -Hartree energ DENC   =     -1201.86743246
  -exchange      EXHF   =         0.00000000
  -V(xc)+E(xc)   XCENC  =        68.22502120
  PAW double counting   =      1103.46946550    -1107.66366840
  entropy T*S    EENTRO =        -0.00000000
  eigenvalues    EBANDS =      -220.08855774
  atomic energy  EATOM  =       914.71016949
  Solvation  Ediel_sol  =         0.00000000
  ---------------------------------------------------
  free energy    TOTEN  =       -28.51786803 eV

  energy without entropy =      -28.51786803  energy(sigma->0) =      -28.51786803


--------------------------------------------------------------------------------------------------------




--------------------------------------- Iteration      1(  26)  ---------------------------------------


    POTLOK:  cpu time   23.2559: real time   23.2899
    SETDIJ:  cpu time    0.0783: real time    0.0783
     EDDAV:  cpu time    7.3880: real time    7.4020
       DOS:  cpu time    0.0005: real time    0.0005
    CHARGE:  cpu time    3.0910: real time    3.0956
    MIXING:  cpu time    1.2065: real time    1.2085
    --------------------------------------------
      LOOP:  cpu time   35.0201: real time   35.0748

 eigenvalue-minimisations  :    20
 total energy-change (2. order) :-0.3325504E-06  (-0.5751541E-09)
 number of electron      15.9999999 magnetization 
 augmentation part        1.3914017 magnetization 

 Broyden mixing:
  rms(total) = 0.11920E-05    rms(broyden)= 0.11920E-05
  rms(prec ) = 0.12991E-05
  weight for this iteration     100.00

 eigenvalues of (default mixing * dielectric matrix)
  average eigenvalue GAMMA=   2.6428
  9.7377  7.9130  6.0098  4.6303  3.6118  3.0255  2.6153  2.5014  2.1183  2.0802
  1.2899  1.1540  1.0957  1.0957  0.9539  0.9539  0.9813  0.9813  0.9417  0.9189
  0.8897

 Free energy of the ion-electron system (eV)
  ---------------------------------------------------
  alpha Z        PSCENC =         0.02092140
  Ewald energy   TEWEN  =       414.67621296
  -Hartree energ DENC   =     -1201.86736411
  -exchange      EXHF   =         0.00000000
  -V(xc)+E(xc)   XCENC  =        68.22501675
  PAW double counting   =      1103.46905247    -1107.66325567
  entropy T*S    EENTRO =        -0.00000000
  eigenvalues    EBANDS =      -220.08862168
  atomic energy  EATOM  =       914.71016949
  Solvation  Ediel_sol  =         0.00000000
  ---------------------------------------------------
  free energy    TOTEN  =       -28.51786837 eV

  energy without entropy =      -28.51786837  energy(sigma->0) =      -28.51786837


--------------------------------------------------------------------------------------------------------




--------------------------------------- Iteration      1(  27)  ---------------------------------------


    POTLOK:  cpu time   23.2659: real time   23.2998
    SETDIJ:  cpu time    0.0803: real time    0.0804
     EDDAV:  cpu time    6.4616: real time    6.4727
       DOS:  cpu time    0.0040: real time    0.0040
    CHARGE:  cpu time    3.1297: real time    3.1344
    MIXING:  cpu time    1.2090: real time    1.2112
    --------------------------------------------
      LOOP:  cpu time   34.1506: real time   34.2024

 eigenvalue-minimisations  :    16
 total energy-change (2. order) :-0.1249830E-06  (-0.4177494E-09)
 number of electron      15.9999999 magnetization 
 augmentation part        1.3914019 magnetization 

 Broyden mixing:
  rms(total) = 0.83489E-06    rms(broyden)= 0.83489E-06
  rms(prec ) = 0.89980E-06
  weight for this iteration     100.00

 eigenvalues of (default mixing * dielectric matrix)
  average eigenvalue GAMMA=   2.6449
  9.7506  8.0693  6.2800  4.8325  3.8542  3.1191  2.6321  2.5050  2.0918  2.0918
  1.9707  1.1830  1.1022  1.1022  0.9539  0.9539  1.0211  1.0042  0.9520  0.9520
  0.8829  0.8829

 Free energy of the ion-electron system (eV)
  ---------------------------------------------------
  alpha Z        PSCENC =         0.02092140
  Ewald energy   TEWEN  =       414.67621296
  -Hartree energ DENC   =     -1201.86732966
  -exchange      EXHF   =         0.00000000
  -V(xc)+E(xc)   XCENC  =        68.22501517
  PAW double counting   =      1103.46905210    -1107.66325476
  entropy T*S    EENTRO =        -0.00000000
  eigenvalues    EBANDS =      -220.08865520
  atomic energy  EATOM  =       914.71016949
  Solvation  Ediel_sol  =         0.00000000
  ---------------------------------------------------
  free energy    TOTEN  =       -28.51786849 eV

  energy without entropy =      -28.51786849  energy(sigma->0) =      -28.51786849


--------------------------------------------------------------------------------------------------------




--------------------------------------- Iteration      1(  28)  ---------------------------------------


    POTLOK:  cpu time   23.2330: real time   23.2665
    SETDIJ:  cpu time    0.0828: real time    0.0829
     EDDAV:  cpu time    8.2235: real time    8.2373
       DOS:  cpu time    0.0012: real time    0.0012
    --------------------------------------------
      LOOP:  cpu time   31.5404: real time   31.5878

 eigenvalue-minimisations  :    24
 total energy-change (2. order) :-0.7823564E-07  (-0.3501395E-09)
 number of electron      15.9999999 magnetization 
 augmentation part        1.3914019 magnetization 

 Free energy of the ion-electron system (eV)
  ---------------------------------------------------
  alpha Z        PSCENC =         0.02092140
  Ewald energy   TEWEN  =       414.67621296
  -Hartree energ DENC   =     -1201.86733737
  -exchange      EXHF   =         0.00000000
  -V(xc)+E(xc)   XCENC  =        68.22501574
  PAW double counting   =      1103.46913060    -1107.66333360
  entropy T*S    EENTRO =        -0.00000000
  eigenvalues    EBANDS =      -220.08864781
  atomic energy  EATOM  =       914.71016949
  Solvation  Ediel_sol  =         0.00000000
  ---------------------------------------------------
  free energy    TOTEN  =       -28.51786857 eV

  energy without entropy =      -28.51786857  energy(sigma->0) =      -28.51786857


--------------------------------------------------------------------------------------------------------




 average (electrostatic) potential at core
  the test charge radii are     0.5201  0.7215
  (the norm of the test charge is              1.0000)
       1 -44.9591       2 -44.9587       3 -44.5155       4 -44.5758       5 -80.7587
       6 -80.3474
 
 
 
 E-fermi :  -6.9605     XC(G=0):  -0.0328     alpha+bet : -0.0061


 k-point     1 :       0.0000    0.0000    0.0000
  band No.  band energies     occupation 
      1     -25.5899      2.00000
      2     -25.1806      2.00000
      3     -13.3397      2.00000
      4     -12.9291      2.00000
      5      -9.5008      2.00000
      6      -9.0752      2.00000
      7      -7.4162      2.00000
      8      -7.0127      2.00000
      9      -1.1581      0.00000
     10      -0.6357      0.00000
     11      -0.0013      0.00000
     12       0.0881      0.00000


--------------------------------------------------------------------------------------------------------


 soft charge-density along one line, spin component            1
         0         1         2         3         4         5         6         7         8         9
 total charge-density along one line
 
 pseudopotential strength for first ion, spin component:            1
 -2.383  -4.116  -0.010  -0.014   0.000
 -4.116  -7.022  -0.019  -0.027   0.001
 -0.010  -0.019  -0.312   0.015  -0.000
 -0.014  -0.027   0.015  -0.302  -0.000
  0.000   0.001  -0.000  -0.000  -0.323
 total augmentation occupancy for first ion, spin component:            1
  3.782  -0.789   0.450   0.602  -0.014
 -0.789   0.219  -0.094  -0.117   0.003
  0.450  -0.094   0.074   0.059  -0.001
  0.602  -0.117   0.059   0.105  -0.001
 -0.014   0.003  -0.001  -0.001   0.044


------------------------ aborting loop because EDIFF is reached ----------------------------------------



 DIPCOR: dipole corrections for dipol
 direction  1 min pos   502, direction  2 min pos   527, direction  3 min pos   455,
 dipolmoment          -0.292411      0.641570      0.008580 electrons x Angstroem
 Tr[quadrupol]         8.154133

 energy correction for charged system         0.000000 eV
 dipol+quadrupol energy correction            0.000350 eV
 added-field ion interaction          0.000000 eV  (added to PSCEN)

 
  *************** adding dipol energy to TOTEN NOW **************** 
    CHARGE:  cpu time    3.0405: real time    3.0451
    FORLOC:  cpu time    0.9811: real time    0.9824
    FORNL :  cpu time    0.2886: real time    0.2890
    STRESS:  cpu time    4.3012: real time    4.3079
    FORCOR:  cpu time   22.4956: real time   22.5271
    FORHAR:  cpu time    6.6466: real time    6.6567
    MIXING:  cpu time    1.2892: real time    1.2914
    OFIELD:  cpu time    0.0000: real time    0.0000

  FORCE on cell =-STRESS in cart. coord.  units (eV):
  Direction    XX          YY          ZZ          XY          YZ          ZX
  --------------------------------------------------------------------------------------
  Alpha Z     0.02092     0.02092     0.02092
  Ewald      39.76858   303.17770    71.72940    30.99148    -0.62670    -4.29181
  Hartree   335.11860   526.39060   340.35815     8.36402    -0.05886    -0.75335
  E(xc)     -72.65629   -72.31959   -72.54123     0.09325    -0.00234    -0.01759
  Local    -566.32806  -997.05943  -594.40428   -31.94157     0.49668     3.75680
  n-local   -61.87371   -61.99189   -61.37829     0.41358    -0.01275    -0.01248
  augment    14.56329    12.95075    13.98396    -0.47343     0.01188     0.08579
  Kinetic   311.84834   289.59223   302.92870    -7.27738     0.18773     1.20931
  Fock        0.00000     0.00000     0.00000     0.00000     0.00000     0.00000
  -------------------------------------------------------------------------------------
  Total       0.46166     0.76129     0.69733     0.16995    -0.00436    -0.02332
  in kB       0.01725     0.02845     0.02606     0.00635    -0.00016    -0.00087
  external pressure =        0.02 kB  Pullay stress =        0.00 kB


 VOLUME and BASIS-vectors are now :
 -----------------------------------------------------------------------------
  energy-cutoff  :     1600.00
  volume of cell :    42875.00
      direct lattice vectors                 reciprocal lattice vectors
    35.000000000  0.000000000  0.000000000     0.028571429  0.000000000  0.000000000
     0.000000000 35.000000000  0.000000000     0.000000000  0.028571429  0.000000000
     0.000000000  0.000000000 35.000000000     0.000000000  0.000000000  0.028571429

  length of vectors
    35.000000000 35.000000000 35.000000000     0.028571429  0.028571429  0.028571429


 FORCES acting on ions
    electron-ion (+dipol)            ewald-force                    non-local-force                 convergence-correction
 -----------------------------------------------------------------------------------------------
   -.159E+01 0.554E+02 0.733E+02   0.176E+01 -.607E+02 -.808E+02   -.159E+00 0.505E+01 0.701E+01   -.102E-06 -.131E-05 -.162E-05
   0.139E+01 0.563E+02 -.727E+02   -.153E+01 -.617E+02 0.801E+02   0.126E+00 0.514E+01 -.696E+01   -.168E-06 -.137E-05 0.162E-05
   0.561E+01 0.824E+02 0.401E-01   -.618E+01 -.916E+02 -.444E-01   0.490E+00 0.865E+01 0.531E-02   -.140E-06 0.114E-05 0.985E-08
   -.870E+02 -.269E+02 0.174E+01   0.958E+02 0.292E+02 -.192E+01   -.835E+01 -.217E+01 0.168E+00   -.141E-05 -.578E-06 0.309E-07
   0.954E+00 -.359E+02 -.370E+00   -.122E+01 0.858E+02 0.658E+00   0.273E+00 -.493E+02 -.286E+00   -.669E-06 -.103E-05 -.670E-06
   0.499E+02 -.674E+02 -.112E+01   -.887E+02 0.990E+02 0.197E+01   0.384E+02 -.312E+02 -.845E+00   0.123E-06 -.264E-05 0.793E-07
 -----------------------------------------------------------------------------------------------
   -.308E+02 0.639E+02 0.899E+00   0.000E+00 0.284E-13 0.844E-14   0.308E+02 -.639E+02 -.899E+00   -.236E-05 -.579E-05 -.556E-06
 
 
 POSITION                                       TOTAL-FORCE (eV/Angst)
 -----------------------------------------------------------------------------------
      0.01761      0.64046     34.23865         0.006273     -0.266143     -0.462600
     34.98662      0.63163      0.75455        -0.012384     -0.270924      0.459735
      0.02409      5.22692      0.00129        -0.084243     -0.571818      0.001035
      0.98480      6.39983     34.98366         0.492586      0.169852     -0.009623
      0.00000      1.22721      0.00000         0.009854      0.564998      0.002629
      0.04724      6.18801      0.00253        -0.412086      0.374035      0.008825
 -----------------------------------------------------------------------------------
    total drift:                                0.000103     -0.000157      0.000048


--------------------------------------------------------------------------------------------------------



  FREE ENERGIE OF THE ION-ELECTRON SYSTEM (eV)
  ---------------------------------------------------
  free  energy   TOTEN  =       -28.51751884 eV

  energy  without entropy=      -28.51751884  energy(sigma->0) =      -28.51751884
 


--------------------------------------------------------------------------------------------------------


    POTLOK:  cpu time   23.3419: real time   23.3766


--------------------------------------------------------------------------------------------------------


 writing wavefunctions
     LOOP+:  cpu time 1754.2073: real time 1761.3640
    4ORBIT:  cpu time    0.0000: real time    0.0000

 total amount of memory used by VASP MPI-rank0  3455162. kBytes
=======================================================================

   base      :      30000. kBytes
   nonl-proj :      87230. kBytes
   fftplans  :    1215227. kBytes
   grid      :    2104012. kBytes
   one-center:          1. kBytes
   wavefun   :      18692. kBytes
 
  
  
 General timing and accounting informations for this job:
 ========================================================
  
                  Total CPU time used (sec):     2590.619
                            User time (sec):     2508.909
                          System time (sec):       81.710
                         Elapsed time (sec):     2613.628
  
                   Maximum memory used (kb):     4264060.
                   Average memory used (kb):           0.
  
                          Minor page faults:     49055025
                          Major page faults:          291
                 Voluntary context switches:        35962
