
 Primary working directories    : /scratch/sirous/43272/molpro.T0rs480kOl
 Secondary working directories  : /scratch/sirous/43272/molpro.T0rs480kOl
 Wavefunction directory         : /scratch/sirous/43272/
 Main file repository           : /scratch/sirous/43272/molpro.T0rs480kOl/

 id        : karlovklimes

 Nodes                      nprocs
 nc-19.cc.karlov.mff.cuni.cz    4

 Using customized tuning parameters: mindgm=1; mindgv=20; mindgc=4; mindgr=1; noblas=0; minvec=7
 default implementation of scratch files=sf  


 Variables initialized (934), CPU time= 0.01 sec
 ***,CH3C6H4CN+CF3CN+BF3
 memory,500,m
 gdirect
 gthresh,energy=1.d-8,twoint=1.d-19,oneint=1.d-19,zero=1.d-15,orbital=1.d-8,grid=1.d-8
 symmetry,nosym
 geomtyp=xyz
                                                                                 ! Geometry
 geometry={
 O1        -0.525329794    -0.050971084     -0.314516861
 H1        -0.942006633    0.747901631     0.011252816
 H2        0.403696525    0.059785981     -0.073568368
 O2        2.0668459386481373    0.047366171396874414     0.052868861665258074
 H3        2.434828762648137    -0.5247112316031256     0.7303971886652582
 C1        2.5318510096481375    -0.42426374460312555     -1.209290248334742
 H4        2.1010339146481374    0.2268299463968744     -1.962404280334742
 H5        3.6178146966481375    -0.3734708836031256     -1.283602176334742
 H6        2.2035083916481373    -1.4441332416031256     -1.408370882334742
 }
 
 
 
 basis=avdz
 
 
 
                                                                                 ! Dimer Calculation
 {rks,pbe,accu=1.d-8;orbital,2101.2}
 eab_PBE=energy
 
 
                                                                                 !monomer A
 dummy,4,5,6,7,8,9;                                                              ! NOW MONOMER B IS DUMMY
 {rks,pbe,accu=1.d-8;orbital,2201.2}
 ea_PBE=energy
                                                                                 !monomer B
 dummy,1,2,3;                                                                    !NOW MONOMER A IS DUMMY
 {rks,pbe,accu=1.d-8;orbital,2301.2}
 eb_PBE=energy
 
 E_AB_int=eab_PBE-ea_PBE-eb_PBE
 
 
 text,results in hartree
 show,E_AB_int
 
 Commands  initialized (763), CPU time= 0.01 sec, 617 directives.
 Default parameters read. Elapsed time= 0.21 sec

 Checking input...
 Passed
1


                                         ***  PROGRAM SYSTEM MOLPRO  ***
                                       Copyright, TTI GmbH Stuttgart, 2015
                                    Version 2019.2 linked Jun  8 2019 11:26:33


 **********************************************************************************************************************************
 LABEL *   CH3C6H4CN+CF3CN+BF3                                                           
  64 bit mpp version                                                                     DATE: 06-Oct-19          TIME: 19:29:08  
 **********************************************************************************************************************************

 SHA1:             8135a10abc80eafa5b3ae28ffc55be4890dc4c84
 **********************************************************************************************************************************

 THRESHOLDS:

 ZERO    =  1.00D-15  ONEINT  =  1.00D-19  TWOINT  =  1.00D-19  PREFAC  =  1.00D-14  XXXXXX  =  1.00D-09  EORDER  =  1.00D-04
 ENERGY  =  1.00D-08  ETEST   =  0.00D+00  EDENS   =  0.00D+00  THRDEDEF=  1.00D-06  GRADIENT=  1.00D-02  STEP    =  1.00D-03
 ORBITAL =  1.00D-08  CIVEC   =  1.00D-05  COEFF   =  1.00D-04  PRINTCI =  5.00D-02  PUNCHCI =  9.90D+01  OPTGRAD =  3.00D-04
 OPTENERG=  1.00D-06  OPTSTEP =  3.00D-04  THRGRAD =  1.00D-10  COMPRESS=  1.00D-11  VARMIN  =  1.00D-07  VARMAX  =  1.00D-03
 THRDOUB =  0.00D+00  THRDIV  =  1.00D-05  THRRED  =  1.00D-07  THRPSP  =  1.00D+00  THRDC   =  1.00D-10  THRCS   =  1.00D-10
 THRNRM  =  1.00D-08  THREQ   =  0.00D+00  THRDE   =  1.00D+00  THRREF  =  1.00D-05  SPARFAC =  1.00D+00  THRDLP  =  1.00D-07
 THRDIA  =  1.00D-10  THRDLS  =  1.00D-07  THRGPS  =  0.00D+00  THRKEX  =  0.00D+00  THRDIS  =  2.00D-01  THRVAR  =  1.00D-10
 THRLOC  =  1.00D-06  THRGAP  =  1.00D-06  THRLOCT = -1.00D+00  THRGAPT = -1.00D+00  THRORB  =  1.00D-06  THRMLTP =  0.00D+00
 THRCPQCI=  1.00D-10  KEXTA   =  0.00D+00  THRCOARS=  0.00D+00  SYMTOL  =  1.00D-06  GRADTOL =  1.00D-06  THROVL  =  1.00D-08
 THRORTH =  1.00D-08  GRID    =  1.00D-08  GRIDMAX =  1.00D-03  DTMAX   =  0.00D+00  THROCCDE=  1.00D-01  THROCCDE=  1.00D-01
 THRPRINT=  2.50D-01


 Variable memory set to  500000000 words,  buffer space 

 SETTING GEOMTYP        =    XYZ
 ZSYMEL=NOSYM

 SETTING BASIS          =    AVDZ


 Recomputing integrals since basis changed


 Using spherical harmonics

 Library entry O      S aug-cc-pVDZ          selected for orbital group  1
 Library entry O      P aug-cc-pVDZ          selected for orbital group  1
 Library entry O      D aug-cc-pVDZ          selected for orbital group  1
 Library entry H      S aug-cc-pVDZ          selected for orbital group  2
 Library entry H      P aug-cc-pVDZ          selected for orbital group  2
 Library entry C      S aug-cc-pVDZ          selected for orbital group  5
 Library entry C      P aug-cc-pVDZ          selected for orbital group  5
 Library entry C      D aug-cc-pVDZ          selected for orbital group  5


 PROGRAM * SEWARD (Integral evaluation for generally contracted gaussian basis sets)     Author: Roland Lindh, 1990

 Geometry written to block  1 of record 700


 Point group  C1  



 ATOMIC COORDINATES

 NR  ATOM    CHARGE       X              Y              Z

   1  O1      8.00   -0.992729436   -0.096321389   -0.594350729
   2  H1      1.00   -1.780134544    1.413329251    0.021264740
   3  H2      1.00    0.762875870    0.112979130   -0.139024067
   4  O2      8.00    3.905772766    0.089509092    0.099907669
   5  H3      1.00    4.601159522   -0.991560522    1.380250649
   6  C1      6.00    4.784504996   -0.801742282   -2.285227374
   7  H4      1.00    3.970378677    0.428646476   -3.708406636
   8  H5      1.00    6.836678946   -0.705757686   -2.425656566
   9  H6      1.00    4.164027373   -2.729016314   -2.661435249

 Bond lengths in Bohr (Angstrom)

 1-2  1.810534248  1-3  1.825726996  4-5  1.814263596  4-6  2.693579128  6-7  2.049901795
     ( 0.958093464)     ( 0.966133120)     ( 0.960066950)     ( 1.425380690)     ( 1.084761314)

 6-8  2.059211335  6-9  2.059346994
     ( 1.089687711)     ( 1.089759498)

 Bond angles

  2-1-3  103.75741034   4-6-7  106.65459099   4-6-8  111.72059382   4-6-9  111.90879545

  5-4-6  107.61952492   7-6-8  108.69153234   7-6-9  108.37480423   8-6-9  109.35579191

 NUCLEAR CHARGE:                   28
 NUMBER OF PRIMITIVE AOS:         177
 NUMBER OF SYMMETRY AOS:          171
 NUMBER OF CONTRACTIONS:          123   (  123A   )
 NUMBER OF CORE ORBITALS:           3   (    3A   )
 NUMBER OF VALENCE ORBITALS:       18   (   18A   )


 NUCLEAR REPULSION ENERGY   82.61560115


 Eigenvalues of metric

         1 0.505E-03 0.522E-03 0.668E-03 0.770E-03 0.122E-02 0.182E-02 0.225E-02 0.293E-02


 OPERATOR DM      FOR CENTER  0  COORDINATES:    0.000000    0.000000    0.000000


 **********************************************************************************************************************************
 DATASETS  * FILE   NREC   LENGTH (MB)   RECORD NAMES
              1      18       30.67       500      610      700      900      950      970     1000      129      960     1100   
                                          VAR    BASINP    GEOM    SYMINP    ZMAT    AOBASIS   BASIS     P2S    ABASIS      S 
                                         1400     1410     1200     1210     1080     1600     1650     1700   
                                           T        V       H0       H01     AOSYM     SMH    MOLCAS    OPER   

 PROGRAMS   *        TOTAL       INT
 CPU TIMES  *         0.61      0.44
 REAL TIME  *         1.76 SEC
 DISK USED  *        31.10 MB (local),      124.39 MB (total)
 GA USED    *         0.00 MB       (max)       0.00 MB       (current)
 **********************************************************************************************************************************

 Density functional group PBE=PBEX+PBEC
 Functional: PBEX(Automatically generated (new) PBEX)                          Gradient terms: 1
 Functional: PBEC(Automatically generated (new) PBEC)                          Gradient terms: 1
 Use libxcgrid:  F
 Use grid at  1800.2

 Functional: PBEX                      Factor:  1.0000
 Functional: PBEC                      Factor:  1.0000

 Generated new metagrid on record  1800.2 with target accuracy 1.0D-08 and 79408 points in CPU time    0.3
 Computed new grid on record 1800.1 in CPU time    0.3
  101847 words reserved for DFT integration

 PROGRAM * RKS-SCF (Restricted closed shell Kohn-Sham)     Authors: W. Meyer, H.-J. Werner, P.J. Knowles, 1993

 NUMBER OF ELECTRONS:      14+   14-    SPACE SYMMETRY=1    SPIN SYMMETRY: Singlet 
 CONVERGENCE THRESHOLDS:    1.00E-04 (Density)    1.00E-08 (Energy)
 INTEGRAL THRESHOLDS:       1.00E-11 (Initial)    1.00E-11 (Final)
 MAX. NUMBER OF ITERATIONS:       60
 INTERPOLATION TYPE:            DIIS
 INTERPOLATION STEPS:              2 (START)      1 (STEP)
 LEVEL SHIFTS:                  0.00 (CLOSED)  0.00 (OPEN) 



 Use fine grid record 1800.2 for energy threshold  1.0D-08
 Orbital guess generated from atomic densities. Full valence occupancy:   21

 Molecular orbital dump at record        2101.2

 Initial occupancy:  14

 Direct Fock-matrix evaluation.        Authors: Roland Lindh & Martin Schuetz (1993/96)

 Integral Threshold:                  0.1D-10
 Threshold for writing integrals:     0.1D-06
 Prescreening on density matrix:        ON 
 Calculation will be performed fully direct        

 ITERATION   DDIFF            GRAD            ENERGY        2-EL.EN.            DIPOLE MOMENTS         DIIS   CPU(IT)  CPU(TOT)
    1      0.000D+00      0.000D+00      -191.81073803    362.419732    1.32834    0.05609    0.47414    0      3.1      5.5     start
    2      0.000D+00      0.108D-01      -191.33767185    330.670946    0.41469   -0.29475   -0.35848    1      1.9      7.4     diag
    3      0.323D-01      0.221D-01      -191.95582577    351.923123    1.11487    0.07035    0.20175    2      1.8      9.2     diag
    4      0.214D-01      0.236D-02      -191.96260624    352.201417    1.06021   -0.03466    0.21264    3      1.9     11.1     diag
    5      0.365D-02      0.921D-03      -191.96367261    351.661729    1.05371    0.00802    0.23059    4      1.8     12.9     diag
    6      0.117D-02      0.281D-03      -191.96374968    351.778457    1.05900   -0.00721    0.21410    5      2.4     15.3     diag
    7      0.326D-03      0.135D-03      -191.96377015    351.776133    1.05840   -0.00250    0.21706    6      1.9     17.2     diag
    8      0.125D-03      0.161D-04      -191.96377046    351.785512    1.05893   -0.00282    0.21724    7      1.9     19.1     diag
    9      0.161D-04      0.249D-05      -191.96377047    351.786727    1.05899   -0.00255    0.21737    8      1.9     20.9     diag
   10      0.296D-05      0.317D-06      -191.96377047    351.787122    1.05897   -0.00259    0.21734    0      1.8     22.8     orth

 Final occupancy:  14

 !RKS STATE  1.1 Energy              -191.963770466807
 Nuclear energy                        82.61560115
 One-electron energy                 -425.86437660
 Two-electron energy                  175.89356097
 Density functional                   -24.60855599     PBEX=-23.69284281 PBEC= -0.91571318
 Virial quotient                       -1.00528717
 !RKS STATE  1.1 Dipole moment          1.05897416    -0.00258986     0.21734452
 Dipole moment /Debye                   2.69146755    -0.00658233     0.55239849

 Orbital energies:

         1.1          2.1          3.1          4.1          5.1          6.1          7.1          8.1          9.1         10.1
    -18.804419   -18.736334    -9.947511    -0.970679    -0.894811    -0.640077    -0.489875    -0.455119    -0.406010    -0.398267

        11.1         12.1         13.1         14.1         15.1         16.1
     -0.330594    -0.300574    -0.256646    -0.231645    -0.035296    -0.005664


 HOMO     14.1    -0.231645 =      -6.3034eV
 LUMO     15.1    -0.035296 =      -0.9605eV
 LUMO-HOMO         0.196349 =       5.3429eV


 **********************************************************************************************************************************
 DATASETS  * FILE   NREC   LENGTH (MB)   RECORD NAMES
              1      19       30.67       500      610      700      900      950      970     1000      129      960     1100   
                                          VAR    BASINP    GEOM    SYMINP    ZMAT    AOBASIS   BASIS     P2S    ABASIS      S 
                                         1400     1410     1200     1210     1080     1600     1650     1700     1800   
                                           T        V       H0       H01     AOSYM     SMH    MOLCAS    OPER     GRID   

              2       5        3.21       700     1000      520     1800     2101   
                                         GEOM     BASIS   MCVARS    GRID      RKS  

 PROGRAMS   *        TOTAL   RKS-SCF       INT
 CPU TIMES  *        23.73     23.12      0.44
 REAL TIME  *        26.10 SEC
 DISK USED  *        34.97 MB (local),      139.87 MB (total)
 SF USED    *         0.18 MB
 GA USED    *         2.61 MB       (max)       2.61 MB       (current)
 **********************************************************************************************************************************
 SETTING EAB_PBE        =      -191.96377047  AU                              

 Dummy atoms: O2  H3  C1  H4  H5  H6


 Recomputing one-electron integrals since nuclear charges changed


 PROGRAM * SEWARD (Integral evaluation for generally contracted gaussian basis sets)     Author: Roland Lindh, 1990

 Geometry written to block  1 of record 700


 Point group  C1  



 ATOMIC COORDINATES

 NR  ATOM    CHARGE       X              Y              Z

   1  O1      8.00   -0.992729436   -0.096321389   -0.594350729
   2  H1      1.00   -1.780134544    1.413329251    0.021264740
   3  H2      1.00    0.762875870    0.112979130   -0.139024067
   4  O2      0.00    3.905772766    0.089509092    0.099907669
   5  H3      0.00    4.601159522   -0.991560522    1.380250649
   6  C1      0.00    4.784504996   -0.801742282   -2.285227374
   7  H4      0.00    3.970378677    0.428646476   -3.708406636
   8  H5      0.00    6.836678946   -0.705757686   -2.425656566
   9  H6      0.00    4.164027373   -2.729016314   -2.661435249

 Bond lengths in Bohr (Angstrom)

 1-2  1.810534248  1-3  1.825726996  4-5  1.814263596  4-6  2.693579128  6-7  2.049901795
     ( 0.958093464)     ( 0.966133120)     ( 0.960066950)     ( 1.425380690)     ( 1.084761314)

 6-8  2.059211335  6-9  2.059346994
     ( 1.089687711)     ( 1.089759498)

 Bond angles

  2-1-3  103.75741034   4-6-7  106.65459099   4-6-8  111.72059382   4-6-9  111.90879545

  5-4-6  107.61952492   7-6-8  108.69153234   7-6-9  108.37480423   8-6-9  109.35579191

 NUCLEAR CHARGE:                   10
 NUMBER OF PRIMITIVE AOS:         177
 NUMBER OF SYMMETRY AOS:          171
 NUMBER OF CONTRACTIONS:          123   (  123A   )
 NUMBER OF CORE ORBITALS:           1   (    1A   )
 NUMBER OF VALENCE ORBITALS:        6   (    6A   )

 MOLECULE CHANGED: INITIALIZING OCCUPATION AND DUMP RECORDS


 NUCLEAR REPULSION ENERGY    9.14996834


 Eigenvalues of metric

         1 0.505E-03 0.522E-03 0.668E-03 0.770E-03 0.122E-02 0.182E-02 0.225E-02 0.293E-02


 OPERATOR DM      FOR CENTER  0  COORDINATES:    0.000000    0.000000    0.000000


 **********************************************************************************************************************************
 DATASETS  * FILE   NREC   LENGTH (MB)   RECORD NAMES
              1      19       30.67       500      610      700      900      950      970     1000      129      960     1100   
                                          VAR    BASINP    GEOM    SYMINP    ZMAT    AOBASIS   BASIS     P2S    ABASIS      S 
                                         1400     1410     1200     1210     1080     1600     1650     1700     1800   
                                           T        V       H0       H01     AOSYM     SMH    MOLCAS    OPER     GRID   

              2       5        3.21       700     1000      520     1800     2101   
                                         GEOM     BASIS   MCVARS    GRID      RKS  

 PROGRAMS   *        TOTAL       INT   RKS-SCF       INT
 CPU TIMES  *        23.83      0.09     23.12      0.44
 REAL TIME  *        26.34 SEC
 DISK USED  *        34.97 MB (local),      139.87 MB (total)
 SF USED    *         0.18 MB
 GA USED    *         2.61 MB       (max)       2.61 MB       (current)
 **********************************************************************************************************************************

 Density functional group PBE=PBEX+PBEC
 Functional: PBEX(Automatically generated (new) PBEX)                          Gradient terms: 1
 Functional: PBEC(Automatically generated (new) PBEC)                          Gradient terms: 1
 Use libxcgrid:  F
 Use grid at  1800.2

 Functional: PBEX                      Factor:  1.0000
 Functional: PBEC                      Factor:  1.0000

 Generated new metagrid on record  1800.2 with target accuracy 1.0D-08 and 79408 points in CPU time    0.3
 Computed new grid on record 1800.1 in CPU time    0.3
  101847 words reserved for DFT integration

 PROGRAM * RKS-SCF (Restricted closed shell Kohn-Sham)     Authors: W. Meyer, H.-J. Werner, P.J. Knowles, 1993

 NUMBER OF ELECTRONS:       5+    5-    SPACE SYMMETRY=1    SPIN SYMMETRY: Singlet 
 CONVERGENCE THRESHOLDS:    1.00E-04 (Density)    1.00E-08 (Energy)
 INTEGRAL THRESHOLDS:       1.00E-11 (Initial)    1.00E-11 (Final)
 MAX. NUMBER OF ITERATIONS:       60
 INTERPOLATION TYPE:            DIIS
 INTERPOLATION STEPS:              2 (START)      1 (STEP)
 LEVEL SHIFTS:                  0.00 (CLOSED)  0.00 (OPEN) 



 Use fine grid record 1800.2 for energy threshold  1.0D-08
 Orbital guess generated from atomic densities. Full valence occupancy:    7

 Molecular orbital dump at record        2201.2

 Initial occupancy:   5

 Direct Fock-matrix evaluation.        Authors: Roland Lindh & Martin Schuetz (1993/96)

 Integral Threshold:                  0.1D-10
 Threshold for writing integrals:     0.1D-06
 Prescreening on density matrix:        ON 
 Calculation will be performed fully direct        

 ITERATION   DDIFF            GRAD            ENERGY        2-EL.EN.            DIPOLE MOMENTS         DIIS   CPU(IT)  CPU(TOT)
    1      0.000D+00      0.000D+00       -76.28445417     97.661365    0.47441    0.83658    0.52196    0      3.2      6.1     start
    2      0.000D+00      0.128D-01       -75.96272624     82.657283   -0.17304   -0.23672   -0.14908    1      1.9      8.0     diag
    3      0.216D-01      0.289D-01       -76.35925694     93.303643    0.31422    0.55889    0.34798    2      1.9      9.9     diag
    4      0.148D-01      0.557D-03       -76.35945528     93.030293    0.30673    0.54799    0.34087    3      1.9     11.8     diag
    5      0.455D-03      0.144D-03       -76.35946368     93.062177    0.30561    0.54530    0.33928    4      1.8     13.6     diag
    6      0.767D-04      0.379D-04       -76.35946437     93.073826    0.30635    0.54672    0.34016    5      1.8     15.4     diag
    7      0.215D-04      0.141D-05       -76.35946437     93.074273    0.30638    0.54671    0.34016    6      1.8     17.2     diag
    8      0.845D-06      0.173D-06       -76.35946437     93.074375    0.30637    0.54673    0.34017    0      1.8     19.1     orth

 Final occupancy:   5

 !RKS STATE  1.1 Energy               -76.359464373154
 Nuclear energy                         9.14996834
 One-electron energy                 -122.81873668
 Two-electron energy                   46.53718730
 Density functional                    -9.22788334     PBEX=-8.90247611 PBEC=-0.32540723
 Virial quotient                       -1.00566085
 !RKS STATE  1.1 Dipole moment          0.30636549     0.54672877     0.34016517
 Dipole moment /Debye                   0.77865240     1.38955491     0.86455699

 Orbital energies:

         1.1          2.1          3.1          4.1          5.1          6.1          7.1
    -18.779525    -0.934044    -0.483418    -0.344580    -0.265433    -0.035125     0.015945


 HOMO      5.1    -0.265433 =      -7.2228eV
 LUMO      6.1    -0.035125 =      -0.9558eV
 LUMO-HOMO         0.230307 =       6.2670eV


 **********************************************************************************************************************************
 DATASETS  * FILE   NREC   LENGTH (MB)   RECORD NAMES
              1      19       30.67       500      610      700      900      950      970     1000      129      960     1100   
                                          VAR    BASINP    GEOM    SYMINP    ZMAT    AOBASIS   BASIS     P2S    ABASIS      S 
                                         1400     1410     1200     1210     1080     1600     1650     1700     1800   
                                           T        V       H0       H01     AOSYM     SMH    MOLCAS    OPER     GRID   

              2       6        6.31       700     1000      520     1800     2101     2201   
                                         GEOM     BASIS   MCVARS    GRID      RKS      RKS  

 PROGRAMS   *        TOTAL   RKS-SCF       INT   RKS-SCF       INT
 CPU TIMES  *        43.26     19.43      0.09     23.12      0.44
 REAL TIME  *        45.91 SEC
 DISK USED  *        37.95 MB (local),      151.78 MB (total)
 SF USED    *         0.18 MB
 GA USED    *         2.61 MB       (max)       2.61 MB       (current)
 **********************************************************************************************************************************
 SETTING EA_PBE         =       -76.35946437  AU                              

 Dummy atoms: O1  H1  H2


 Recomputing one-electron integrals since nuclear charges changed


 PROGRAM * SEWARD (Integral evaluation for generally contracted gaussian basis sets)     Author: Roland Lindh, 1990

 Geometry written to block  1 of record 700


 Point group  C1  



 ATOMIC COORDINATES

 NR  ATOM    CHARGE       X              Y              Z

   1  O1      0.00   -0.992729436   -0.096321389   -0.594350729
   2  H1      0.00   -1.780134544    1.413329251    0.021264740
   3  H2      0.00    0.762875870    0.112979130   -0.139024067
   4  O2      8.00    3.905772766    0.089509092    0.099907669
   5  H3      1.00    4.601159522   -0.991560522    1.380250649
   6  C1      6.00    4.784504996   -0.801742282   -2.285227374
   7  H4      1.00    3.970378677    0.428646476   -3.708406636
   8  H5      1.00    6.836678946   -0.705757686   -2.425656566
   9  H6      1.00    4.164027373   -2.729016314   -2.661435249

 Bond lengths in Bohr (Angstrom)

 1-2  1.810534248  1-3  1.825726996  4-5  1.814263596  4-6  2.693579128  6-7  2.049901795
     ( 0.958093464)     ( 0.966133120)     ( 0.960066950)     ( 1.425380690)     ( 1.084761314)

 6-8  2.059211335  6-9  2.059346994
     ( 1.089687711)     ( 1.089759498)

 Bond angles

  2-1-3  103.75741034   4-6-7  106.65459099   4-6-8  111.72059382   4-6-9  111.90879545

  5-4-6  107.61952492   7-6-8  108.69153234   7-6-9  108.37480423   8-6-9  109.35579191

 NUCLEAR CHARGE:                   18
 NUMBER OF PRIMITIVE AOS:         177
 NUMBER OF SYMMETRY AOS:          171
 NUMBER OF CONTRACTIONS:          123   (  123A   )
 NUMBER OF CORE ORBITALS:           2   (    2A   )
 NUMBER OF VALENCE ORBITALS:       12   (   12A   )

 MOLECULE CHANGED: INITIALIZING OCCUPATION AND DUMP RECORDS


 NUCLEAR REPULSION ENERGY   40.29463209


 Eigenvalues of metric

         1 0.505E-03 0.522E-03 0.668E-03 0.770E-03 0.122E-02 0.182E-02 0.225E-02 0.293E-02


 OPERATOR DM      FOR CENTER  0  COORDINATES:    0.000000    0.000000    0.000000


 **********************************************************************************************************************************
 DATASETS  * FILE   NREC   LENGTH (MB)   RECORD NAMES
              1      19       30.67       500      610      700      900      950      970     1000      129      960     1100   
                                          VAR    BASINP    GEOM    SYMINP    ZMAT    AOBASIS   BASIS     P2S    ABASIS      S 
                                         1400     1410     1200     1210     1080     1600     1650     1700     1800   
                                           T        V       H0       H01     AOSYM     SMH    MOLCAS    OPER     GRID   

              2       6        6.31       700     1000      520     1800     2101     2201   
                                         GEOM     BASIS   MCVARS    GRID      RKS      RKS  

 PROGRAMS   *        TOTAL       INT   RKS-SCF       INT   RKS-SCF       INT
 CPU TIMES  *        43.32      0.05     19.43      0.09     23.12      0.44
 REAL TIME  *        46.07 SEC
 DISK USED  *        37.95 MB (local),      151.78 MB (total)
 SF USED    *         0.18 MB
 GA USED    *         2.61 MB       (max)       2.61 MB       (current)
 **********************************************************************************************************************************

 Density functional group PBE=PBEX+PBEC
 Functional: PBEX(Automatically generated (new) PBEX)                          Gradient terms: 1
 Functional: PBEC(Automatically generated (new) PBEC)                          Gradient terms: 1
 Use libxcgrid:  F
 Use grid at  1800.2

 Functional: PBEX                      Factor:  1.0000
 Functional: PBEC                      Factor:  1.0000

 Generated new metagrid on record  1800.2 with target accuracy 1.0D-08 and 79408 points in CPU time    0.3
 Computed new grid on record 1800.1 in CPU time    0.3
  101847 words reserved for DFT integration

 PROGRAM * RKS-SCF (Restricted closed shell Kohn-Sham)     Authors: W. Meyer, H.-J. Werner, P.J. Knowles, 1993

 NUMBER OF ELECTRONS:       9+    9-    SPACE SYMMETRY=1    SPIN SYMMETRY: Singlet 
 CONVERGENCE THRESHOLDS:    1.00E-04 (Density)    1.00E-08 (Energy)
 INTEGRAL THRESHOLDS:       1.00E-11 (Initial)    1.00E-11 (Final)
 MAX. NUMBER OF ITERATIONS:       60
 INTERPOLATION TYPE:            DIIS
 INTERPOLATION STEPS:              2 (START)      1 (STEP)
 LEVEL SHIFTS:                  0.00 (CLOSED)  0.00 (OPEN) 



 Use fine grid record 1800.2 for energy threshold  1.0D-08
 Orbital guess generated from atomic densities. Full valence occupancy:   14

 Molecular orbital dump at record        2301.2

 Initial occupancy:   9

 Direct Fock-matrix evaluation.        Authors: Roland Lindh & Martin Schuetz (1993/96)

 Integral Threshold:                  0.1D-10
 Threshold for writing integrals:     0.1D-06
 Prescreening on density matrix:        ON 
 Calculation will be performed fully direct        

 ITERATION   DDIFF            GRAD            ENERGY        2-EL.EN.            DIPOLE MOMENTS         DIIS   CPU(IT)  CPU(TOT)
    1      0.000D+00      0.000D+00      -115.51047125    198.850616    0.58314   -0.77373   -0.06599    0      3.0      5.9     start
    2      0.000D+00      0.935D-02      -115.31722968    180.770806   -0.09541    0.13621   -0.05996    1      1.8      7.7     diag
    3      0.243D-01      0.176D-01      -115.59268450    192.736402    0.43061   -0.55979   -0.16307    2      1.8      9.6     diag
    4      0.151D-01      0.250D-02      -115.59774948    192.518126    0.37182   -0.49152   -0.07396    3      1.9     11.4     diag
    5      0.264D-02      0.693D-03      -115.59815302    192.414023    0.37611   -0.49602   -0.08308    4      1.9     13.3     diag
    6      0.655D-03      0.109D-03      -115.59816351    192.437528    0.37649   -0.49628   -0.08592    5      1.9     15.2     diag
    7      0.794D-04      0.140D-04      -115.59816368    192.445297    0.37718   -0.49718   -0.08582    6      1.8     17.0     diag
    8      0.149D-04      0.138D-05      -115.59816369    192.445737    0.37705   -0.49701   -0.08592    7      1.8     18.8     diag
    9      0.227D-05      0.307D-06      -115.59816369    192.445776    0.37709   -0.49707   -0.08588    0      1.7     20.6     orth

 Final occupancy:   9

 !RKS STATE  1.1 Energy              -115.598163686064
 Nuclear energy                        40.29463209
 One-electron energy                 -236.76603872
 Two-electron energy                   96.22288803
 Density functional                   -15.34964509     PBEX=-14.76598838 PBEC= -0.58365671
 Virial quotient                       -1.00572900
 !RKS STATE  1.1 Dipole moment          0.37709410    -0.49707014    -0.08587738
 Dipole moment /Debye                   0.95841483    -1.26334353    -0.21826423

 Orbital energies:

         1.1          2.1          3.1          4.1          5.1          6.1          7.1          8.1          9.1         10.1
    -18.774697    -9.933133    -0.938526    -0.622025    -0.460216    -0.392217    -0.381176    -0.295351    -0.230454    -0.024140

        11.1
     -0.000494


 HOMO      9.1    -0.230454 =      -6.2710eV
 LUMO     10.1    -0.024140 =      -0.6569eV
 LUMO-HOMO         0.206313 =       5.6141eV


 **********************************************************************************************************************************
 DATASETS  * FILE   NREC   LENGTH (MB)   RECORD NAMES
              1      19       30.67       500      610      700      900      950      970     1000      129      960     1100   
                                          VAR    BASINP    GEOM    SYMINP    ZMAT    AOBASIS   BASIS     P2S    ABASIS      S 
                                         1400     1410     1200     1210     1080     1600     1650     1700     1800   
                                           T        V       H0       H01     AOSYM     SMH    MOLCAS    OPER     GRID   

              2       7        9.41       700     1000      520     1800     2101     2201     2301   
                                         GEOM     BASIS   MCVARS    GRID      RKS      RKS      RKS  

 PROGRAMS   *        TOTAL   RKS-SCF       INT   RKS-SCF       INT   RKS-SCF       INT
 CPU TIMES  *        64.26     20.94      0.05     19.43      0.09     23.12      0.44
 REAL TIME  *        67.22 SEC
 DISK USED  *        41.11 MB (local),      164.43 MB (total)
 SF USED    *         0.18 MB
 GA USED    *         2.61 MB       (max)       2.61 MB       (current)
 **********************************************************************************************************************************
 SETTING EB_PBE         =      -115.59816369  AU                              
 SETTING E_AB_INT       =        -0.00614241  AU                              

 *** results in hartree
 E_AB_INT         =        -0.00614241 AU
 Molecular orbitals read from record     2301.2  Type=RKS/CANONICAL (state 1.1)
 Occupation numbers read from record     2301.2  Type=RKS/RHF (state 1.1)
 Orbital energies read from record       2301.2  Type=RKS/CANONICAL (state 1.1)
 Redundancy group numbers read from rec  2301.2  Type=RKS/RHF (state 1.1)

 RPBE/aug-cc-pVDZ energy=   -115.598163686064

         RKS-SCF         RKS-SCF         RKS-SCF
   -115.59816369    -76.35946437   -191.96377047
 **********************************************************************************************************************************
 Molpro calculation terminated
