
 Primary working directories    : /scratch/sirous/43277/molpro.ZEYRhrjFLr
 Secondary working directories  : /scratch/sirous/43277/molpro.ZEYRhrjFLr
 Wavefunction directory         : /scratch/sirous/43277/
 Main file repository           : /scratch/sirous/43277/molpro.ZEYRhrjFLr/

 id        : karlovklimes

 Nodes                      nprocs
 nc-19.cc.karlov.mff.cuni.cz    4

 Using customized tuning parameters: mindgm=1; mindgv=20; mindgc=4; mindgr=1; noblas=0; minvec=7
 default implementation of scratch files=sf  


 Variables initialized (934), CPU time= 0.00 sec
 ***,CH3C6H4CN+CF3CN+BF3
 memory,500,m
 gdirect
 gthresh,energy=1.d-8,twoint=1.d-19,oneint=1.d-19,zero=1.d-15,orbital=1.d-8,grid=1.d-8
 symmetry,nosym
 geomtyp=xyz
                                                                                 ! Geometry
 geometry={
 O1        -0.525329794    -0.050971084     -0.314516861
 H1        -0.942006633    0.747901631     0.011252816
 H2        0.403696525    0.059785981     -0.073568368
 O2        2.7516721678024836    0.04225213380416746     0.10493125044632255
 H3        3.1196549918024834    -0.5298252691958325     0.7824595774463226
 C1        3.216677238802484    -0.4293777821958325     -1.1572278595536776
 H4        2.7858601438024837    0.22171590880416744     -1.9103418915536774
 H5        4.302640925802484    -0.37858492119583254     -1.2315397875536775
 H6        2.8883346208024836    -1.4492472791958326     -1.3563084935536776
 }
 
 
 
 basis=avdz
 
 
 
                                                                                 ! Dimer Calculation
 {rks,pbe,accu=1.d-8;orbital,2101.2}
 eab_PBE=energy
 
 
                                                                                 !monomer A
 dummy,4,5,6,7,8,9;                                                              ! NOW MONOMER B IS DUMMY
 {rks,pbe,accu=1.d-8;orbital,2201.2}
 ea_PBE=energy
                                                                                 !monomer B
 dummy,1,2,3;                                                                    !NOW MONOMER A IS DUMMY
 {rks,pbe,accu=1.d-8;orbital,2301.2}
 eb_PBE=energy
 
 E_AB_int=eab_PBE-ea_PBE-eb_PBE
 
 
 text,results in hartree
 show,E_AB_int
 
 Commands  initialized (763), CPU time= 0.02 sec, 617 directives.
 Default parameters read. Elapsed time= 0.22 sec

 Checking input...
 Passed
1


                                         ***  PROGRAM SYSTEM MOLPRO  ***
                                       Copyright, TTI GmbH Stuttgart, 2015
                                    Version 2019.2 linked Jun  8 2019 11:26:33


 **********************************************************************************************************************************
 LABEL *   CH3C6H4CN+CF3CN+BF3                                                           
  64 bit mpp version                                                                     DATE: 06-Oct-19          TIME: 19:30:05  
 **********************************************************************************************************************************

 SHA1:             8135a10abc80eafa5b3ae28ffc55be4890dc4c84
 **********************************************************************************************************************************

 THRESHOLDS:

 ZERO    =  1.00D-15  ONEINT  =  1.00D-19  TWOINT  =  1.00D-19  PREFAC  =  1.00D-14  XXXXXX  =  1.00D-09  EORDER  =  1.00D-04
 ENERGY  =  1.00D-08  ETEST   =  0.00D+00  EDENS   =  0.00D+00  THRDEDEF=  1.00D-06  GRADIENT=  1.00D-02  STEP    =  1.00D-03
 ORBITAL =  1.00D-08  CIVEC   =  1.00D-05  COEFF   =  1.00D-04  PRINTCI =  5.00D-02  PUNCHCI =  9.90D+01  OPTGRAD =  3.00D-04
 OPTENERG=  1.00D-06  OPTSTEP =  3.00D-04  THRGRAD =  1.00D-10  COMPRESS=  1.00D-11  VARMIN  =  1.00D-07  VARMAX  =  1.00D-03
 THRDOUB =  0.00D+00  THRDIV  =  1.00D-05  THRRED  =  1.00D-07  THRPSP  =  1.00D+00  THRDC   =  1.00D-10  THRCS   =  1.00D-10
 THRNRM  =  1.00D-08  THREQ   =  0.00D+00  THRDE   =  1.00D+00  THRREF  =  1.00D-05  SPARFAC =  1.00D+00  THRDLP  =  1.00D-07
 THRDIA  =  1.00D-10  THRDLS  =  1.00D-07  THRGPS  =  0.00D+00  THRKEX  =  0.00D+00  THRDIS  =  2.00D-01  THRVAR  =  1.00D-10
 THRLOC  =  1.00D-06  THRGAP  =  1.00D-06  THRLOCT = -1.00D+00  THRGAPT = -1.00D+00  THRORB  =  1.00D-06  THRMLTP =  0.00D+00
 THRCPQCI=  1.00D-10  KEXTA   =  0.00D+00  THRCOARS=  0.00D+00  SYMTOL  =  1.00D-06  GRADTOL =  1.00D-06  THROVL  =  1.00D-08
 THRORTH =  1.00D-08  GRID    =  1.00D-08  GRIDMAX =  1.00D-03  DTMAX   =  0.00D+00  THROCCDE=  1.00D-01  THROCCDE=  1.00D-01
 THRPRINT=  2.50D-01


 Variable memory set to  500000000 words,  buffer space 

 SETTING GEOMTYP        =    XYZ
 ZSYMEL=NOSYM

 SETTING BASIS          =    AVDZ


 Recomputing integrals since basis changed


 Using spherical harmonics

 Library entry O      S aug-cc-pVDZ          selected for orbital group  1
 Library entry O      P aug-cc-pVDZ          selected for orbital group  1
 Library entry O      D aug-cc-pVDZ          selected for orbital group  1
 Library entry H      S aug-cc-pVDZ          selected for orbital group  2
 Library entry H      P aug-cc-pVDZ          selected for orbital group  2
 Library entry C      S aug-cc-pVDZ          selected for orbital group  5
 Library entry C      P aug-cc-pVDZ          selected for orbital group  5
 Library entry C      D aug-cc-pVDZ          selected for orbital group  5


 PROGRAM * SEWARD (Integral evaluation for generally contracted gaussian basis sets)     Author: Roland Lindh, 1990

 Geometry written to block  1 of record 700


 Point group  C1  



 ATOMIC COORDINATES

 NR  ATOM    CHARGE       X              Y              Z

   1  O1      8.00   -0.992729436   -0.096321389   -0.594350729
   2  H1      1.00   -1.780134544    1.413329251    0.021264740
   3  H2      1.00    0.762875870    0.112979130   -0.139024067
   4  O2      8.00    5.199906782    0.079844961    0.198291325
   5  H3      1.00    5.895293538   -1.001224653    1.478634305
   6  C1      6.00    6.078639012   -0.811406412   -2.186843718
   7  H4      1.00    5.264512693    0.418982345   -3.610022979
   8  H5      1.00    8.130812962   -0.715421816   -2.327272910
   9  H6      1.00    5.458161389   -2.738680444   -2.563051593

 Bond lengths in Bohr (Angstrom)

 1-2  1.810534248  1-3  1.825726996  4-5  1.814263596  4-6  2.693579128  6-7  2.049901795
     ( 0.958093464)     ( 0.966133120)     ( 0.960066950)     ( 1.425380690)     ( 1.084761314)

 6-8  2.059211335  6-9  2.059346994
     ( 1.089687711)     ( 1.089759498)

 Bond angles

  2-1-3  103.75741034   4-6-7  106.65459099   4-6-8  111.72059382   4-6-9  111.90879545

  5-4-6  107.61952492   7-6-8  108.69153234   7-6-9  108.37480423   8-6-9  109.35579191

 NUCLEAR CHARGE:                   28
 NUMBER OF PRIMITIVE AOS:         177
 NUMBER OF SYMMETRY AOS:          171
 NUMBER OF CONTRACTIONS:          123   (  123A   )
 NUMBER OF CORE ORBITALS:           3   (    3A   )
 NUMBER OF VALENCE ORBITALS:       18   (   18A   )


 NUCLEAR REPULSION ENERGY   76.28143002


 Eigenvalues of metric

         1 0.564E-03 0.583E-03 0.770E-03 0.783E-03 0.164E-02 0.231E-02 0.242E-02 0.345E-02


 OPERATOR DM      FOR CENTER  0  COORDINATES:    0.000000    0.000000    0.000000


 **********************************************************************************************************************************
 DATASETS  * FILE   NREC   LENGTH (MB)   RECORD NAMES
              1      18       30.67       500      610      700      900      950      970     1000      129      960     1100   
                                          VAR    BASINP    GEOM    SYMINP    ZMAT    AOBASIS   BASIS     P2S    ABASIS      S 
                                         1400     1410     1200     1210     1080     1600     1650     1700   
                                           T        V       H0       H01     AOSYM     SMH    MOLCAS    OPER   

 PROGRAMS   *        TOTAL       INT
 CPU TIMES  *         0.54      0.37
 REAL TIME  *         1.84 SEC
 DISK USED  *        31.10 MB (local),      124.39 MB (total)
 GA USED    *         0.00 MB       (max)       0.00 MB       (current)
 **********************************************************************************************************************************

 Density functional group PBE=PBEX+PBEC
 Functional: PBEX(Automatically generated (new) PBEX)                          Gradient terms: 1
 Functional: PBEC(Automatically generated (new) PBEC)                          Gradient terms: 1
 Use libxcgrid:  F
 Use grid at  1800.2

 Functional: PBEX                      Factor:  1.0000
 Functional: PBEC                      Factor:  1.0000

 Generated new metagrid on record  1800.2 with target accuracy 1.0D-08 and 79408 points in CPU time    0.3
 Computed new grid on record 1800.1 in CPU time    0.4
  101847 words reserved for DFT integration

 PROGRAM * RKS-SCF (Restricted closed shell Kohn-Sham)     Authors: W. Meyer, H.-J. Werner, P.J. Knowles, 1993

 NUMBER OF ELECTRONS:      14+   14-    SPACE SYMMETRY=1    SPIN SYMMETRY: Singlet 
 CONVERGENCE THRESHOLDS:    1.00E-04 (Density)    1.00E-08 (Energy)
 INTEGRAL THRESHOLDS:       1.00E-11 (Initial)    1.00E-11 (Final)
 MAX. NUMBER OF ITERATIONS:       60
 INTERPOLATION TYPE:            DIIS
 INTERPOLATION STEPS:              2 (START)      1 (STEP)
 LEVEL SHIFTS:                  0.00 (CLOSED)  0.00 (OPEN) 



 Use fine grid record 1800.2 for energy threshold  1.0D-08
 Orbital guess generated from atomic densities. Full valence occupancy:   21

 Molecular orbital dump at record        2101.2

 Initial occupancy:  14

 Direct Fock-matrix evaluation.        Authors: Roland Lindh & Martin Schuetz (1993/96)

 Integral Threshold:                  0.1D-10
 Threshold for writing integrals:     0.1D-06
 Prescreening on density matrix:        ON 
 Calculation will be performed fully direct        

 ITERATION   DDIFF            GRAD            ENERGY        2-EL.EN.            DIPOLE MOMENTS         DIIS   CPU(IT)  CPU(TOT)
    1      0.000D+00      0.000D+00      -191.80729428    349.899508    1.11650    0.06174    0.45865    0      2.9      5.1     start
    2      0.000D+00      0.109D-01      -191.34247269    317.868152    0.20987   -0.16868   -0.25871    1      1.7      6.8     diag
    3      0.316D-01      0.221D-01      -191.95733027    339.394994    0.89943    0.05625    0.19425    2      1.7      8.6     diag
    4      0.203D-01      0.210D-02      -191.96274770    339.349381    0.85123    0.01313    0.23837    3      1.7     10.2     diag
    5      0.331D-02      0.792D-03      -191.96362472    339.059545    0.85350    0.02367    0.23164    4      1.7     11.9     diag
    6      0.104D-02      0.122D-03      -191.96364350    339.092168    0.85330    0.02476    0.22816    5      1.7     13.6     diag
    7      0.113D-03      0.262D-04      -191.96364385    339.109561    0.85430    0.02258    0.22728    6      1.6     15.3     diag
    8      0.342D-04      0.196D-04      -191.96364429    339.110112    0.85430    0.02358    0.22808    7      1.7     16.9     diag
    9      0.169D-04      0.133D-05      -191.96364430    339.110882    0.85428    0.02373    0.22806    8      1.7     18.6     diag
   10      0.184D-05      0.247D-06      -191.96364430    339.111051    0.85429    0.02367    0.22806    0      1.7     20.3     orth

 Final occupancy:  14

 !RKS STATE  1.1 Energy              -191.963644296960
 Nuclear energy                        76.28143002
 One-electron energy                 -413.21862716
 Two-electron energy                  169.55552531
 Density functional                   -24.58197246     PBEX=-23.67158602 PBEC= -0.91038644
 Virial quotient                       -1.00573622
 !RKS STATE  1.1 Dipole moment          0.85428810     0.02366650     0.22806253
 Dipole moment /Debye                   2.17124155     0.06015031     0.57963916

 Orbital energies:

         1.1          2.1          3.1          4.1          5.1          6.1          7.1          8.1          9.1         10.1
    -18.791221   -18.760477    -9.941798    -0.954071    -0.915145    -0.632183    -0.474074    -0.464200    -0.401987    -0.392864

        11.1         12.1         13.1         14.1         15.1         16.1
     -0.327940    -0.308655    -0.248678    -0.245996    -0.035375    -0.008866


 HOMO     14.1    -0.245996 =      -6.6939eV
 LUMO     15.1    -0.035375 =      -0.9626eV
 LUMO-HOMO         0.210620 =       5.7313eV


 **********************************************************************************************************************************
 DATASETS  * FILE   NREC   LENGTH (MB)   RECORD NAMES
              1      19       30.67       500      610      700      900      950      970     1000      129      960     1100   
                                          VAR    BASINP    GEOM    SYMINP    ZMAT    AOBASIS   BASIS     P2S    ABASIS      S 
                                         1400     1410     1200     1210     1080     1600     1650     1700     1800   
                                           T        V       H0       H01     AOSYM     SMH    MOLCAS    OPER     GRID   

              2       5        3.21       700     1000      520     1800     2101   
                                         GEOM     BASIS   MCVARS    GRID      RKS  

 PROGRAMS   *        TOTAL   RKS-SCF       INT
 CPU TIMES  *        21.23     20.69      0.37
 REAL TIME  *        23.83 SEC
 DISK USED  *        34.97 MB (local),      139.87 MB (total)
 SF USED    *         0.18 MB
 GA USED    *         2.61 MB       (max)       2.61 MB       (current)
 **********************************************************************************************************************************
 SETTING EAB_PBE        =      -191.96364430  AU                              

 Dummy atoms: O2  H3  C1  H4  H5  H6


 Recomputing one-electron integrals since nuclear charges changed


 PROGRAM * SEWARD (Integral evaluation for generally contracted gaussian basis sets)     Author: Roland Lindh, 1990

 Geometry written to block  1 of record 700


 Point group  C1  



 ATOMIC COORDINATES

 NR  ATOM    CHARGE       X              Y              Z

   1  O1      8.00   -0.992729436   -0.096321389   -0.594350729
   2  H1      1.00   -1.780134544    1.413329251    0.021264740
   3  H2      1.00    0.762875870    0.112979130   -0.139024067
   4  O2      0.00    5.199906782    0.079844961    0.198291325
   5  H3      0.00    5.895293538   -1.001224653    1.478634305
   6  C1      0.00    6.078639012   -0.811406412   -2.186843718
   7  H4      0.00    5.264512693    0.418982345   -3.610022979
   8  H5      0.00    8.130812962   -0.715421816   -2.327272910
   9  H6      0.00    5.458161389   -2.738680444   -2.563051593

 Bond lengths in Bohr (Angstrom)

 1-2  1.810534248  1-3  1.825726996  4-5  1.814263596  4-6  2.693579128  6-7  2.049901795
     ( 0.958093464)     ( 0.966133120)     ( 0.960066950)     ( 1.425380690)     ( 1.084761314)

 6-8  2.059211335  6-9  2.059346994
     ( 1.089687711)     ( 1.089759498)

 Bond angles

  2-1-3  103.75741034   4-6-7  106.65459099   4-6-8  111.72059382   4-6-9  111.90879545

  5-4-6  107.61952492   7-6-8  108.69153234   7-6-9  108.37480423   8-6-9  109.35579191

 NUCLEAR CHARGE:                   10
 NUMBER OF PRIMITIVE AOS:         177
 NUMBER OF SYMMETRY AOS:          171
 NUMBER OF CONTRACTIONS:          123   (  123A   )
 NUMBER OF CORE ORBITALS:           1   (    1A   )
 NUMBER OF VALENCE ORBITALS:        6   (    6A   )

 MOLECULE CHANGED: INITIALIZING OCCUPATION AND DUMP RECORDS


 NUCLEAR REPULSION ENERGY    9.14996834


 Eigenvalues of metric

         1 0.564E-03 0.583E-03 0.770E-03 0.783E-03 0.164E-02 0.231E-02 0.242E-02 0.345E-02


 OPERATOR DM      FOR CENTER  0  COORDINATES:    0.000000    0.000000    0.000000


 **********************************************************************************************************************************
 DATASETS  * FILE   NREC   LENGTH (MB)   RECORD NAMES
              1      19       30.67       500      610      700      900      950      970     1000      129      960     1100   
                                          VAR    BASINP    GEOM    SYMINP    ZMAT    AOBASIS   BASIS     P2S    ABASIS      S 
                                         1400     1410     1200     1210     1080     1600     1650     1700     1800   
                                           T        V       H0       H01     AOSYM     SMH    MOLCAS    OPER     GRID   

              2       5        3.21       700     1000      520     1800     2101   
                                         GEOM     BASIS   MCVARS    GRID      RKS  

 PROGRAMS   *        TOTAL       INT   RKS-SCF       INT
 CPU TIMES  *        21.29      0.04     20.69      0.37
 REAL TIME  *        23.99 SEC
 DISK USED  *        34.97 MB (local),      139.87 MB (total)
 SF USED    *         0.18 MB
 GA USED    *         2.61 MB       (max)       2.61 MB       (current)
 **********************************************************************************************************************************

 Density functional group PBE=PBEX+PBEC
 Functional: PBEX(Automatically generated (new) PBEX)                          Gradient terms: 1
 Functional: PBEC(Automatically generated (new) PBEC)                          Gradient terms: 1
 Use libxcgrid:  F
 Use grid at  1800.2

 Functional: PBEX                      Factor:  1.0000
 Functional: PBEC                      Factor:  1.0000

 Generated new metagrid on record  1800.2 with target accuracy 1.0D-08 and 79408 points in CPU time    0.3
 Computed new grid on record 1800.1 in CPU time    0.3
  101847 words reserved for DFT integration

 PROGRAM * RKS-SCF (Restricted closed shell Kohn-Sham)     Authors: W. Meyer, H.-J. Werner, P.J. Knowles, 1993

 NUMBER OF ELECTRONS:       5+    5-    SPACE SYMMETRY=1    SPIN SYMMETRY: Singlet 
 CONVERGENCE THRESHOLDS:    1.00E-04 (Density)    1.00E-08 (Energy)
 INTEGRAL THRESHOLDS:       1.00E-11 (Initial)    1.00E-11 (Final)
 MAX. NUMBER OF ITERATIONS:       60
 INTERPOLATION TYPE:            DIIS
 INTERPOLATION STEPS:              2 (START)      1 (STEP)
 LEVEL SHIFTS:                  0.00 (CLOSED)  0.00 (OPEN) 



 Use fine grid record 1800.2 for energy threshold  1.0D-08
 Orbital guess generated from atomic densities. Full valence occupancy:    7

 Molecular orbital dump at record        2201.2

 Initial occupancy:   5

 Direct Fock-matrix evaluation.        Authors: Roland Lindh & Martin Schuetz (1993/96)

 Integral Threshold:                  0.1D-10
 Threshold for writing integrals:     0.1D-06
 Prescreening on density matrix:        ON 
 Calculation will be performed fully direct        

 ITERATION   DDIFF            GRAD            ENERGY        2-EL.EN.            DIPOLE MOMENTS         DIIS   CPU(IT)  CPU(TOT)
    1      0.000D+00      0.000D+00       -76.28434771     97.657515    0.47435    0.83649    0.52167    0      2.8      5.3     start
    2      0.000D+00      0.128D-01       -75.96442496     82.685538   -0.16591   -0.22610   -0.14430    1      1.7      7.0     diag
    3      0.215D-01      0.288D-01       -76.35907835     93.299606    0.31420    0.55882    0.34771    2      1.7      8.8     diag
    4      0.147D-01      0.551D-03       -76.35927277     93.029283    0.30701    0.54835    0.34087    3      1.6     10.4     diag
    5      0.437D-03      0.143D-03       -76.35928108     93.060644    0.30585    0.54566    0.33927    4      1.7     12.1     diag
    6      0.729D-04      0.376D-04       -76.35928176     93.072304    0.30658    0.54705    0.34013    5      1.6     13.7     diag
    7      0.209D-04      0.138D-05       -76.35928176     93.072747    0.30660    0.54705    0.34013    6      1.6     15.3     diag
    8      0.799D-06      0.152D-06       -76.35928176     93.072842    0.30659    0.54706    0.34013    0      1.6     16.9     orth

 Final occupancy:   5

 !RKS STATE  1.1 Energy               -76.359281759733
 Nuclear energy                         9.14996834
 One-electron energy                 -122.81791978
 Two-electron energy                   46.53642113
 Density functional                    -9.22775144     PBEX=-8.90233569 PBEC=-0.32541575
 Virial quotient                       -1.00567717
 !RKS STATE  1.1 Dipole moment          0.30659425     0.54706049     0.34013294
 Dipole moment /Debye                   0.77923381     1.39039799     0.86447509

 Orbital energies:

         1.1          2.1          3.1          4.1          5.1          6.1          7.1
    -18.779669    -0.934055    -0.483454    -0.344614    -0.265481    -0.035095     0.015526


 HOMO      5.1    -0.265481 =      -7.2241eV
 LUMO      6.1    -0.035095 =      -0.9550eV
 LUMO-HOMO         0.230386 =       6.2691eV


 **********************************************************************************************************************************
 DATASETS  * FILE   NREC   LENGTH (MB)   RECORD NAMES
              1      19       30.67       500      610      700      900      950      970     1000      129      960     1100   
                                          VAR    BASINP    GEOM    SYMINP    ZMAT    AOBASIS   BASIS     P2S    ABASIS      S 
                                         1400     1410     1200     1210     1080     1600     1650     1700     1800   
                                           T        V       H0       H01     AOSYM     SMH    MOLCAS    OPER     GRID   

              2       6        6.31       700     1000      520     1800     2101     2201   
                                         GEOM     BASIS   MCVARS    GRID      RKS      RKS  

 PROGRAMS   *        TOTAL   RKS-SCF       INT   RKS-SCF       INT
 CPU TIMES  *        38.48     17.18      0.04     20.69      0.37
 REAL TIME  *        41.72 SEC
 DISK USED  *        37.95 MB (local),      151.78 MB (total)
 SF USED    *         0.18 MB
 GA USED    *         2.61 MB       (max)       2.61 MB       (current)
 **********************************************************************************************************************************
 SETTING EA_PBE         =       -76.35928176  AU                              

 Dummy atoms: O1  H1  H2


 Recomputing one-electron integrals since nuclear charges changed


 PROGRAM * SEWARD (Integral evaluation for generally contracted gaussian basis sets)     Author: Roland Lindh, 1990

 Geometry written to block  1 of record 700


 Point group  C1  



 ATOMIC COORDINATES

 NR  ATOM    CHARGE       X              Y              Z

   1  O1      0.00   -0.992729436   -0.096321389   -0.594350729
   2  H1      0.00   -1.780134544    1.413329251    0.021264740
   3  H2      0.00    0.762875870    0.112979130   -0.139024067
   4  O2      8.00    5.199906782    0.079844961    0.198291325
   5  H3      1.00    5.895293538   -1.001224653    1.478634305
   6  C1      6.00    6.078639012   -0.811406412   -2.186843718
   7  H4      1.00    5.264512693    0.418982345   -3.610022979
   8  H5      1.00    8.130812962   -0.715421816   -2.327272910
   9  H6      1.00    5.458161389   -2.738680444   -2.563051593

 Bond lengths in Bohr (Angstrom)

 1-2  1.810534248  1-3  1.825726996  4-5  1.814263596  4-6  2.693579128  6-7  2.049901795
     ( 0.958093464)     ( 0.966133120)     ( 0.960066950)     ( 1.425380690)     ( 1.084761314)

 6-8  2.059211335  6-9  2.059346994
     ( 1.089687711)     ( 1.089759498)

 Bond angles

  2-1-3  103.75741034   4-6-7  106.65459099   4-6-8  111.72059382   4-6-9  111.90879545

  5-4-6  107.61952492   7-6-8  108.69153234   7-6-9  108.37480423   8-6-9  109.35579191

 NUCLEAR CHARGE:                   18
 NUMBER OF PRIMITIVE AOS:         177
 NUMBER OF SYMMETRY AOS:          171
 NUMBER OF CONTRACTIONS:          123   (  123A   )
 NUMBER OF CORE ORBITALS:           2   (    2A   )
 NUMBER OF VALENCE ORBITALS:       12   (   12A   )

 MOLECULE CHANGED: INITIALIZING OCCUPATION AND DUMP RECORDS


 NUCLEAR REPULSION ENERGY   40.29463209


 Eigenvalues of metric

         1 0.564E-03 0.583E-03 0.770E-03 0.783E-03 0.164E-02 0.231E-02 0.242E-02 0.345E-02


 OPERATOR DM      FOR CENTER  0  COORDINATES:    0.000000    0.000000    0.000000


 **********************************************************************************************************************************
 DATASETS  * FILE   NREC   LENGTH (MB)   RECORD NAMES
              1      19       30.67       500      610      700      900      950      970     1000      129      960     1100   
                                          VAR    BASINP    GEOM    SYMINP    ZMAT    AOBASIS   BASIS     P2S    ABASIS      S 
                                         1400     1410     1200     1210     1080     1600     1650     1700     1800   
                                           T        V       H0       H01     AOSYM     SMH    MOLCAS    OPER     GRID   

              2       6        6.31       700     1000      520     1800     2101     2201   
                                         GEOM     BASIS   MCVARS    GRID      RKS      RKS  

 PROGRAMS   *        TOTAL       INT   RKS-SCF       INT   RKS-SCF       INT
 CPU TIMES  *        38.52      0.04     17.18      0.04     20.69      0.37
 REAL TIME  *        41.88 SEC
 DISK USED  *        37.95 MB (local),      151.78 MB (total)
 SF USED    *         0.18 MB
 GA USED    *         2.61 MB       (max)       2.61 MB       (current)
 **********************************************************************************************************************************

 Density functional group PBE=PBEX+PBEC
 Functional: PBEX(Automatically generated (new) PBEX)                          Gradient terms: 1
 Functional: PBEC(Automatically generated (new) PBEC)                          Gradient terms: 1
 Use libxcgrid:  F
 Use grid at  1800.2

 Functional: PBEX                      Factor:  1.0000
 Functional: PBEC                      Factor:  1.0000

 Generated new metagrid on record  1800.2 with target accuracy 1.0D-08 and 79408 points in CPU time    0.3
 Computed new grid on record 1800.1 in CPU time    0.3
  101847 words reserved for DFT integration

 PROGRAM * RKS-SCF (Restricted closed shell Kohn-Sham)     Authors: W. Meyer, H.-J. Werner, P.J. Knowles, 1993

 NUMBER OF ELECTRONS:       9+    9-    SPACE SYMMETRY=1    SPIN SYMMETRY: Singlet 
 CONVERGENCE THRESHOLDS:    1.00E-04 (Density)    1.00E-08 (Energy)
 INTEGRAL THRESHOLDS:       1.00E-11 (Initial)    1.00E-11 (Final)
 MAX. NUMBER OF ITERATIONS:       60
 INTERPOLATION TYPE:            DIIS
 INTERPOLATION STEPS:              2 (START)      1 (STEP)
 LEVEL SHIFTS:                  0.00 (CLOSED)  0.00 (OPEN) 



 Use fine grid record 1800.2 for energy threshold  1.0D-08
 Orbital guess generated from atomic densities. Full valence occupancy:   14

 Molecular orbital dump at record        2301.2

 Initial occupancy:   9

 Direct Fock-matrix evaluation.        Authors: Roland Lindh & Martin Schuetz (1993/96)

 Integral Threshold:                  0.1D-10
 Threshold for writing integrals:     0.1D-06
 Prescreening on density matrix:        ON 
 Calculation will be performed fully direct        

 ITERATION   DDIFF            GRAD            ENERGY        2-EL.EN.            DIPOLE MOMENTS         DIIS   CPU(IT)  CPU(TOT)
    1      0.000D+00      0.000D+00      -115.51033256    198.847460    0.58349   -0.77388   -0.06619    0      2.8      5.4     start
    2      0.000D+00      0.935D-02      -115.31753420    180.781950   -0.09155    0.13321   -0.06065    1      1.7      7.1     diag
    3      0.240D-01      0.176D-01      -115.59250681    192.735183    0.43138   -0.55983   -0.16339    2      1.7      8.7     diag
    4      0.147D-01      0.249D-02      -115.59755578    192.516008    0.37256   -0.49163   -0.07438    3      1.7     10.4     diag
    5      0.262D-02      0.692D-03      -115.59795800    192.413174    0.37690   -0.49621   -0.08349    4      1.7     12.1     diag
    6      0.651D-03      0.108D-03      -115.59796841    192.436447    0.37729   -0.49646   -0.08634    5      1.6     13.8     diag
    7      0.792D-04      0.139D-04      -115.59796858    192.444148    0.37797   -0.49736   -0.08624    6      1.7     15.5     diag
    8      0.147D-04      0.138D-05      -115.59796858    192.444591    0.37785   -0.49719   -0.08634    7      1.6     17.1     diag
    9      0.223D-05      0.305D-06      -115.59796858    192.444633    0.37789   -0.49725   -0.08630    0      1.6     18.7     orth

 Final occupancy:   9

 !RKS STATE  1.1 Energy              -115.597968581486
 Nuclear energy                        40.29463209
 One-electron energy                 -236.76532189
 Two-electron energy                   96.22231630
 Density functional                   -15.34959509     PBEX=-14.76593983 PBEC= -0.58365526
 Virial quotient                       -1.00571261
 !RKS STATE  1.1 Dipole moment          0.37788644    -0.49724648    -0.08629500
 Dipole moment /Debye                   0.96042861    -1.26379172    -0.21932565

 Orbital energies:

         1.1          2.1          3.1          4.1          5.1          6.1          7.1          8.1          9.1         10.1
    -18.774575    -9.933182    -0.938559    -0.622060    -0.460260    -0.392231    -0.381215    -0.295400    -0.230495    -0.024098

        11.1
     -0.000466


 HOMO      9.1    -0.230495 =      -6.2721eV
 LUMO     10.1    -0.024098 =      -0.6557eV
 LUMO-HOMO         0.206396 =       5.6163eV


 **********************************************************************************************************************************
 DATASETS  * FILE   NREC   LENGTH (MB)   RECORD NAMES
              1      19       30.67       500      610      700      900      950      970     1000      129      960     1100   
                                          VAR    BASINP    GEOM    SYMINP    ZMAT    AOBASIS   BASIS     P2S    ABASIS      S 
                                         1400     1410     1200     1210     1080     1600     1650     1700     1800   
                                           T        V       H0       H01     AOSYM     SMH    MOLCAS    OPER     GRID   

              2       7        9.41       700     1000      520     1800     2101     2201     2301   
                                         GEOM     BASIS   MCVARS    GRID      RKS      RKS      RKS  

 PROGRAMS   *        TOTAL   RKS-SCF       INT   RKS-SCF       INT   RKS-SCF       INT
 CPU TIMES  *        57.56     19.05      0.04     17.18      0.04     20.69      0.37
 REAL TIME  *        61.23 SEC
 DISK USED  *        41.11 MB (local),      164.43 MB (total)
 SF USED    *         0.18 MB
 GA USED    *         2.61 MB       (max)       2.61 MB       (current)
 **********************************************************************************************************************************
 SETTING EB_PBE         =      -115.59796858  AU                              
 SETTING E_AB_INT       =        -0.00639396  AU                              

 *** results in hartree
 E_AB_INT         =        -0.00639396 AU
 Molecular orbitals read from record     2301.2  Type=RKS/CANONICAL (state 1.1)
 Occupation numbers read from record     2301.2  Type=RKS/RHF (state 1.1)
 Orbital energies read from record       2301.2  Type=RKS/CANONICAL (state 1.1)
 Redundancy group numbers read from rec  2301.2  Type=RKS/RHF (state 1.1)

 RPBE/aug-cc-pVDZ energy=   -115.597968581486

         RKS-SCF         RKS-SCF         RKS-SCF
   -115.59796858    -76.35928176   -191.96364430
 **********************************************************************************************************************************
 Molpro calculation terminated
