
     Program PWSCF v.7.2 starts on 12Oct2023 at 12:29:52 

     This program is part of the open-source Quantum ESPRESSO suite
     for quantum simulation of materials; please cite
         "P. Giannozzi et al., J. Phys.:Condens. Matter 21 395502 (2009);
         "P. Giannozzi et al., J. Phys.:Condens. Matter 29 465901 (2017);
         "P. Giannozzi et al., J. Chem. Phys. 152 154105 (2020);
          URL http://www.quantum-espresso.org", 
     in publications or presentations arising from this work. More details at
     http://www.quantum-espresso.org/quote

     Parallel version (MPI), running on    32 processors

     MPI processes distributed on     1 nodes
     498317 MiB available memory on the printing compute node when the environment starts

     Reading input from H2O_CO2_dimer_O_H_contact_48_precision_monomer_1.in
Warning: card &CELL ignored
Warning: card / ignored

     Current dimensions of program PWSCF are:
     Max number of different atomic species (ntypx) = 10
     Max number of k-points (npk) =  40000
     Max angular momentum in pseudopotentials (lmaxx) =  4
     file H.pbe-kjpaw_psl.1.0.0.UPF: wavefunction(s)  1S renormalized
     file O.pbe-n-kjpaw_psl.1.0.0.UPF: wavefunction(s)  2S 2P renormalized

     IMPORTANT: XC functional enforced from input :
     Exchange-correlation= PBE
                           (   1   4   3   4   0   0   0)
     Any further DFT definition will be discarded
     Please, verify this is what you really want


     gamma-point specific algorithms are used

     R & G space division:  proc/nbgrp/npool/nimage =      32
     Subspace diagonalization in iterative solution of the eigenvalue problem:
     a serial algorithm will be used


     Parallelization info
     --------------------
     sticks:   dense  smooth     PW     G-vecs:    dense   smooth      PW
     Min        6395    6395   1598              2177048  2177048  272114
     Max        6398    6398   1600              2177062  2177062  272124
     Sum      204693  204693  51189             69665707 69665707 8707803

     Using Slab Decomposition



     bravais-lattice index     =            0
     lattice parameter (alat)  =      66.1404  a.u.
     unit-cell volume          =  289334.8415 (a.u.)^3
     number of atoms/cell      =            3
     number of atomic types    =            2
     number of electrons       =         8.00
     number of Kohn-Sham states=            4
     kinetic-energy cutoff     =     147.0000  Ry
     charge density cutoff     =     588.0000  Ry
     scf convergence threshold =      1.0E-08
     mixing beta               =       0.7000
     number of iterations used =            8  plain     mixing
     Exchange-correlation= PBE
                           (   1   4   3   4   0   0   0)

     celldm(1)=  66.140414  celldm(2)=   0.000000  celldm(3)=   0.000000
     celldm(4)=   0.000000  celldm(5)=   0.000000  celldm(6)=   0.000000

     crystal axes: (cart. coord. in units of alat)
               a(1) = (   1.000000   0.000000   0.000000 )  
               a(2) = (   0.000000   1.000000   0.000000 )  
               a(3) = (   0.000000   0.000000   1.000000 )  

     reciprocal axes: (cart. coord. in units 2 pi/alat)
               b(1) = (  1.000000  0.000000  0.000000 )  
               b(2) = (  0.000000  1.000000  0.000000 )  
               b(3) = (  0.000000  0.000000  1.000000 )  


     PseudoPot. # 1 for H  read from file:
     /home/users/klimj2am/src/pslibrary.1.0.0/pbe/PSEUDOPOTENTIALS/H.pbe-kjpaw_psl.1.0.0.UPF
     MD5 check sum: 220281c0717fd894cece6904c624ceaa
     Pseudo is Projector augmented-wave, Zval =  1.0
     Generated using 'atomic' code by A. Dal Corso  v.7.2
     Shape of augmentation charge: PSQ
     Using radial grid of  929 points,  2 beta functions with: 
                l(1) =   0
                l(2) =   0
     Q(r) pseudized with 0 coefficients 


     PseudoPot. # 2 for O  read from file:
     /home/users/klimj2am/src/pslibrary.1.0.0/pbe/PSEUDOPOTENTIALS/O.pbe-n-kjpaw_psl.1.0.0.UPF
     MD5 check sum: 48e285564fec6dca10ec424bc53b541b
     Pseudo is Projector augmented-wave + core cor, Zval =  6.0
     Generated using 'atomic' code by A. Dal Corso  v.7.2
     Shape of augmentation charge: PSQ
     Using radial grid of 1095 points,  4 beta functions with: 
                l(1) =   0
                l(2) =   0
                l(3) =   1
                l(4) =   1
     Q(r) pseudized with 0 coefficients 


     atomic species   valence    mass     pseudopotential
        H              1.00     1.00800     H ( 1.00)
        O              6.00    15.99900     O ( 1.00)

     No symmetry found



   Cartesian axes

     site n.     atom                  positions (alat units)
         1           H   tau(   1) = (   0.0010117   0.2072618  -0.0266201  )
         2           H   tau(   2) = (   0.0000000   0.1730993   0.0000000  )
         3           O   tau(   3) = (   0.0000000   0.2005670   0.0000000  )

     number of k points=     1
                       cart. coord. in units 2pi/alat
        k(    1) = (   0.0000000   0.0000000   0.0000000), wk =   2.0000000

     Dense  grid: 34832854 G-vectors     FFT dimensions: ( 512, 512, 512)

     Estimated max dynamical RAM per process >       1.52 GB

     Estimated total dynamical RAM >      48.61 GB

     Initial potential from superposition of free atoms

     starting charge       8.0000, renormalised to       8.0000

     negative rho (up, down):  6.417E-04 0.000E+00
     Starting wfcs are    6 randomized atomic wfcs
     Checking if some PAW data can be deallocated... 

     total cpu time spent up to now is       36.1 secs

     Self-consistent Calculation

     iteration #  1     ecut=   147.00 Ry     beta= 0.70
     Davidson diagonalization with overlap
     ethr =  1.00E-02,  avg # of iterations =  3.0

     negative rho (up, down):  8.565E-04 0.000E+00

     total cpu time spent up to now is       44.4 secs

     total energy              =     -43.78032183 Ry
     estimated scf accuracy    <       0.49840005 Ry

     iteration #  2     ecut=   147.00 Ry     beta= 0.70
     Davidson diagonalization with overlap
     ethr =  6.23E-03,  avg # of iterations =  5.0

     negative rho (up, down):  9.105E-04 0.000E+00

     total cpu time spent up to now is       53.4 secs

     total energy              =     -43.97450756 Ry
     estimated scf accuracy    <       0.17380039 Ry

     iteration #  3     ecut=   147.00 Ry     beta= 0.70
     Davidson diagonalization with overlap
     ethr =  2.17E-03,  avg # of iterations =  3.0

     negative rho (up, down):  1.104E-03 0.000E+00

     total cpu time spent up to now is       61.5 secs

     total energy              =     -43.99844206 Ry
     estimated scf accuracy    <       0.03583400 Ry

     iteration #  4     ecut=   147.00 Ry     beta= 0.70
     Davidson diagonalization with overlap
     ethr =  4.48E-04,  avg # of iterations =  5.0

     negative rho (up, down):  1.211E-03 0.000E+00

     total cpu time spent up to now is       70.1 secs

     total energy              =     -44.03622669 Ry
     estimated scf accuracy    <       0.01079031 Ry

     iteration #  5     ecut=   147.00 Ry     beta= 0.70
     Davidson diagonalization with overlap
     ethr =  1.35E-04,  avg # of iterations =  4.0

     negative rho (up, down):  1.198E-03 0.000E+00

     total cpu time spent up to now is       78.2 secs

     total energy              =     -44.03858658 Ry
     estimated scf accuracy    <       0.00140439 Ry

     iteration #  6     ecut=   147.00 Ry     beta= 0.70
     Davidson diagonalization with overlap
     ethr =  1.76E-05,  avg # of iterations =  5.0

     negative rho (up, down):  1.237E-03 0.000E+00

     total cpu time spent up to now is       87.4 secs

     total energy              =     -44.03946293 Ry
     estimated scf accuracy    <       0.00043006 Ry

     iteration #  7     ecut=   147.00 Ry     beta= 0.70
     Davidson diagonalization with overlap
     ethr =  5.38E-06,  avg # of iterations =  2.0

     negative rho (up, down):  1.265E-03 0.000E+00

     total cpu time spent up to now is       95.1 secs

     total energy              =     -44.03942737 Ry
     estimated scf accuracy    <       0.00025816 Ry

     iteration #  8     ecut=   147.00 Ry     beta= 0.70
     Davidson diagonalization with overlap
     ethr =  3.23E-06,  avg # of iterations =  1.0

     negative rho (up, down):  1.262E-03 0.000E+00

     total cpu time spent up to now is      102.7 secs

     total energy              =     -44.03941123 Ry
     estimated scf accuracy    <       0.00007189 Ry

     iteration #  9     ecut=   147.00 Ry     beta= 0.70
     Davidson diagonalization with overlap
     ethr =  8.99E-07,  avg # of iterations =  2.0

     negative rho (up, down):  1.259E-03 0.000E+00

     total cpu time spent up to now is      110.9 secs

     total energy              =     -44.03941410 Ry
     estimated scf accuracy    <       0.00002062 Ry

     iteration # 10     ecut=   147.00 Ry     beta= 0.70
     Davidson diagonalization with overlap
     ethr =  2.58E-07,  avg # of iterations =  4.0

     negative rho (up, down):  1.258E-03 0.000E+00

     total cpu time spent up to now is      119.3 secs

     total energy              =     -44.03943213 Ry
     estimated scf accuracy    <       0.00000860 Ry

     iteration # 11     ecut=   147.00 Ry     beta= 0.70
     Davidson diagonalization with overlap
     ethr =  1.08E-07,  avg # of iterations =  2.0

     negative rho (up, down):  1.259E-03 0.000E+00

     total cpu time spent up to now is      127.3 secs

     total energy              =     -44.03942918 Ry
     estimated scf accuracy    <       0.00001013 Ry

     iteration # 12     ecut=   147.00 Ry     beta= 0.70
     Davidson diagonalization with overlap
     ethr =  1.08E-07,  avg # of iterations =  2.0

     negative rho (up, down):  1.259E-03 0.000E+00

     total cpu time spent up to now is      135.3 secs

     total energy              =     -44.03943032 Ry
     estimated scf accuracy    <       0.00000147 Ry

     iteration # 13     ecut=   147.00 Ry     beta= 0.70
     Davidson diagonalization with overlap
     ethr =  1.84E-08,  avg # of iterations =  3.0

     negative rho (up, down):  1.260E-03 0.000E+00

     total cpu time spent up to now is      143.9 secs

     total energy              =     -44.03942953 Ry
     estimated scf accuracy    <       0.00000271 Ry

     iteration # 14     ecut=   147.00 Ry     beta= 0.70
     Davidson diagonalization with overlap
     ethr =  1.84E-08,  avg # of iterations =  2.0

     negative rho (up, down):  1.259E-03 0.000E+00

     total cpu time spent up to now is      151.8 secs

     total energy              =     -44.03942993 Ry
     estimated scf accuracy    <       0.00000049 Ry

     iteration # 15     ecut=   147.00 Ry     beta= 0.70
     Davidson diagonalization with overlap
     ethr =  6.17E-09,  avg # of iterations =  2.0

     negative rho (up, down):  1.259E-03 0.000E+00

     total cpu time spent up to now is      159.8 secs

     total energy              =     -44.03942996 Ry
     estimated scf accuracy    <       0.00000035 Ry

     iteration # 16     ecut=   147.00 Ry     beta= 0.70
     Davidson diagonalization with overlap
     ethr =  4.35E-09,  avg # of iterations =  2.0

     negative rho (up, down):  1.259E-03 0.000E+00

     total cpu time spent up to now is      167.9 secs

     total energy              =     -44.03942999 Ry
     estimated scf accuracy    <       0.00000023 Ry

     iteration # 17     ecut=   147.00 Ry     beta= 0.70
     Davidson diagonalization with overlap
     ethr =  2.88E-09,  avg # of iterations =  1.0

     negative rho (up, down):  1.259E-03 0.000E+00

     total cpu time spent up to now is      175.5 secs

     total energy              =     -44.03942998 Ry
     estimated scf accuracy    <       0.00000015 Ry

     iteration # 18     ecut=   147.00 Ry     beta= 0.70
     Davidson diagonalization with overlap
     ethr =  1.88E-09,  avg # of iterations =  3.0

     negative rho (up, down):  1.259E-03 0.000E+00

     total cpu time spent up to now is      184.0 secs

     total energy              =     -44.03943003 Ry
     estimated scf accuracy    <       0.00000007 Ry

     iteration # 19     ecut=   147.00 Ry     beta= 0.70
     Davidson diagonalization with overlap
     ethr =  9.01E-10,  avg # of iterations =  2.0

     negative rho (up, down):  1.259E-03 0.000E+00

     total cpu time spent up to now is      192.2 secs

     total energy              =     -44.03943005 Ry
     estimated scf accuracy    <       0.00000007 Ry

     iteration # 20     ecut=   147.00 Ry     beta= 0.70
     Davidson diagonalization with overlap
     ethr =  8.35E-10,  avg # of iterations =  2.0

     negative rho (up, down):  1.259E-03 0.000E+00

     total cpu time spent up to now is      200.1 secs

     total energy              =     -44.03943006 Ry
     estimated scf accuracy    <       0.00000006 Ry

     iteration # 21     ecut=   147.00 Ry     beta= 0.70
     Davidson diagonalization with overlap
     ethr =  7.04E-10,  avg # of iterations =  1.0

     negative rho (up, down):  1.259E-03 0.000E+00

     total cpu time spent up to now is      207.7 secs

     total energy              =     -44.03943007 Ry
     estimated scf accuracy    <       0.00000004 Ry

     iteration # 22     ecut=   147.00 Ry     beta= 0.70
     Davidson diagonalization with overlap
     ethr =  5.54E-10,  avg # of iterations =  2.0

     negative rho (up, down):  1.259E-03 0.000E+00

     total cpu time spent up to now is      215.7 secs

     total energy              =     -44.03943007 Ry
     estimated scf accuracy    <       0.00000005 Ry

     iteration # 23     ecut=   147.00 Ry     beta= 0.70
     Davidson diagonalization with overlap
     ethr =  5.54E-10,  avg # of iterations =  1.0

     negative rho (up, down):  1.259E-03 0.000E+00

     total cpu time spent up to now is      223.3 secs

     total energy              =     -44.03943008 Ry
     estimated scf accuracy    <       0.00000005 Ry

     iteration # 24     ecut=   147.00 Ry     beta= 0.70
     Davidson diagonalization with overlap
     ethr =  5.54E-10,  avg # of iterations =  2.0

     negative rho (up, down):  1.259E-03 0.000E+00

     total cpu time spent up to now is      231.3 secs

     total energy              =     -44.03943008 Ry
     estimated scf accuracy    <       0.00000006 Ry

     iteration # 25     ecut=   147.00 Ry     beta= 0.70
     Davidson diagonalization with overlap
     ethr =  5.54E-10,  avg # of iterations =  1.0

     negative rho (up, down):  1.259E-03 0.000E+00

     total cpu time spent up to now is      238.9 secs

     total energy              =     -44.03943008 Ry
     estimated scf accuracy    <       0.00000005 Ry

     iteration # 26     ecut=   147.00 Ry     beta= 0.70
     Davidson diagonalization with overlap
     ethr =  5.54E-10,  avg # of iterations =  1.0

     negative rho (up, down):  1.259E-03 0.000E+00

     total cpu time spent up to now is      246.5 secs

     total energy              =     -44.03943008 Ry
     estimated scf accuracy    <       0.00000005 Ry

     iteration # 27     ecut=   147.00 Ry     beta= 0.70
     Davidson diagonalization with overlap
     ethr =  5.54E-10,  avg # of iterations =  1.0

     negative rho (up, down):  1.259E-03 0.000E+00

     total cpu time spent up to now is      254.1 secs

     total energy              =     -44.03943007 Ry
     estimated scf accuracy    <       0.00000005 Ry

     iteration # 28     ecut=   147.00 Ry     beta= 0.70
     Davidson diagonalization with overlap
     ethr =  5.54E-10,  avg # of iterations =  1.0

     negative rho (up, down):  1.259E-03 0.000E+00

     total cpu time spent up to now is      261.8 secs

     total energy              =     -44.03943006 Ry
     estimated scf accuracy    <       0.00000003 Ry

     iteration # 29     ecut=   147.00 Ry     beta= 0.70
     Davidson diagonalization with overlap
     ethr =  4.29E-10,  avg # of iterations =  2.0

     negative rho (up, down):  1.259E-03 0.000E+00

     total cpu time spent up to now is      269.1 secs

     End of self-consistent calculation

          k = 0.0000 0.0000 0.0000 (****** PWs)   bands (ev):

   -25.4015 -13.1542  -9.3258  -7.2448

     highest occupied level (ev):    -7.2448

!    total energy              =     -44.03943006 Ry
     total all-electron energy =      -152.886312 Ry
     estimated scf accuracy    <          4.1E-09 Ry

     The total energy is the sum of the following terms:
     one-electron contribution =     -76.77729899 Ry
     hartree contribution      =      40.03118408 Ry
     xc contribution           =      -8.87061003 Ry
     ewald contribution        =      11.16380323 Ry
     one-center paw contrib.   =      -9.58650835 Ry

     charge density inside the Wigner-Seitz cell:    8.00000000

     reference position (x0):         0.00836432   13.09384523   -0.22008332 bohr

     Dipole moments (with respect to x0):
     Elect   0.0214  -0.4390  -0.5626 au (Ha),   0.0543  -1.1159  -1.4300 Debye
     Ionic  -0.0000   0.0000   0.0000 au (Ha),  -0.0000   0.0000   0.0000 Debye
     Total   0.0214  -0.4390  -0.5626 au (Ha),   0.0543  -1.1159  -1.4300 Debye

     Electrons quadrupole moment        -20.06658467 a.u. (Ha)
          Ions quadrupole moment          5.97697340 a.u. (Ha)
         Total quadrupole moment        -14.08961127 a.u. (Ha)

     *********    MAKOV-PAYNE CORRECTION    *********

     Makov-Payne correction with Madelung constant =   2.8373

     Makov-Payne correction     0.00000000 Ry =  0.000 eV (1st order, 1/a0)
                                0.00000738 Ry =  0.000 eV (2nd order, 1/a0^3)
                                0.00000738 Ry =  0.000 eV (total)

!    Total+Makov-Payne energy  =     -44.03942268 Ry
     Corrected vacuum level    =       0.00277513 eV

     convergence has been achieved in  29 iterations

     Writing all to output data dir ./pwscf.save/

     init_run     :     33.51s CPU     35.71s WALL (       1 calls)
     electrons    :    200.62s CPU    235.72s WALL (       1 calls)

     Called by init_run:
     wfcinit      :      0.82s CPU      0.92s WALL (       1 calls)
     potinit      :      3.68s CPU      4.46s WALL (       1 calls)
     hinit0       :      2.27s CPU      2.54s WALL (       1 calls)

     Called by electrons:
     c_bands      :     43.05s CPU     45.62s WALL (      29 calls)
     sum_band     :     51.41s CPU     60.54s WALL (      29 calls)
     v_of_rho     :     58.53s CPU     72.31s WALL (      30 calls)
     newd         :     23.66s CPU     31.82s WALL (      30 calls)
     PAW_pot      :      0.40s CPU      0.41s WALL (      30 calls)
     mix_rho      :     22.53s CPU     23.78s WALL (      29 calls)

     Called by c_bands:
     init_us_2    :      1.14s CPU      1.15s WALL (      59 calls)
     init_us_2:cp :      1.14s CPU      1.15s WALL (      59 calls)
     regterg      :     41.81s CPU     44.36s WALL (      29 calls)

     Called by *egterg:
     rdiaghg      :      0.01s CPU      0.02s WALL (      96 calls)
     h_psi        :     37.89s CPU     40.49s WALL (      97 calls)
     s_psi        :      0.57s CPU      0.57s WALL (      97 calls)
     g_psi        :      0.13s CPU      0.13s WALL (      67 calls)

     Called by h_psi:
     h_psi:calbec :      0.71s CPU      0.71s WALL (      97 calls)
     vloc_psi     :     36.34s CPU     38.93s WALL (      97 calls)
     add_vuspsi   :      0.57s CPU      0.57s WALL (      97 calls)

     General routines
     calbec       :      0.97s CPU      0.98s WALL (     126 calls)
     fft          :     48.42s CPU     58.74s WALL (     270 calls)
     ffts         :      4.63s CPU      5.53s WALL (      29 calls)
     fftw         :     34.16s CPU     36.94s WALL (     394 calls)

     Parallel routines

     PWSCF        :   3m55.92s CPU   4m35.41s WALL


   This run was terminated on:  12:34:27  12Oct2023            

=------------------------------------------------------------------------------=
   JOB DONE.
=------------------------------------------------------------------------------=
