
 Primary working directories    : /scratch/sirous/480720/molpro.uqLOtuPB7h
 Secondary working directories  : /scratch/sirous/480720/molpro.uqLOtuPB7h
 Wavefunction directory         : /scratch/sirous/480720/
 Main file repository           : /scratch/sirous/480720/molpro.uqLOtuPB7h/

 id        : karlovklimes

 Nodes                      nprocs
 nc-18.cc.karlov.mff.cuni.cz    4

 Using customized tuning parameters: mindgm=1; mindgv=20; mindgc=4; mindgr=1; noblas=0; minvec=7
 default implementation of scratch files=sf  


 Variables initialized (934), CPU time= 0.01 sec
 ***,CH3C6H4CN+CF3CN+BF3
 memory,500,m
 gdirect
 gthresh,energy=1.d-8,twoint=1.d-19,oneint=1.d-19,zero=1.d-15,orbital=1.d-8,grid=1.d-8
 symmetry,nosym
 geomtyp=xyz
                                                                                 ! Geometry
 geometry={
 H1        -0.8915159870000000    -1.4558395110000000     0.5147169950000000
 H2        0.8915159870000000    -1.4558395110000000     0.5147169950000000
 H3        0.0000000000000000    0.0000000000000000     0.0000000000000000
 H4        0.0000000000000000    -1.4558395110000000     -1.0294339900000000
 H5        -0.3900959260000000    2.9617231990000001     -0.6756659630000000
 H6        0.4007516660000000    3.0191001640000001     0.6167214650000000
 C1        0.0000000000000000    -1.0918796330000000     0.0000000000000000
 O1        0.0000000000000000    2.4000000000000004     0.0000000000000000
 }
 
 
 
 basis=avdz
 
 
 
                                                                                 ! Dimer Calculation
 {rks,pbe,accu=1.d-8;orbital,2101.2}
 eab_PBE=energy
 
 
                                                                                 !monomer A
 dummy,5,6,8;                                                                    ! NOW MONOMER B IS DUMMY
 {rks,pbe,accu=1.d-8;orbital,2201.2}
 ea_PBE=energy
                                                                                 !monomer B
 dummy,1,2,3,4,7;                                                                !NOW MONOMER A IS DUMMY
 {rks,pbe,accu=1.d-8;orbital,2301.2}
 eb_PBE=energy
 
 E_AB_int=eab_PBE-ea_PBE-eb_PBE
 
 
 text,results in hartree
 show,E_AB_int
 
 Commands  initialized (763), CPU time= 0.02 sec, 617 directives.
 Default parameters read. Elapsed time= 0.44 sec

 Checking input...
 Passed
1


                                         ***  PROGRAM SYSTEM MOLPRO  ***
                                       Copyright, TTI GmbH Stuttgart, 2015
                                    Version 2019.2 linked Jun  8 2019 11:26:33


 **********************************************************************************************************************************
 LABEL *   CH3C6H4CN+CF3CN+BF3                                                           
  64 bit mpp version                                                                     DATE: 31-Mar-20          TIME: 16:33:26  
 **********************************************************************************************************************************

 SHA1:             8135a10abc80eafa5b3ae28ffc55be4890dc4c84
 **********************************************************************************************************************************

 THRESHOLDS:

 ZERO    =  1.00D-15  ONEINT  =  1.00D-19  TWOINT  =  1.00D-19  PREFAC  =  1.00D-14  XXXXXX  =  1.00D-09  EORDER  =  1.00D-04
 ENERGY  =  1.00D-08  ETEST   =  0.00D+00  EDENS   =  0.00D+00  THRDEDEF=  1.00D-06  GRADIENT=  1.00D-02  STEP    =  1.00D-03
 ORBITAL =  1.00D-08  CIVEC   =  1.00D-05  COEFF   =  1.00D-04  PRINTCI =  5.00D-02  PUNCHCI =  9.90D+01  OPTGRAD =  3.00D-04
 OPTENERG=  1.00D-06  OPTSTEP =  3.00D-04  THRGRAD =  1.00D-10  COMPRESS=  1.00D-11  VARMIN  =  1.00D-07  VARMAX  =  1.00D-03
 THRDOUB =  0.00D+00  THRDIV  =  1.00D-05  THRRED  =  1.00D-07  THRPSP  =  1.00D+00  THRDC   =  1.00D-10  THRCS   =  1.00D-10
 THRNRM  =  1.00D-08  THREQ   =  0.00D+00  THRDE   =  1.00D+00  THRREF  =  1.00D-05  SPARFAC =  1.00D+00  THRDLP  =  1.00D-07
 THRDIA  =  1.00D-10  THRDLS  =  1.00D-07  THRGPS  =  0.00D+00  THRKEX  =  0.00D+00  THRDIS  =  2.00D-01  THRVAR  =  1.00D-10
 THRLOC  =  1.00D-06  THRGAP  =  1.00D-06  THRLOCT = -1.00D+00  THRGAPT = -1.00D+00  THRORB  =  1.00D-06  THRMLTP =  0.00D+00
 THRCPQCI=  1.00D-10  KEXTA   =  0.00D+00  THRCOARS=  0.00D+00  SYMTOL  =  1.00D-06  GRADTOL =  1.00D-06  THROVL  =  1.00D-08
 THRORTH =  1.00D-08  GRID    =  1.00D-08  GRIDMAX =  1.00D-03  DTMAX   =  0.00D+00  THROCCDE=  1.00D-01  THROCCDE=  1.00D-01
 THRPRINT=  2.50D-01


 Variable memory set to  500000000 words,  buffer space 

 SETTING GEOMTYP        =    XYZ
 ZSYMEL=NOSYM

 SETTING BASIS          =    AVDZ


 Recomputing integrals since basis changed


 Using spherical harmonics

 Library entry H      S aug-cc-pVDZ          selected for orbital group  1
 Library entry H      P aug-cc-pVDZ          selected for orbital group  1
 Library entry C      S aug-cc-pVDZ          selected for orbital group  2
 Library entry C      P aug-cc-pVDZ          selected for orbital group  2
 Library entry C      D aug-cc-pVDZ          selected for orbital group  2
 Library entry O      S aug-cc-pVDZ          selected for orbital group  3
 Library entry O      P aug-cc-pVDZ          selected for orbital group  3
 Library entry O      D aug-cc-pVDZ          selected for orbital group  3


 PROGRAM * SEWARD (Integral evaluation for generally contracted gaussian basis sets)     Author: Roland Lindh, 1990

 Geometry written to block  1 of record 700


 Point group  C1  



 ATOMIC COORDINATES

 NR  ATOM    CHARGE       X              Y              Z

   1  H1      1.00   -1.684721051   -2.751137957    0.972674152
   2  H2      1.00    1.684721051   -2.751137957    0.972674152
   3  H3      1.00    0.000000000    0.000000000    0.000000000
   4  H4      1.00    0.000000000   -2.751137957   -1.945348304
   5  H5      1.00   -0.737174462    5.596845703   -1.276823622
   6  H6      1.00    0.757310893    5.705272453    1.165434664
   7  C1      6.00    0.000000000   -2.063353467    0.000000000
   8  O1      8.00    0.000000000    4.535342699    0.000000000

 Bond lengths in Bohr (Angstrom)

 1-7  2.063353467  2-7  2.063353467  3-7  2.063353467  4-7  2.063353467  5-8  1.816726005
     ( 1.091879633)     ( 1.091879633)     ( 1.091879633)     ( 1.091879633)     ( 0.961370000)

 6-8  1.816726004
     ( 0.961370000)

 Bond angles

  1-7-2  109.47122062   1-7-3  109.47122065   1-7-4  109.47122061   2-7-3  109.47122065

  2-7-4  109.47122061   3-7-4  109.47122066   5-8-6  104.10700003

 NUCLEAR CHARGE:                   20
 NUMBER OF PRIMITIVE AOS:         140
 NUMBER OF SYMMETRY AOS:          136
 NUMBER OF CONTRACTIONS:          100   (  100A   )
 NUMBER OF CORE ORBITALS:           2   (    2A   )
 NUMBER OF VALENCE ORBITALS:       14   (   14A   )


 NUCLEAR REPULSION ENERGY   37.34820010


 Eigenvalues of metric

         1 0.450E-03 0.761E-03 0.771E-03 0.846E-03 0.174E-02 0.260E-02 0.265E-02 0.702E-02


 OPERATOR DM      FOR CENTER  0  COORDINATES:    0.000000    0.000000    0.000000


 **********************************************************************************************************************************
 DATASETS  * FILE   NREC   LENGTH (MB)   RECORD NAMES
              1      18       30.45       500      610      700      900      950      970     1000      129      960     1100   
                                          VAR    BASINP    GEOM    SYMINP    ZMAT    AOBASIS   BASIS     P2S    ABASIS      S 
                                         1400     1410     1200     1210     1080     1600     1650     1700   
                                           T        V       H0       H01     AOSYM     SMH    MOLCAS    OPER   

 PROGRAMS   *        TOTAL       INT
 CPU TIMES  *         0.46      0.28
 REAL TIME  *         2.39 SEC
 DISK USED  *        30.86 MB (local),      123.44 MB (total)
 GA USED    *         0.00 MB       (max)       0.00 MB       (current)
 **********************************************************************************************************************************

 Density functional group PBE=PBEX+PBEC
 Functional: PBEX(Automatically generated (new) PBEX)                          Gradient terms: 1
 Functional: PBEC(Automatically generated (new) PBEC)                          Gradient terms: 1
 Use libxcgrid:  F
 Use grid at  1800.2

 Functional: PBEX                      Factor:  1.0000
 Functional: PBEC                      Factor:  1.0000

 Generated new metagrid on record  1800.2 with target accuracy 1.0D-08 and 64980 points in CPU time    0.2
 Computed new grid on record 1800.1 in CPU time    0.3
   83444 words reserved for DFT integration

 PROGRAM * RKS-SCF (Restricted closed shell Kohn-Sham)     Authors: W. Meyer, H.-J. Werner, P.J. Knowles, 1993

 NUMBER OF ELECTRONS:      10+   10-    SPACE SYMMETRY=1    SPIN SYMMETRY: Singlet 
 CONVERGENCE THRESHOLDS:    1.00E-04 (Density)    1.00E-08 (Energy)
 INTEGRAL THRESHOLDS:       1.00E-11 (Initial)    1.00E-11 (Final)
 MAX. NUMBER OF ITERATIONS:       60
 INTERPOLATION TYPE:            DIIS
 INTERPOLATION STEPS:              2 (START)      1 (STEP)
 LEVEL SHIFTS:                  0.00 (CLOSED)  0.00 (OPEN) 



 Use fine grid record 1800.2 for energy threshold  1.0D-08
 Orbital guess generated from atomic densities. Full valence occupancy:   16

 Molecular orbital dump at record        2101.2

 Initial occupancy:  10

 Direct Fock-matrix evaluation.        Authors: Roland Lindh & Martin Schuetz (1993/96)

 Integral Threshold:                  0.1D-10
 Threshold for writing integrals:     0.1D-06
 Prescreening on density matrix:        ON 
 Calculation will be performed fully direct        

 ITERATION   DDIFF            GRAD            ENERGY        2-EL.EN.            DIPOLE MOMENTS         DIIS   CPU(IT)  CPU(TOT)
    1      0.000D+00      0.000D+00      -116.62834740    197.223783    0.00976    1.13353   -0.05436    0      5.3      8.9     start
    2      0.000D+00      0.146D-01      -116.20977747    172.005149    0.00111    0.03364    0.01885    1      2.9     11.8     diag
    3      0.405D-01      0.269D-01      -116.79615670    188.980374    0.00777    0.91521   -0.03898    2      2.9     14.7     diag
    4      0.249D-01      0.385D-02      -116.80709486    188.508021    0.00671    0.82840   -0.03357    3      2.8     17.4     diag
    5      0.475D-02      0.834D-03      -116.80773144    188.301021    0.00688    0.84017   -0.03374    4      2.6     20.1     diag
    6      0.941D-03      0.646D-04      -116.80773454    188.331423    0.00685    0.83657   -0.03371    5      2.6     22.7     diag
    7      0.777D-04      0.123D-04      -116.80773467    188.334508    0.00686    0.83832   -0.03377    6      2.4     25.1     diag
    8      0.182D-04      0.173D-05      -116.80773468    188.334757    0.00686    0.83816   -0.03377    7      2.5     27.6     diag
    9      0.215D-05      0.300D-06      -116.80773468    188.334704    0.00686    0.83817   -0.03377    0      2.3     29.9     orth

 Final occupancy:  10

 !RKS STATE  1.1 Energy              -116.807734676752
 Nuclear energy                        37.34820010
 One-electron energy                 -232.26799557
 Two-electron energy                   94.16735209
 Density functional                   -16.05529129     PBEX=-15.42603740 PBEC= -0.62925389
 Virial quotient                       -1.00641227
 !RKS STATE  1.1 Dipole moment          0.00686131     0.83817360    -0.03376672
 Dipole moment /Debye                   0.01743856     2.13028526    -0.08582081

 Orbital energies:

         1.1          2.1          3.1          4.1          5.1          6.1          7.1          8.1          9.1         10.1
    -18.783726    -9.859604    -0.938760    -0.610009    -0.488718    -0.357095    -0.330653    -0.330448    -0.318406    -0.270130

        11.1         12.1
     -0.037499     0.002340


 HOMO     10.1    -0.270130 =      -7.3506eV
 LUMO     11.1    -0.037499 =      -1.0204eV
 LUMO-HOMO         0.232631 =       6.3302eV


 **********************************************************************************************************************************
 DATASETS  * FILE   NREC   LENGTH (MB)   RECORD NAMES
              1      19       30.45       500      610      700      900      950      970     1000      129      960     1100   
                                          VAR    BASINP    GEOM    SYMINP    ZMAT    AOBASIS   BASIS     P2S    ABASIS      S 
                                         1400     1410     1200     1210     1080     1600     1650     1700     1800   
                                           T        V       H0       H01     AOSYM     SMH    MOLCAS    OPER     GRID   

              2       5        3.08       700     1000      520     1800     2101   
                                         GEOM     BASIS   MCVARS    GRID      RKS  

 PROGRAMS   *        TOTAL   RKS-SCF       INT
 CPU TIMES  *        30.64     30.17      0.28
 REAL TIME  *        36.94 SEC
 DISK USED  *        34.23 MB (local),      136.94 MB (total)
 SF USED    *         0.12 MB
 GA USED    *         2.15 MB       (max)       2.14 MB       (current)
 **********************************************************************************************************************************
 SETTING EAB_PBE        =      -116.80773468  AU                              

 Dummy atoms: H5  H6  O1


 Recomputing one-electron integrals since nuclear charges changed


 PROGRAM * SEWARD (Integral evaluation for generally contracted gaussian basis sets)     Author: Roland Lindh, 1990

 Geometry written to block  1 of record 700


 Point group  C1  



 ATOMIC COORDINATES

 NR  ATOM    CHARGE       X              Y              Z

   1  H1      1.00   -1.684721051   -2.751137957    0.972674152
   2  H2      1.00    1.684721051   -2.751137957    0.972674152
   3  H3      1.00    0.000000000    0.000000000    0.000000000
   4  H4      1.00    0.000000000   -2.751137957   -1.945348304
   5  H5      0.00   -0.737174462    5.596845703   -1.276823622
   6  H6      0.00    0.757310893    5.705272453    1.165434664
   7  C1      6.00    0.000000000   -2.063353467    0.000000000
   8  O1      0.00    0.000000000    4.535342699    0.000000000

 Bond lengths in Bohr (Angstrom)

 1-7  2.063353467  2-7  2.063353467  3-7  2.063353467  4-7  2.063353467  5-8  1.816726005
     ( 1.091879633)     ( 1.091879633)     ( 1.091879633)     ( 1.091879633)     ( 0.961370000)

 6-8  1.816726004
     ( 0.961370000)

 Bond angles

  1-7-2  109.47122062   1-7-3  109.47122065   1-7-4  109.47122061   2-7-3  109.47122065

  2-7-4  109.47122061   3-7-4  109.47122066   5-8-6  104.10700003

 NUCLEAR CHARGE:                   10
 NUMBER OF PRIMITIVE AOS:         140
 NUMBER OF SYMMETRY AOS:          136
 NUMBER OF CONTRACTIONS:          100   (  100A   )
 NUMBER OF CORE ORBITALS:           1   (    1A   )
 NUMBER OF VALENCE ORBITALS:        8   (    8A   )

 MOLECULE CHANGED: INITIALIZING OCCUPATION AND DUMP RECORDS


 NUCLEAR REPULSION ENERGY   13.41226070


 Eigenvalues of metric

         1 0.450E-03 0.761E-03 0.771E-03 0.846E-03 0.174E-02 0.260E-02 0.265E-02 0.702E-02


 OPERATOR DM      FOR CENTER  0  COORDINATES:    0.000000    0.000000    0.000000


 **********************************************************************************************************************************
 DATASETS  * FILE   NREC   LENGTH (MB)   RECORD NAMES
              1      19       30.45       500      610      700      900      950      970     1000      129      960     1100   
                                          VAR    BASINP    GEOM    SYMINP    ZMAT    AOBASIS   BASIS     P2S    ABASIS      S 
                                         1400     1410     1200     1210     1080     1600     1650     1700     1800   
                                           T        V       H0       H01     AOSYM     SMH    MOLCAS    OPER     GRID   

              2       5        3.08       700     1000      520     1800     2101   
                                         GEOM     BASIS   MCVARS    GRID      RKS  

 PROGRAMS   *        TOTAL       INT   RKS-SCF       INT
 CPU TIMES  *        30.68      0.03     30.17      0.28
 REAL TIME  *        37.05 SEC
 DISK USED  *        34.23 MB (local),      136.94 MB (total)
 SF USED    *         0.12 MB
 GA USED    *         2.15 MB       (max)       2.14 MB       (current)
 **********************************************************************************************************************************

 Density functional group PBE=PBEX+PBEC
 Functional: PBEX(Automatically generated (new) PBEX)                          Gradient terms: 1
 Functional: PBEC(Automatically generated (new) PBEC)                          Gradient terms: 1
 Use libxcgrid:  F
 Use grid at  1800.2

 Functional: PBEX                      Factor:  1.0000
 Functional: PBEC                      Factor:  1.0000

 Generated new metagrid on record  1800.2 with target accuracy 1.0D-08 and 64980 points in CPU time    0.2
 Computed new grid on record 1800.1 in CPU time    0.2
   83444 words reserved for DFT integration

 PROGRAM * RKS-SCF (Restricted closed shell Kohn-Sham)     Authors: W. Meyer, H.-J. Werner, P.J. Knowles, 1993

 NUMBER OF ELECTRONS:       5+    5-    SPACE SYMMETRY=1    SPIN SYMMETRY: Singlet 
 CONVERGENCE THRESHOLDS:    1.00E-04 (Density)    1.00E-08 (Energy)
 INTEGRAL THRESHOLDS:       1.00E-11 (Initial)    1.00E-11 (Final)
 MAX. NUMBER OF ITERATIONS:       60
 INTERPOLATION TYPE:            DIIS
 INTERPOLATION STEPS:              2 (START)      1 (STEP)
 LEVEL SHIFTS:                  0.00 (CLOSED)  0.00 (OPEN) 



 Use fine grid record 1800.2 for energy threshold  1.0D-08
 Orbital guess generated from atomic densities. Full valence occupancy:    9

 Molecular orbital dump at record        2201.2

 Initial occupancy:   5

 Direct Fock-matrix evaluation.        Authors: Roland Lindh & Martin Schuetz (1993/96)

 Integral Threshold:                  0.1D-10
 Threshold for writing integrals:     0.1D-06
 Prescreening on density matrix:        ON 
 Calculation will be performed fully direct        

 ITERATION   DDIFF            GRAD            ENERGY        2-EL.EN.            DIPOLE MOMENTS         DIIS   CPU(IT)  CPU(TOT)
    1      0.000D+00      0.000D+00       -40.34120366     69.647996    0.00000   -0.00036   -0.00000    0      3.6      7.5     start
    2      0.000D+00      0.144D-01       -40.21523376     59.584801   -0.00001   -0.00153    0.00002    1      1.9      9.4     diag
    3      0.305D-01      0.202D-01       -40.44761974     65.622849    0.00000   -0.00065    0.00000    2      2.0     11.4     diag
    4      0.174D-01      0.609D-03       -40.44785049     65.432179    0.00000   -0.00070    0.00000    3      2.3     13.7     diag
    5      0.457D-03      0.150D-04       -40.44785062     65.436221    0.00000   -0.00069    0.00000    4      1.9     15.6     diag
    6      0.769D-04      0.135D-05       -40.44785062     65.435904    0.00000   -0.00070    0.00000    5      1.9     17.5     diag
    7      0.289D-05      0.102D-06       -40.44785062     65.435935    0.00000   -0.00070    0.00000    0      1.9     19.4     orth

 Final occupancy:   5

 !RKS STATE  1.1 Energy               -40.447850620643
 Nuclear energy                        13.41226070
 One-electron energy                  -79.75574048
 Two-electron energy                   32.71796739
 Density functional                    -6.82233823     PBEX=-6.51981505 PBEC=-0.30252318
 Virial quotient                       -1.00810142
 !RKS STATE  1.1 Dipole moment          0.00000304    -0.00069576     0.00000166
 Dipole moment /Debye                   0.00000772    -0.00176832     0.00000421

 Orbital energies:

         1.1          2.1          3.1          4.1          5.1          6.1          7.1
     -9.877743    -0.626965    -0.345998    -0.345950    -0.345950    -0.012965     0.024960


 HOMO      5.1    -0.345950 =      -9.4138eV
 LUMO      6.1    -0.012965 =      -0.3528eV
 LUMO-HOMO         0.332985 =       9.0610eV


 **********************************************************************************************************************************
 DATASETS  * FILE   NREC   LENGTH (MB)   RECORD NAMES
              1      19       30.45       500      610      700      900      950      970     1000      129      960     1100   
                                          VAR    BASINP    GEOM    SYMINP    ZMAT    AOBASIS   BASIS     P2S    ABASIS      S 
                                         1400     1410     1200     1210     1080     1600     1650     1700     1800   
                                           T        V       H0       H01     AOSYM     SMH    MOLCAS    OPER     GRID   

              2       6        5.98       700     1000      520     1800     2101     2201   
                                         GEOM     BASIS   MCVARS    GRID      RKS      RKS  

 PROGRAMS   *        TOTAL   RKS-SCF       INT   RKS-SCF       INT
 CPU TIMES  *        50.35     19.67      0.03     30.17      0.28
 REAL TIME  *        56.99 SEC
 DISK USED  *        37.05 MB (local),      148.20 MB (total)
 SF USED    *         0.12 MB
 GA USED    *         2.15 MB       (max)       2.14 MB       (current)
 **********************************************************************************************************************************
 SETTING EA_PBE         =       -40.44785062  AU                              

 Dummy atoms: H1  H2  H3  H4  C1


 Recomputing one-electron integrals since nuclear charges changed


 PROGRAM * SEWARD (Integral evaluation for generally contracted gaussian basis sets)     Author: Roland Lindh, 1990

 Geometry written to block  1 of record 700


 Point group  C1  



 ATOMIC COORDINATES

 NR  ATOM    CHARGE       X              Y              Z

   1  H1      0.00   -1.684721051   -2.751137957    0.972674152
   2  H2      0.00    1.684721051   -2.751137957    0.972674152
   3  H3      0.00    0.000000000    0.000000000    0.000000000
   4  H4      0.00    0.000000000   -2.751137957   -1.945348304
   5  H5      1.00   -0.737174462    5.596845703   -1.276823622
   6  H6      1.00    0.757310893    5.705272453    1.165434664
   7  C1      0.00    0.000000000   -2.063353467    0.000000000
   8  O1      8.00    0.000000000    4.535342699    0.000000000

 Bond lengths in Bohr (Angstrom)

 1-7  2.063353467  2-7  2.063353467  3-7  2.063353467  4-7  2.063353467  5-8  1.816726005
     ( 1.091879633)     ( 1.091879633)     ( 1.091879633)     ( 1.091879633)     ( 0.961370000)

 6-8  1.816726004
     ( 0.961370000)

 Bond angles

  1-7-2  109.47122062   1-7-3  109.47122065   1-7-4  109.47122061   2-7-3  109.47122065

  2-7-4  109.47122061   3-7-4  109.47122066   5-8-6  104.10700003

 NUCLEAR CHARGE:                   10
 NUMBER OF PRIMITIVE AOS:         140
 NUMBER OF SYMMETRY AOS:          136
 NUMBER OF CONTRACTIONS:          100   (  100A   )
 NUMBER OF CORE ORBITALS:           1   (    1A   )
 NUMBER OF VALENCE ORBITALS:        6   (    6A   )

 MOLECULE CHANGED: INITIALIZING OCCUPATION AND DUMP RECORDS


 NUCLEAR REPULSION ENERGY    9.15605699


 Eigenvalues of metric

         1 0.450E-03 0.761E-03 0.771E-03 0.846E-03 0.174E-02 0.260E-02 0.265E-02 0.702E-02


 OPERATOR DM      FOR CENTER  0  COORDINATES:    0.000000    0.000000    0.000000


 **********************************************************************************************************************************
 DATASETS  * FILE   NREC   LENGTH (MB)   RECORD NAMES
              1      19       30.45       500      610      700      900      950      970     1000      129      960     1100   
                                          VAR    BASINP    GEOM    SYMINP    ZMAT    AOBASIS   BASIS     P2S    ABASIS      S 
                                         1400     1410     1200     1210     1080     1600     1650     1700     1800   
                                           T        V       H0       H01     AOSYM     SMH    MOLCAS    OPER     GRID   

              2       6        5.98       700     1000      520     1800     2101     2201   
                                         GEOM     BASIS   MCVARS    GRID      RKS      RKS  

 PROGRAMS   *        TOTAL       INT   RKS-SCF       INT   RKS-SCF       INT
 CPU TIMES  *        50.39      0.03     19.67      0.03     30.17      0.28
 REAL TIME  *        57.11 SEC
 DISK USED  *        37.05 MB (local),      148.20 MB (total)
 SF USED    *         0.12 MB
 GA USED    *         2.15 MB       (max)       2.14 MB       (current)
 **********************************************************************************************************************************

 Density functional group PBE=PBEX+PBEC
 Functional: PBEX(Automatically generated (new) PBEX)                          Gradient terms: 1
 Functional: PBEC(Automatically generated (new) PBEC)                          Gradient terms: 1
 Use libxcgrid:  F
 Use grid at  1800.2

 Functional: PBEX                      Factor:  1.0000
 Functional: PBEC                      Factor:  1.0000

 Generated new metagrid on record  1800.2 with target accuracy 1.0D-08 and 64980 points in CPU time    0.2
 Computed new grid on record 1800.1 in CPU time    0.2
   83444 words reserved for DFT integration

 PROGRAM * RKS-SCF (Restricted closed shell Kohn-Sham)     Authors: W. Meyer, H.-J. Werner, P.J. Knowles, 1993

 NUMBER OF ELECTRONS:       5+    5-    SPACE SYMMETRY=1    SPIN SYMMETRY: Singlet 
 CONVERGENCE THRESHOLDS:    1.00E-04 (Density)    1.00E-08 (Energy)
 INTEGRAL THRESHOLDS:       1.00E-11 (Initial)    1.00E-11 (Final)
 MAX. NUMBER OF ITERATIONS:       60
 INTERPOLATION TYPE:            DIIS
 INTERPOLATION STEPS:              2 (START)      1 (STEP)
 LEVEL SHIFTS:                  0.00 (CLOSED)  0.00 (OPEN) 



 Use fine grid record 1800.2 for energy threshold  1.0D-08
 Orbital guess generated from atomic densities. Full valence occupancy:    7

 Molecular orbital dump at record        2301.2

 Initial occupancy:   5

 Direct Fock-matrix evaluation.        Authors: Roland Lindh & Martin Schuetz (1993/96)

 Integral Threshold:                  0.1D-10
 Threshold for writing integrals:     0.1D-06
 Prescreening on density matrix:        ON 
 Calculation will be performed fully direct        

 ITERATION   DDIFF            GRAD            ENERGY        2-EL.EN.            DIPOLE MOMENTS         DIIS   CPU(IT)  CPU(TOT)
    1      0.000D+00      0.000D+00       -76.28431623     97.673844    0.00971    1.08817   -0.05438    0      3.2      6.9     start
    2      0.000D+00      0.143D-01       -75.96659876     82.731551   -0.00190   -0.29864    0.01408    1      1.8      8.7     diag
    3      0.266D-01      0.321D-01       -76.35914775     93.309944    0.00647    0.72600   -0.03631    2      1.9     10.6     diag
    4      0.183D-01      0.609D-03       -76.35933871     93.042115    0.00636    0.71186   -0.03565    3      1.8     12.4     diag
    5      0.541D-03      0.158D-03       -76.35934682     93.073031    0.00633    0.70854   -0.03547    4      1.9     14.3     diag
    6      0.913D-04      0.413D-04       -76.35934748     93.084550    0.00634    0.71029   -0.03556    5      1.7     16.0     diag
    7      0.259D-04      0.148D-05       -76.35934748     93.084985    0.00634    0.71030   -0.03556    6      1.9     17.9     diag
    8      0.946D-06      0.873D-07       -76.35934748     93.085064    0.00634    0.71030   -0.03556    0      1.8     19.7     orth

 Final occupancy:   5

 !RKS STATE  1.1 Energy               -76.359347482035
 Nuclear energy                         9.15605699
 One-electron energy                 -122.82953005
 Two-electron energy                   46.54253206
 Density functional                    -9.22840648     PBEX=-8.90297669 PBEC=-0.32542978
 Virial quotient                       -1.00565667
 !RKS STATE  1.1 Dipole moment          0.00634094     0.71030412    -0.03556173
 Dipole moment /Debye                   0.01611600     1.80529476    -0.09038298

 Orbital energies:

         1.1          2.1          3.1          4.1          5.1          6.1          7.1
    -18.779439    -0.934135    -0.484333    -0.343997    -0.265489    -0.034928     0.018878


 HOMO      5.1    -0.265489 =      -7.2243eV
 LUMO      6.1    -0.034928 =      -0.9504eV
 LUMO-HOMO         0.230562 =       6.2739eV


 **********************************************************************************************************************************
 DATASETS  * FILE   NREC   LENGTH (MB)   RECORD NAMES
              1      19       30.45       500      610      700      900      950      970     1000      129      960     1100   
                                          VAR    BASINP    GEOM    SYMINP    ZMAT    AOBASIS   BASIS     P2S    ABASIS      S 
                                         1400     1410     1200     1210     1080     1600     1650     1700     1800   
                                           T        V       H0       H01     AOSYM     SMH    MOLCAS    OPER     GRID   

              2       7        8.87       700     1000      520     1800     2101     2201     2301   
                                         GEOM     BASIS   MCVARS    GRID      RKS      RKS      RKS  

 PROGRAMS   *        TOTAL   RKS-SCF       INT   RKS-SCF       INT   RKS-SCF       INT
 CPU TIMES  *        70.33     19.94      0.03     19.67      0.03     30.17      0.28
 REAL TIME  *        77.74 SEC
 DISK USED  *        39.98 MB (local),      159.94 MB (total)
 SF USED    *         0.12 MB
 GA USED    *         2.15 MB       (max)       2.14 MB       (current)
 **********************************************************************************************************************************
 SETTING EB_PBE         =       -76.35934748  AU                              
 SETTING E_AB_INT       =        -0.00053657  AU                              

 *** results in hartree
 E_AB_INT         =        -0.00053657 AU
 Molecular orbitals read from record     2301.2  Type=RKS/CANONICAL (state 1.1)
 Occupation numbers read from record     2301.2  Type=RKS/RHF (state 1.1)
 Orbital energies read from record       2301.2  Type=RKS/CANONICAL (state 1.1)
 Redundancy group numbers read from rec  2301.2  Type=RKS/RHF (state 1.1)

 RPBE/aug-cc-pVDZ energy=    -76.359347482035

         RKS-SCF         RKS-SCF         RKS-SCF
    -76.35934748    -40.44785062   -116.80773468
 **********************************************************************************************************************************
 Molpro calculation terminated
