 vasp.6.1.2 22Jul20 (build Jan  6 2021 09:55:43) gamma-only                      
 executed on             LinuxPGI date 2021.04.13  12:04:18
 running on   16 total cores
 distrk:  each k-point on   16 cores,    1 groups
 distr:  one band on NCORE=   8 cores,    2 groups


--------------------------------------------------------------------------------------------------------


 INCAR:
 POTCAR:    PAW_PBE C_s 06Sep2000                 
 POTCAR:    PAW_PBE O_s 07Sep2000                 
 POTCAR:    PAW_PBE C_s 06Sep2000                 
   VRHFIN =C: s2p2                                                                                  
   LEXCH  = PE                                                                                      
   EATOM  =   147.1560 eV,   10.8157 Ry                                                             
                                                                                                    
   TITEL  = PAW_PBE C_s 06Sep2000                                                                   
   LULTRA =        F    use ultrasoft PP ?                                                          
   IUNSCR =        0    unscreen: 0-lin 1-nonlin 2-no                                               
   RPACOR =    0.000    partial core radius                                                         
   POMASS =   12.011; ZVAL   =    4.000    mass and valenz                                          
   RCORE  =    1.850    outmost cutoff radius                                                       
   RWIGS  =    1.890; RWIGS  =    1.000    wigner-seitz radius (au A)                               
   ENMAX  =  273.911; ENMIN  =  205.433 eV                                                          
   RCLOC  =    0.804    cutoff for local pot                                                        
   LCOR   =        T    correct aug charges                                                         
   LPAW   =        T    paw PP                                                                      
   EAUG   =  439.243                                                                                
   DEXC   =    0.000                                                                                
   RMAX   =    1.897    core radius for proj-oper                                                   
   RAUG   =    1.300    factor for augmentation sphere                                              
   RDEP   =    1.940    radius for radial grids                                                     
   RDEPT  =    1.573    core radius for aug-charge                                                  
                                                                                                    
   Atomic configuration                                                                             
    4 entries                                                                                       
     n  l   j            E        occ.                                                              
     1  0  0.50      -273.3789   2.0000                                                             
     2  0  0.50       -13.7508   2.0000                                                             
     2  1  0.50        -5.2854   2.0000                                                             
     3  2  1.50        -1.3606   0.0000                                                             
   Description                                                                                      
     l       E           TYP  RCUT    TYP  RCUT                                                     
     0    -13.7508457     23  1.500                                                                 
     0    -11.0934578     23  1.500                                                                 
     1     -5.2854381     23  1.850                                                                 
     1     -1.3099858     23  1.850                                                                 
  local pseudopotential read in
  atomic valenz-charges read in
  non local Contribution for L=            0  read in
    real space projection operators read in
  non local Contribution for L=            0  read in
    real space projection operators read in
  non local Contribution for L=            1  read in
    real space projection operators read in
  non local Contribution for L=            1  read in
    real space projection operators read in
    PAW grid and wavefunctions read in
 
   number of l-projection  operators is LMAX  =            4
   number of lm-projection operators is LMMAX =            8
 
 POTCAR:    PAW_PBE O_s 07Sep2000                 
   VRHFIN =O: s2p4                                                                                  
   LEXCH  = PE                                                                                      
   EATOM  =   432.3788 eV,   31.7789 Ry                                                             
                                                                                                    
   TITEL  = PAW_PBE O_s 07Sep2000                                                                   
   LULTRA =        F    use ultrasoft PP ?                                                          
   IUNSCR =        0    unscreen: 0-lin 1-nonlin 2-no                                               
   RPACOR =    0.000    partial core radius                                                         
   POMASS =   16.000; ZVAL   =    6.000    mass and valenz                                          
   RCORE  =    1.850    outmost cutoff radius                                                       
   RWIGS  =    1.700; RWIGS  =    0.900    wigner-seitz radius (au A)                               
   ENMAX  =  282.853; ENMIN  =  212.140 eV                                                          
   RCLOC  =    0.804    cutoff for local pot                                                        
   LCOR   =        T    correct aug charges                                                         
   LPAW   =        T    paw PP                                                                      
   EAUG   =  412.352                                                                                
   RMAX   =    1.897    core radius for proj-oper                                                   
   RAUG   =    1.300    factor for augmentation sphere                                              
   RDEP   =    1.878    radius for radial grids                                                     
   RDEPT  =    1.572    core radius for aug-charge                                                  
                                                                                                    
   Atomic configuration                                                                             
    4 entries                                                                                       
     n  l   j            E        occ.                                                              
     1  0  0.50      -514.6923   2.0000                                                             
     2  0  0.50       -23.9615   2.0000                                                             
     2  1  0.50        -9.0305   4.0000                                                             
     3  2  1.50        -1.3606   0.0000                                                             
   Description                                                                                      
     l       E           TYP  RCUT    TYP  RCUT                                                     
     0    -23.9615315     23  1.500                                                                 
     0    -25.3221141     23  1.500                                                                 
     1     -9.0304908     23  1.850                                                                 
     1     -7.3935399     23  1.850                                                                 
  local pseudopotential read in
  atomic valenz-charges read in
  non local Contribution for L=            0  read in
    real space projection operators read in
  non local Contribution for L=            0  read in
    real space projection operators read in
  non local Contribution for L=            1  read in
    real space projection operators read in
  non local Contribution for L=            1  read in
    real space projection operators read in
    PAW grid and wavefunctions read in
 
   number of l-projection  operators is LMAX  =            4
   number of lm-projection operators is LMMAX =            8
 
  PAW_PBE C_s 06Sep2000                 :
 energy of atom  1       EATOM= -147.1560
 kinetic energy error for atom=    0.0002 (will be added to EATOM!!)
  PAW_PBE O_s 07Sep2000                 :
 energy of atom  2       EATOM= -432.3788
 kinetic energy error for atom=    0.0004 (will be added to EATOM!!)
 
 
 POSCAR:  C  O
  positions in cartesian coordinates
  No initial velocities read in
 exchange correlation table for  LEXCH =        8
   RHO(1)=    0.500       N(1)  =     2000
   RHO(2)=  100.500       N(2)  =     4000
 


--------------------------------------------------------------------------------------------------------


 ion  position               nearest neighbor table
   1  0.000  0.002  0.000-   2 1.17   3 1.17
   2  0.000  0.035  0.000-   1 1.17
   3  0.000  0.968  0.000-   1 1.17
 
  LATTYP: Found a simple cubic cell.
 ALAT       =    35.0000000000
  
  Lattice vectors:
  
 A1 = (  35.0000000000,   0.0000000000,   0.0000000000)
 A2 = (   0.0000000000,  35.0000000000,   0.0000000000)
 A3 = (   0.0000000000,   0.0000000000,  35.0000000000)


Analysis of symmetry for initial positions (statically):
=====================================================================
 Subroutine PRICEL returns:
 Original cell was already a primitive cell.
 

 Routine SETGRP: Setting up the symmetry group for a 
 simple cubic supercell.


 Subroutine GETGRP returns: Found 16 space group operations
 (whereof  8 operations were pure point group operations)
 out of a pool of 48 trial point group operations.


The static configuration has the point symmetry C_4v.
 The point group associated with its full space group is D_4h.


Analysis of symmetry for dynamics (positions and initial velocities):
=====================================================================
 Subroutine PRICEL returns:
 Original cell was already a primitive cell.
 

 Routine SETGRP: Setting up the symmetry group for a 
 simple cubic supercell.


 Subroutine GETGRP returns: Found 16 space group operations
 (whereof  8 operations were pure point group operations)
 out of a pool of 48 trial point group operations.


The dynamic configuration has the point symmetry C_4v.
 The point group associated with its full space group is D_4h.


 Subroutine INISYM returns: Found 16 space group operations
 (whereof  8 operations are pure point group operations),
 and found     1 'primitive' translations


----------------------------------------------------------------------------------------

                                     Primitive cell                                     

  volume of cell :   42875.0000

  direct lattice vectors                    reciprocal lattice vectors
    35.000000000  0.000000000  0.000000000     0.028571429  0.000000000  0.000000000
     0.000000000 35.000000000  0.000000000     0.000000000  0.028571429  0.000000000
     0.000000000  0.000000000 35.000000000     0.000000000  0.000000000  0.028571429

  length of vectors
    35.000000000 35.000000000 35.000000000     0.028571429  0.028571429  0.028571429

  position of ions in fractional coordinates (direct lattice)
     0.000000000  0.001628171  0.000000000
     0.000000000  0.035063029  0.000000000
     0.000000000  0.968193314  0.000000000

  ion indices of the primitive-cell ions
   primitive index   ion index
                 1           1
                 2           2
                 3           3

----------------------------------------------------------------------------------------

 
 
 KPOINTS: automatic mesh                          

Automatic generation of k-mesh.
Space group operators:
 irot       det(A)        alpha          n_x          n_y          n_z        tau_x        tau_y        tau_z
    1     1.000000     0.000000     1.000000     0.000000     0.000000     0.000000     0.000000     0.000000
    2     1.000000    90.000000     0.000000     1.000000     0.000000     0.000000     0.000000     0.000000
    3    -1.000000   180.000000     0.000000     0.000000     1.000000     0.000000     0.000000     0.000000
    4    -1.000000   180.000000     0.707107     0.000000     0.707107     0.000000     0.000000     0.000000
    5    -1.000000   180.000000     1.000000     0.000000     0.000000     0.000000     0.000000     0.000000
    6     1.000000    90.000000     0.000000    -1.000000     0.000000     0.000000     0.000000     0.000000
    7     1.000000   180.000000     0.000000     1.000000     0.000000     0.000000     0.000000     0.000000
    8    -1.000000   180.000000     0.707107     0.000000    -0.707107     0.000000     0.000000     0.000000
    9    -1.000000     0.000000     1.000000     0.000000     0.000000     0.000000     0.003256     0.000000
   10    -1.000000    90.000000     0.000000     1.000000     0.000000     0.000000     0.003256     0.000000
   11     1.000000   180.000000     0.000000     0.000000     1.000000     0.000000     0.003256     0.000000
   12     1.000000   180.000000     0.707107     0.000000     0.707107     0.000000     0.003256     0.000000
   13     1.000000   180.000000     1.000000     0.000000     0.000000     0.000000     0.003256     0.000000
   14    -1.000000    90.000000     0.000000    -1.000000     0.000000     0.000000     0.003256     0.000000
   15    -1.000000   180.000000     0.000000     1.000000     0.000000     0.000000     0.003256     0.000000
   16     1.000000   180.000000     0.707107     0.000000    -0.707107     0.000000     0.003256     0.000000
 
 Subroutine IBZKPT returns following result:
 ===========================================
 
 Found      1 irreducible k-points:
 
 Following reciprocal coordinates:
            Coordinates               Weight
  0.000000  0.000000  0.000000      1.000000
 
 Following cartesian coordinates:
            Coordinates               Weight
  0.000000  0.000000  0.000000      1.000000
 


--------------------------------------------------------------------------------------------------------




 Dimension of arrays:
   k-points           NKPTS =      1   k-points in BZ     NKDIM =      1   number of bands    NBANDS=     12
   number of dos      NEDOS =    301   number of ions     NIONS =      3
   non local maximal  LDIM  =      4   non local SUM 2l+1 LMDIM =      8
   total plane-waves  NPLWV = ******
   max r-space proj   IRMAX =      1   max aug-charges    IRDMAX=  29269
   dimension x,y,z NGX =   378 NGY =  378 NGZ =  378
   dimension x,y,z NGXF=   756 NGYF=  756 NGZF=  756
   support grid    NGXF=   756 NGYF=  756 NGZF=  756
   ions per type =               1   2
   NGX,Y,Z   is equivalent  to a cutoff of  17.95, 17.95, 17.95 a.u.
   NGXF,Y,Z  is equivalent  to a cutoff of  35.91, 35.91, 35.91 a.u.

 SYSTEM =  C                                       
 POSCAR =   C  O                                   

 Startparameter for this run:
   NWRITE =      2    write-flag & timer
   PREC   = acc       normal or accurate (medium, high low for compatibility)
   ISTART =      0    job   : 0-new  1-cont  2-samecut
   ICHARG =      2    charge: 1-file 2-atom 10-const
   ISPIN  =      1    spin polarized calculation?
   LNONCOLLINEAR =      F non collinear calculations
   LSORBIT =      F    spin-orbit coupling
   INIWAV =      1    electr: 0-lowe 1-rand  2-diag
   LASPH  =      T    aspherical Exc in radial PAW
   METAGGA=      F    non-selfconsistent MetaGGA calc.

 Electronic Relaxation 1
   ENCUT  = 1000.0 eV  73.50 Ry    8.57 a.u.  90.25 90.25 90.25*2*pi/ulx,y,z
   ENINI  = 1000.0     initial cutoff
   ENAUG  =  439.2 eV  augmentation charge cutoff
   NELM   =     60;   NELMIN=  2; NELMDL= -5     # of ELM steps 
   EDIFF  = 0.1E-06   stopping-criterion for ELM
   LREAL  =      F    real-space projection
   NLSPLINE    = F    spline interpolate recip. space projectors
   LCOMPAT=      F    compatible to vasp.4.4
   GGA_COMPAT  = T    GGA compatible to vasp.4.4-vasp.4.6
   LMAXPAW     = -100 max onsite density
   LMAXMIX     =    2 max onsite mixed and CHGCAR
   VOSKOWN=      0    Vosko Wilk Nusair interpolation
   ROPT   =    0.00000   0.00000
 Ionic relaxation
   EDIFFG = 0.1E-05   stopping-criterion for IOM
   NSW    =      0    number of steps for IOM
   NBLOCK =      1;   KBLOCK =      1    inner block; outer block 
   IBRION =     -1    ionic relax: 0-MD 1-quasi-New 2-CG
   NFREE  =      0    steps in history (QN), initial steepest desc. (CG)
   ISIF   =      2    stress and relaxation
   IWAVPR =     10    prediction:  0-non 1-charg 2-wave 3-comb
   ISYM   =      2    0-nonsym 1-usesym 2-fastsym
   LCORR  =      T    Harris-Foulkes like correction to forces

   POTIM  = 0.5000    time-step for ionic-motion
   TEIN   =    0.0    initial temperature
   TEBEG  =    0.0;   TEEND  =   0.0 temperature during run
   SMASS  =  -3.00    Nose mass-parameter (am)
   estimated Nose-frequenzy (Omega)   =  0.10E-29 period in steps = 0.13E+47 mass=  -0.280E-25a.u.
   SCALEE = 1.0000    scale energy and forces
   NPACO  =    256;   APACO  = 16.0  distance and # of slots for P.C.
   PSTRESS=    0.0 pullay stress

  Mass of Ions in am
   POMASS =  12.01 16.00
  Ionic Valenz
   ZVAL   =   4.00  6.00
  Atomic Wigner-Seitz radii
   RWIGS  =  -1.00 -1.00
  virtual crystal weights 
   VCA    =   1.00  1.00
   NELECT =      16.0000    total number of electrons
   NUPDOWN=      -1.0000    fix difference up-down

 DOS related values:
   EMIN   =  10.00;   EMAX   =-10.00  energy-range for DOS
   EFERMI =   0.00
   ISMEAR =     0;   SIGMA  =   0.01  broadening in eV -4-tet -1-fermi 0-gaus

 Electronic relaxation 2 (details)
   IALGO  =     38    algorithm
   LDIAG  =      T    sub-space diagonalisation (order eigenvalues)
   LSUBROT=      F    optimize rotation matrix (better conditioning)
   TURBO    =      0    0=normal 1=particle mesh
   IRESTART =      0    0=no restart 2=restart with 2 vectors
   NREBOOT  =      0    no. of reboots
   NMIN     =      0    reboot dimension
   EREF     =   0.00    reference energy to select bands
   IMIX   =      4    mixing-type and parameters
     AMIX     =   0.40;   BMIX     =  1.00
     AMIX_MAG =   1.60;   BMIX_MAG =  1.00
     AMIN     =   0.10
     WC   =   100.;   INIMIX=   1;  MIXPRE=   1;  MAXMIX= -45

 Intra band minimization:
   WEIMIN = 0.0000     energy-eigenvalue tresh-hold
   EBREAK =  0.21E-08  absolut break condition
   DEPER  =   0.30     relativ break condition  

   TIME   =   0.40     timestep for ELM

  volume/ion in A,a.u.               =   14291.67     96444.93
  Fermi-wavevector in a.u.,A,eV,Ry     =   0.117864  0.222730  0.189010  0.013892
  Thomas-Fermi vector in A             =   0.732055
 
 Write flags
   LWAVE        =      T    write WAVECAR
   LDOWNSAMPLE  =      F    k-point downsampling of WAVECAR
   LCHARG       =      T    write CHGCAR
   LVTOT        =      F    write LOCPOT, total local potential
   LVHAR        =      F    write LOCPOT, Hartree potential only
   LELF         =      F    write electronic localiz. function (ELF)
   LORBIT       =      0    0 simple, 1 ext, 2 COOP (PROOUT), +10 PAW based schemes


 Dipole corrections
   LMONO  =      F    monopole corrections only (constant potential shift)
   LDIPOL =      F    correct potential (dipole corrections)
   IDIPOL =      4    1-x, 2-y, 3-z, 4-all directions 
   EPSILON=  1.0000000 bulk dielectric constant

 Exchange correlation treatment:
   GGA     =    --    GGA type
   LEXCH   =     8    internal setting for exchange type
   VOSKOWN=      0    Vosko Wilk Nusair interpolation
   LHFCALC =     F    Hartree Fock is set to
   LHFONE  =     F    Hartree Fock one center treatment
   AEXX    =    0.0000 exact exchange contribution

 Linear response parameters
   LEPSILON=     F    determine dielectric tensor
   LRPA    =     F    only Hartree local field effects (RPA)
   LNABLA  =     F    use nabla operator in PAW spheres
   LVEL    =     F    velocity operator in full k-point grid
   LINTERFAST=   F  fast interpolation
   KINTER  =     0    interpolate to denser k-point grid
   CSHIFT  =0.1000    complex shift for real part using Kramers Kronig
   OMEGAMAX=  -1.0    maximum frequency
   DEG_THRESHOLD= 0.2000000E-02 threshold for treating states as degnerate
   RTIME   =   -0.100 relaxation time in fs
  (WPLASMAI=    0.000 imaginary part of plasma frequency in eV, 0.658/RTIME)
   DFIELD  = 0.0000000 0.0000000 0.0000000 field for delta impulse in time
 
 Orbital magnetization related:
   ORBITALMAG=     F  switch on orbital magnetization
   LCHIMAG   =     F  perturbation theory with respect to B field
   DQ        =  0.001000  dq finite difference perturbation B field
   LLRAUG    =     F  two centre corrections for induced B field



--------------------------------------------------------------------------------------------------------


 Static calculation
 charge density and potential will be updated during run
 non-spin polarized calculation
 Variant of blocked Davidson
 Davidson routine will perform the subspace rotation
 perform sub-space diagonalisation
    after iterative eigenvector-optimisation
 modified Broyden-mixing scheme, WC =      100.0
 initial mixing is a Kerker type mixing with AMIX =  0.4000 and BMIX =      1.0000
 Hartree-type preconditioning will be used
 using additional bands             4
 reciprocal scheme for non local part
 calculate Harris-corrections to forces 
   (improved forces if not selfconsistent)
 use gradient corrections 
 use of overlap-Matrix (Vanderbilt PP)
 Gauss-broadening in eV      SIGMA  =   0.01


--------------------------------------------------------------------------------------------------------


  energy-cutoff  :     1000.00
  volume of cell :    42875.00
      direct lattice vectors                 reciprocal lattice vectors
    35.000000000  0.000000000  0.000000000     0.028571429  0.000000000  0.000000000
     0.000000000 35.000000000  0.000000000     0.000000000  0.028571429  0.000000000
     0.000000000  0.000000000 35.000000000     0.000000000  0.000000000  0.028571429

  length of vectors
    35.000000000 35.000000000 35.000000000     0.028571429  0.028571429  0.028571429


 
 k-points in units of 2pi/SCALE and weight: automatic mesh                          
   0.00000000  0.00000000  0.00000000       1.000
 
 k-points in reciprocal lattice and weights: automatic mesh                          
   0.00000000  0.00000000  0.00000000       1.000
 
 position of ions in fractional coordinates (direct lattice) 
   0.00000000  0.00162817  0.00000000
   0.00000000  0.03506303  0.00000000
   0.00000000  0.96819331  0.00000000
 
 position of ions in cartesian coordinates  (Angst):
   0.00000000  0.05698600  0.00000000
   0.00000000  1.22720600  0.00000000
   0.00000000 33.88676600  0.00000000
 


--------------------------------------------------------------------------------------------------------


 use parallel FFT for orbitals z direction half grid
 k-point   1 :   0.0000 0.0000 0.0000  plane waves: 1539209

 maximum and minimum number of plane-waves per node :    192406   192397

 maximum number of plane-waves:   1539209
 maximum index in each direction: 
   IXMAX=   90   IYMAX=   90   IZMAX=   90
   IXMIN=  -90   IYMIN=  -90   IZMIN=    0


 parallel 3D FFT for wavefunctions:
    minimum data exchange during FFTs selected (reduces bandwidth)
 parallel 3D FFT for charge:
    minimum data exchange during FFTs selected (reduces bandwidth)


 total amount of memory used by VASP MPI-rank0  2956582. kBytes
=======================================================================

   base      :      30000. kBytes
   nonl-proj :      33863. kBytes
   fftplans  :    1060428. kBytes
   grid      :    1813819. kBytes
   one-center:          1. kBytes
   wavefun   :      18471. kBytes
 
     INWAV:  cpu time    0.0000: real time    0.0000
 Broyden mixing: mesh for mixing (old mesh)
   NGX =181   NGY =181   NGZ =181
  (NGX  =756   NGY  =756   NGZ  =756)
  gives a total of ****** points

 initial charge density was supplied:
 charge density of overlapping atoms calculated
 number of electron      16.0000000 magnetization 
 keeping initial charge density in first step


--------------------------------------------------------------------------------------------------------


 Maximum index for augmentation-charges          2508 (set IRDMAX)


--------------------------------------------------------------------------------------------------------


 First call to EWALD:  gamma=   0.051
 Maximum number of real-space cells 3x 3x 3
 Maximum number of reciprocal cells 3x 3x 3

    FEWALD:  cpu time    0.0011: real time    0.0011


--------------------------------------- Iteration      1(   1)  ---------------------------------------


    POTLOK:  cpu time   18.4956: real time   18.5212
    SETDIJ:  cpu time    0.0530: real time    0.0551
     EDDAV:  cpu time    5.9275: real time    5.9472
       DOS:  cpu time    0.0050: real time    0.0050
    --------------------------------------------
      LOOP:  cpu time   24.4810: real time   24.5285

 eigenvalue-minimisations  :    24
 total energy-change (2. order) : 0.2267337E+03  (-0.1759743E+03)
 number of electron      16.0000000 magnetization 
 augmentation part       16.0000000 magnetization 

 Free energy of the ion-electron system (eV)
  ---------------------------------------------------
  alpha Z        PSCENC =         0.01801471
  Ewald energy   TEWEN  =       662.91093246
  -Hartree energ DENC   =     -1463.35554400
  -exchange      EXHF   =         0.00000000
  -V(xc)+E(xc)   XCENC  =        67.99066556
  PAW double counting   =       796.67030680     -805.78774314
  entropy T*S    EENTRO =        -0.00000309
  eigenvalues    EBANDS =       -43.62546289
  atomic energy  EATOM  =      1011.91253630
  Solvation  Ediel_sol  =         0.00000000
  ---------------------------------------------------
  free energy    TOTEN  =       226.73370270 eV

  energy without entropy =      226.73370580  energy(sigma->0) =      226.73370425


--------------------------------------------------------------------------------------------------------




--------------------------------------- Iteration      1(   2)  ---------------------------------------


     EDDAV:  cpu time    8.4683: real time    8.4859
       DOS:  cpu time    0.0023: real time    0.0023
    --------------------------------------------
      LOOP:  cpu time    8.4705: real time    8.4882

 eigenvalue-minimisations  :    40
 total energy-change (2. order) :-0.1057874E+03  (-0.1050645E+03)
 number of electron      16.0000000 magnetization 
 augmentation part       16.0000000 magnetization 

 Free energy of the ion-electron system (eV)
  ---------------------------------------------------
  alpha Z        PSCENC =         0.01801471
  Ewald energy   TEWEN  =       662.91093246
  -Hartree energ DENC   =     -1463.35554400
  -exchange      EXHF   =         0.00000000
  -V(xc)+E(xc)   XCENC  =        67.99066556
  PAW double counting   =       796.67030680     -805.78774314
  entropy T*S    EENTRO =        -0.00000000
  eigenvalues    EBANDS =      -149.41286941
  atomic energy  EATOM  =      1011.91253630
  Solvation  Ediel_sol  =         0.00000000
  ---------------------------------------------------
  free energy    TOTEN  =       120.94629927 eV

  energy without entropy =      120.94629927  energy(sigma->0) =      120.94629927


--------------------------------------------------------------------------------------------------------




--------------------------------------- Iteration      1(   3)  ---------------------------------------


     EDDAV:  cpu time    8.4879: real time    8.5015
       DOS:  cpu time    0.0041: real time    0.0041
    --------------------------------------------
      LOOP:  cpu time    8.4919: real time    8.5055

 eigenvalue-minimisations  :    40
 total energy-change (2. order) :-0.1139493E+03  (-0.1074850E+03)
 number of electron      16.0000000 magnetization 
 augmentation part       16.0000000 magnetization 

 Free energy of the ion-electron system (eV)
  ---------------------------------------------------
  alpha Z        PSCENC =         0.01801471
  Ewald energy   TEWEN  =       662.91093246
  -Hartree energ DENC   =     -1463.35554400
  -exchange      EXHF   =         0.00000000
  -V(xc)+E(xc)   XCENC  =        67.99066556
  PAW double counting   =       796.67030680     -805.78774314
  entropy T*S    EENTRO =        -0.00000000
  eigenvalues    EBANDS =      -263.36216160
  atomic energy  EATOM  =      1011.91253630
  Solvation  Ediel_sol  =         0.00000000
  ---------------------------------------------------
  free energy    TOTEN  =         6.99700708 eV

  energy without entropy =        6.99700708  energy(sigma->0) =        6.99700708


--------------------------------------------------------------------------------------------------------




--------------------------------------- Iteration      1(   4)  ---------------------------------------


     EDDAV:  cpu time    5.9163: real time    5.9255
       DOS:  cpu time    0.0029: real time    0.0029
    --------------------------------------------
      LOOP:  cpu time    5.9192: real time    5.9284

 eigenvalue-minimisations  :    24
 total energy-change (2. order) :-0.2989309E+02  (-0.2983094E+02)
 number of electron      16.0000000 magnetization 
 augmentation part       16.0000000 magnetization 

 Free energy of the ion-electron system (eV)
  ---------------------------------------------------
  alpha Z        PSCENC =         0.01801471
  Ewald energy   TEWEN  =       662.91093246
  -Hartree energ DENC   =     -1463.35554400
  -exchange      EXHF   =         0.00000000
  -V(xc)+E(xc)   XCENC  =        67.99066556
  PAW double counting   =       796.67030680     -805.78774314
  entropy T*S    EENTRO =        -0.00000000
  eigenvalues    EBANDS =      -293.25525189
  atomic energy  EATOM  =      1011.91253630
  Solvation  Ediel_sol  =         0.00000000
  ---------------------------------------------------
  free energy    TOTEN  =       -22.89608321 eV

  energy without entropy =      -22.89608321  energy(sigma->0) =      -22.89608321


--------------------------------------------------------------------------------------------------------




--------------------------------------- Iteration      1(   5)  ---------------------------------------


     EDDAV:  cpu time    7.1762: real time    7.1876
       DOS:  cpu time    0.0028: real time    0.0028
    CHARGE:  cpu time    9.2506: real time    9.2614
    MIXING:  cpu time    0.3378: real time    0.3383
    --------------------------------------------
      LOOP:  cpu time   16.7674: real time   16.7902

 eigenvalue-minimisations  :    32
 total energy-change (2. order) :-0.1003033E+01  (-0.1001968E+01)
 number of electron      15.9999999 magnetization 
 augmentation part        3.0038469 magnetization 

 Broyden mixing:
  rms(total) = 0.46077E+01    rms(broyden)= 0.46077E+01
  rms(prec ) = 0.46119E+01
  weight for this iteration     100.00

 Free energy of the ion-electron system (eV)
  ---------------------------------------------------
  alpha Z        PSCENC =         0.01801471
  Ewald energy   TEWEN  =       662.91093246
  -Hartree energ DENC   =     -1463.35554400
  -exchange      EXHF   =         0.00000000
  -V(xc)+E(xc)   XCENC  =        67.99066556
  PAW double counting   =       796.67030680     -805.78774314
  entropy T*S    EENTRO =        -0.00000000
  eigenvalues    EBANDS =      -294.25828488
  atomic energy  EATOM  =      1011.91253630
  Solvation  Ediel_sol  =         0.00000000
  ---------------------------------------------------
  free energy    TOTEN  =       -23.89911620 eV

  energy without entropy =      -23.89911620  energy(sigma->0) =      -23.89911620


--------------------------------------------------------------------------------------------------------




--------------------------------------- Iteration      1(   6)  ---------------------------------------


    POTLOK:  cpu time   18.3286: real time   18.3522
    SETDIJ:  cpu time    0.0624: real time    0.0625
     EDDAV:  cpu time    7.2037: real time    7.2150
       DOS:  cpu time    0.0034: real time    0.0034
    CHARGE:  cpu time    9.1470: real time    9.1576
    MIXING:  cpu time    0.3562: real time    0.3598
    --------------------------------------------
      LOOP:  cpu time   35.1013: real time   35.1503

 eigenvalue-minimisations  :    32
 total energy-change (2. order) : 0.1708538E+01  (-0.1081949E+01)
 number of electron      15.9999999 magnetization 
 augmentation part        2.6507289 magnetization 

 Broyden mixing:
  rms(total) = 0.44851E+01    rms(broyden)= 0.44851E+01
  rms(prec ) = 0.44854E+01
  weight for this iteration     100.00

 eigenvalues of (default mixing * dielectric matrix)
  average eigenvalue GAMMA=   0.7058
  0.7058

 Free energy of the ion-electron system (eV)
  ---------------------------------------------------
  alpha Z        PSCENC =         0.01801471
  Ewald energy   TEWEN  =       662.91093246
  -Hartree energ DENC   =     -1488.22294927
  -exchange      EXHF   =         0.00000000
  -V(xc)+E(xc)   XCENC  =        69.53079666
  PAW double counting   =      1703.63410537    -1714.22297000
  entropy T*S    EENTRO =        -0.00000000
  eigenvalues    EBANDS =      -267.75104474
  atomic energy  EATOM  =      1011.91253630
  Solvation  Ediel_sol  =         0.00000000
  ---------------------------------------------------
  free energy    TOTEN  =       -22.19057852 eV

  energy without entropy =      -22.19057852  energy(sigma->0) =      -22.19057852


--------------------------------------------------------------------------------------------------------




--------------------------------------- Iteration      1(   7)  ---------------------------------------


    POTLOK:  cpu time   18.2051: real time   18.2285
    SETDIJ:  cpu time    0.0532: real time    0.0532
     EDDAV:  cpu time    7.1826: real time    7.1949
       DOS:  cpu time    0.0040: real time    0.0040
    CHARGE:  cpu time    9.4376: real time    9.4484
    MIXING:  cpu time    0.3814: real time    0.3819
    --------------------------------------------
      LOOP:  cpu time   35.2638: real time   35.3109

 eigenvalue-minimisations  :    32
 total energy-change (2. order) : 0.5005850E-01  (-0.4718315E-01)
 number of electron      15.9999999 magnetization 
 augmentation part        2.6804438 magnetization 

 Broyden mixing:
  rms(total) = 0.29728E+01    rms(broyden)= 0.29728E+01
  rms(prec ) = 0.29731E+01
  weight for this iteration     100.00

 eigenvalues of (default mixing * dielectric matrix)
  average eigenvalue GAMMA=   1.6973
  0.7967  2.5979

 Free energy of the ion-electron system (eV)
  ---------------------------------------------------
  alpha Z        PSCENC =         0.01801471
  Ewald energy   TEWEN  =       662.91093246
  -Hartree energ DENC   =     -1490.57036138
  -exchange      EXHF   =         0.00000000
  -V(xc)+E(xc)   XCENC  =        69.62788061
  PAW double counting   =      2438.51577201    -2448.93066126
  entropy T*S    EENTRO =        -0.00000000
  eigenvalues    EBANDS =      -265.62463346
  atomic energy  EATOM  =      1011.91253630
  Solvation  Ediel_sol  =         0.00000000
  ---------------------------------------------------
  free energy    TOTEN  =       -22.14052002 eV

  energy without entropy =      -22.14052002  energy(sigma->0) =      -22.14052002


--------------------------------------------------------------------------------------------------------




--------------------------------------- Iteration      1(   8)  ---------------------------------------


    POTLOK:  cpu time   18.2874: real time   18.3106
    SETDIJ:  cpu time    0.0503: real time    0.0503
     EDDAV:  cpu time    8.4953: real time    8.5086
       DOS:  cpu time    0.0030: real time    0.0030
    CHARGE:  cpu time    9.0771: real time    9.0878
    MIXING:  cpu time    0.3993: real time    0.3998
    --------------------------------------------
      LOOP:  cpu time   36.3124: real time   36.3602

 eigenvalue-minimisations  :    40
 total energy-change (2. order) : 0.7857180E-01  (-0.6757465E-01)
 number of electron      15.9999999 magnetization 
 augmentation part        2.6926980 magnetization 

 Broyden mixing:
  rms(total) = 0.50144E+00    rms(broyden)= 0.50144E+00
  rms(prec ) = 0.50229E+00
  weight for this iteration     100.00

 eigenvalues of (default mixing * dielectric matrix)
  average eigenvalue GAMMA=   1.3392
  2.5382  0.7397  0.7397

 Free energy of the ion-electron system (eV)
  ---------------------------------------------------
  alpha Z        PSCENC =         0.01801471
  Ewald energy   TEWEN  =       662.91093246
  -Hartree energ DENC   =     -1500.32795340
  -exchange      EXHF   =         0.00000000
  -V(xc)+E(xc)   XCENC  =        70.08856076
  PAW double counting   =      4743.34461256    -4753.65529270
  entropy T*S    EENTRO =        -0.00000000
  eigenvalues    EBANDS =      -256.35335891
  atomic energy  EATOM  =      1011.91253630
  Solvation  Ediel_sol  =         0.00000000
  ---------------------------------------------------
  free energy    TOTEN  =       -22.06194823 eV

  energy without entropy =      -22.06194823  energy(sigma->0) =      -22.06194823


--------------------------------------------------------------------------------------------------------




--------------------------------------- Iteration      1(   9)  ---------------------------------------


    POTLOK:  cpu time   18.3336: real time   18.3569
    SETDIJ:  cpu time    0.0485: real time    0.0486
     EDDAV:  cpu time    8.4707: real time    8.4843
       DOS:  cpu time    0.0032: real time    0.0032
    CHARGE:  cpu time    9.1940: real time    9.2047
    MIXING:  cpu time    0.3732: real time    0.3738
    --------------------------------------------
      LOOP:  cpu time   36.4233: real time   36.4714

 eigenvalue-minimisations  :    40
 total energy-change (2. order) : 0.2778325E-01  (-0.1227023E-01)
 number of electron      15.9999999 magnetization 
 augmentation part        2.6703841 magnetization 

 Broyden mixing:
  rms(total) = 0.18485E+00    rms(broyden)= 0.18485E+00
  rms(prec ) = 0.18514E+00
  weight for this iteration     100.00

 eigenvalues of (default mixing * dielectric matrix)
  average eigenvalue GAMMA=   1.3415
  2.5340  0.9389  0.9389  0.9542

 Free energy of the ion-electron system (eV)
  ---------------------------------------------------
  alpha Z        PSCENC =         0.01801471
  Ewald energy   TEWEN  =       662.91093246
  -Hartree energ DENC   =     -1500.25682097
  -exchange      EXHF   =         0.00000000
  -V(xc)+E(xc)   XCENC  =        70.10488025
  PAW double counting   =      4750.14822423    -4760.50448107
  entropy T*S    EENTRO =        -0.00000000
  eigenvalues    EBANDS =      -256.36745088
  atomic energy  EATOM  =      1011.91253630
  Solvation  Ediel_sol  =         0.00000000
  ---------------------------------------------------
  free energy    TOTEN  =       -22.03416498 eV

  energy without entropy =      -22.03416498  energy(sigma->0) =      -22.03416498


--------------------------------------------------------------------------------------------------------




--------------------------------------- Iteration      1(  10)  ---------------------------------------


    POTLOK:  cpu time   18.3240: real time   18.3474
    SETDIJ:  cpu time    0.0552: real time    0.0552
     EDDAV:  cpu time    8.4625: real time    8.4757
       DOS:  cpu time    0.0036: real time    0.0036
    CHARGE:  cpu time    9.1545: real time    9.1653
    MIXING:  cpu time    0.6339: real time    0.6346
    --------------------------------------------
      LOOP:  cpu time   36.6337: real time   36.6818

 eigenvalue-minimisations  :    40
 total energy-change (2. order) : 0.1069869E-02  (-0.1326347E-02)
 number of electron      15.9999999 magnetization 
 augmentation part        2.6685016 magnetization 

 Broyden mixing:
  rms(total) = 0.72248E-01    rms(broyden)= 0.72248E-01
  rms(prec ) = 0.72399E-01
  weight for this iteration     100.00

 eigenvalues of (default mixing * dielectric matrix)
  average eigenvalue GAMMA=   1.3895
  2.3948  1.9571  0.8541  0.8541  0.8875

 Free energy of the ion-electron system (eV)
  ---------------------------------------------------
  alpha Z        PSCENC =         0.01801471
  Ewald energy   TEWEN  =       662.91093246
  -Hartree energ DENC   =     -1499.79711277
  -exchange      EXHF   =         0.00000000
  -V(xc)+E(xc)   XCENC  =        70.07602210
  PAW double counting   =      4803.94662569    -4814.24367539
  entropy T*S    EENTRO =        -0.00000000
  eigenvalues    EBANDS =      -256.85643821
  atomic energy  EATOM  =      1011.91253630
  Solvation  Ediel_sol  =         0.00000000
  ---------------------------------------------------
  free energy    TOTEN  =       -22.03309511 eV

  energy without entropy =      -22.03309511  energy(sigma->0) =      -22.03309511


--------------------------------------------------------------------------------------------------------




--------------------------------------- Iteration      1(  11)  ---------------------------------------


    POTLOK:  cpu time   18.4494: real time   18.4731
    SETDIJ:  cpu time    0.0538: real time    0.0538
     EDDAV:  cpu time    8.4837: real time    8.4971
       DOS:  cpu time    0.0039: real time    0.0039
    CHARGE:  cpu time    9.1848: real time    9.1955
    MIXING:  cpu time    0.4400: real time    0.4406
    --------------------------------------------
      LOOP:  cpu time   36.6157: real time   36.6640

 eigenvalue-minimisations  :    40
 total energy-change (2. order) :-0.1969964E-02  (-0.1578190E-03)
 number of electron      15.9999999 magnetization 
 augmentation part        2.6682915 magnetization 

 Broyden mixing:
  rms(total) = 0.95682E-02    rms(broyden)= 0.95682E-02
  rms(prec ) = 0.99516E-02
  weight for this iteration     100.00

 eigenvalues of (default mixing * dielectric matrix)
  average eigenvalue GAMMA=   1.4537
  2.4411  2.4411  1.1998  0.8836  0.8836  0.8727

 Free energy of the ion-electron system (eV)
  ---------------------------------------------------
  alpha Z        PSCENC =         0.01801471
  Ewald energy   TEWEN  =       662.91093246
  -Hartree energ DENC   =     -1499.72726983
  -exchange      EXHF   =         0.00000000
  -V(xc)+E(xc)   XCENC  =        70.06431082
  PAW double counting   =      4815.03536068    -4825.29668744
  entropy T*S    EENTRO =        -0.00000000
  eigenvalues    EBANDS =      -256.95226276
  atomic energy  EATOM  =      1011.91253630
  Solvation  Ediel_sol  =         0.00000000
  ---------------------------------------------------
  free energy    TOTEN  =       -22.03506508 eV

  energy without entropy =      -22.03506508  energy(sigma->0) =      -22.03506508


--------------------------------------------------------------------------------------------------------




--------------------------------------- Iteration      1(  12)  ---------------------------------------


    POTLOK:  cpu time   18.3744: real time   18.3976
    SETDIJ:  cpu time    0.0557: real time    0.0557
     EDDAV:  cpu time    7.1839: real time    7.1952
       DOS:  cpu time    0.0027: real time    0.0027
    CHARGE:  cpu time    9.2155: real time    9.2261
    MIXING:  cpu time    0.4369: real time    0.4375
    --------------------------------------------
      LOOP:  cpu time   35.2691: real time   35.3149

 eigenvalue-minimisations  :    32
 total energy-change (2. order) :-0.1890433E-02  (-0.2285903E-04)
 number of electron      15.9999999 magnetization 
 augmentation part        2.6677024 magnetization 

 Broyden mixing:
  rms(total) = 0.63470E-02    rms(broyden)= 0.63470E-02
  rms(prec ) = 0.66316E-02
  weight for this iteration     100.00

 eigenvalues of (default mixing * dielectric matrix)
  average eigenvalue GAMMA=   1.5335
  2.6469  2.6469  1.5348  1.3390  0.8594  0.8594  0.8478

 Free energy of the ion-electron system (eV)
  ---------------------------------------------------
  alpha Z        PSCENC =         0.01801471
  Ewald energy   TEWEN  =       662.91093246
  -Hartree energ DENC   =     -1500.00725444
  -exchange      EXHF   =         0.00000000
  -V(xc)+E(xc)   XCENC  =        70.07140057
  PAW double counting   =      4826.48430072    -4836.74000374
  entropy T*S    EENTRO =        -0.00000000
  eigenvalues    EBANDS =      -256.68688208
  atomic energy  EATOM  =      1011.91253630
  Solvation  Ediel_sol  =         0.00000000
  ---------------------------------------------------
  free energy    TOTEN  =       -22.03695551 eV

  energy without entropy =      -22.03695551  energy(sigma->0) =      -22.03695551


--------------------------------------------------------------------------------------------------------




--------------------------------------- Iteration      1(  13)  ---------------------------------------


    POTLOK:  cpu time   18.2997: real time   18.3234
    SETDIJ:  cpu time    0.0554: real time    0.0554
     EDDAV:  cpu time    7.1838: real time    7.1951
       DOS:  cpu time    0.0038: real time    0.0038
    CHARGE:  cpu time    9.3419: real time    9.3526
    MIXING:  cpu time    0.4435: real time    0.4441
    --------------------------------------------
      LOOP:  cpu time   35.3281: real time   35.3744

 eigenvalue-minimisations  :    32
 total energy-change (2. order) :-0.1837615E-02  (-0.1608048E-04)
 number of electron      15.9999999 magnetization 
 augmentation part        2.6678761 magnetization 

 Broyden mixing:
  rms(total) = 0.32792E-02    rms(broyden)= 0.32792E-02
  rms(prec ) = 0.34995E-02
  weight for this iteration     100.00

 eigenvalues of (default mixing * dielectric matrix)
  average eigenvalue GAMMA=   1.5721
  3.4725  2.4977  2.0117  1.2307  0.8615  0.8615  0.9097  0.7316

 Free energy of the ion-electron system (eV)
  ---------------------------------------------------
  alpha Z        PSCENC =         0.01801471
  Ewald energy   TEWEN  =       662.91093246
  -Hartree energ DENC   =     -1500.23074071
  -exchange      EXHF   =         0.00000000
  -V(xc)+E(xc)   XCENC  =        70.07509180
  PAW double counting   =      4820.10521435    -4830.36375005
  entropy T*S    EENTRO =        -0.00000000
  eigenvalues    EBANDS =      -256.46609197
  atomic energy  EATOM  =      1011.91253630
  Solvation  Ediel_sol  =         0.00000000
  ---------------------------------------------------
  free energy    TOTEN  =       -22.03879312 eV

  energy without entropy =      -22.03879312  energy(sigma->0) =      -22.03879312


--------------------------------------------------------------------------------------------------------




--------------------------------------- Iteration      1(  14)  ---------------------------------------


    POTLOK:  cpu time   18.3454: real time   18.3688
    SETDIJ:  cpu time    0.0613: real time    0.0613
     EDDAV:  cpu time    7.1884: real time    7.1997
       DOS:  cpu time    0.0036: real time    0.0036
    CHARGE:  cpu time    9.1713: real time    9.1820
    MIXING:  cpu time    0.4720: real time    0.4727
    --------------------------------------------
      LOOP:  cpu time   35.2420: real time   35.2881

 eigenvalue-minimisations  :    32
 total energy-change (2. order) :-0.1165279E-02  (-0.9526138E-05)
 number of electron      15.9999999 magnetization 
 augmentation part        2.6676589 magnetization 

 Broyden mixing:
  rms(total) = 0.16657E-02    rms(broyden)= 0.16657E-02
  rms(prec ) = 0.18470E-02
  weight for this iteration     100.00

 eigenvalues of (default mixing * dielectric matrix)
  average eigenvalue GAMMA=   1.6110
  3.6828  2.4754  2.1917  1.4385  0.8576  0.8576  1.1455  0.8572  0.9929

 Free energy of the ion-electron system (eV)
  ---------------------------------------------------
  alpha Z        PSCENC =         0.01801471
  Ewald energy   TEWEN  =       662.91093246
  -Hartree energ DENC   =     -1500.38811466
  -exchange      EXHF   =         0.00000000
  -V(xc)+E(xc)   XCENC  =        70.07802408
  PAW double counting   =      4820.42394119    -4830.68481543
  entropy T*S    EENTRO =        -0.00000000
  eigenvalues    EBANDS =      -256.31047705
  atomic energy  EATOM  =      1011.91253630
  Solvation  Ediel_sol  =         0.00000000
  ---------------------------------------------------
  free energy    TOTEN  =       -22.03995840 eV

  energy without entropy =      -22.03995840  energy(sigma->0) =      -22.03995840


--------------------------------------------------------------------------------------------------------




--------------------------------------- Iteration      1(  15)  ---------------------------------------


    POTLOK:  cpu time   18.3356: real time   18.3587
    SETDIJ:  cpu time    0.0485: real time    0.0485
     EDDAV:  cpu time    7.2060: real time    7.2172
       DOS:  cpu time    0.0044: real time    0.0044
    CHARGE:  cpu time    9.0850: real time    9.0958
    MIXING:  cpu time    0.7098: real time    0.7105
    --------------------------------------------
      LOOP:  cpu time   35.3892: real time   35.4351

 eigenvalue-minimisations  :    32
 total energy-change (2. order) :-0.7160368E-03  (-0.2992020E-05)
 number of electron      15.9999999 magnetization 
 augmentation part        2.6676056 magnetization 

 Broyden mixing:
  rms(total) = 0.11101E-02    rms(broyden)= 0.11101E-02
  rms(prec ) = 0.12355E-02
  weight for this iteration     100.00

 eigenvalues of (default mixing * dielectric matrix)
  average eigenvalue GAMMA=   1.7686
  5.1318  2.4963  2.3949  1.8261  1.3053  0.8616  0.8616  1.0289  0.9784  0.8012

 Free energy of the ion-electron system (eV)
  ---------------------------------------------------
  alpha Z        PSCENC =         0.01801471
  Ewald energy   TEWEN  =       662.91093246
  -Hartree energ DENC   =     -1500.43023879
  -exchange      EXHF   =         0.00000000
  -V(xc)+E(xc)   XCENC  =        70.07733208
  PAW double counting   =      4820.28023022    -4830.54073991
  entropy T*S    EENTRO =        -0.00000000
  eigenvalues    EBANDS =      -256.26874150
  atomic energy  EATOM  =      1011.91253630
  Solvation  Ediel_sol  =         0.00000000
  ---------------------------------------------------
  free energy    TOTEN  =       -22.04067444 eV

  energy without entropy =      -22.04067444  energy(sigma->0) =      -22.04067444


--------------------------------------------------------------------------------------------------------




--------------------------------------- Iteration      1(  16)  ---------------------------------------


    POTLOK:  cpu time   18.3367: real time   18.3601
    SETDIJ:  cpu time    0.0518: real time    0.0518
     EDDAV:  cpu time    5.9429: real time    5.9520
       DOS:  cpu time    0.0015: real time    0.0015
    CHARGE:  cpu time    9.1640: real time    9.1747
    MIXING:  cpu time    0.4958: real time    0.4965
    --------------------------------------------
      LOOP:  cpu time   33.9928: real time   34.0367

 eigenvalue-minimisations  :    24
 total energy-change (2. order) :-0.5695842E-03  (-0.4736338E-05)
 number of electron      15.9999999 magnetization 
 augmentation part        2.6675924 magnetization 

 Broyden mixing:
  rms(total) = 0.54328E-03    rms(broyden)= 0.54328E-03
  rms(prec ) = 0.61870E-03
  weight for this iteration     100.00

 eigenvalues of (default mixing * dielectric matrix)
  average eigenvalue GAMMA=   1.9301
  5.7610  3.0498  2.6839  2.0543  2.0543  1.2110  0.8588  0.8588  0.9448  0.9448
  0.8102

 Free energy of the ion-electron system (eV)
  ---------------------------------------------------
  alpha Z        PSCENC =         0.01801471
  Ewald energy   TEWEN  =       662.91093246
  -Hartree energ DENC   =     -1500.48508280
  -exchange      EXHF   =         0.00000000
  -V(xc)+E(xc)   XCENC  =        70.07693303
  PAW double counting   =      4820.28088190    -4830.54032897
  entropy T*S    EENTRO =        -0.00000000
  eigenvalues    EBANDS =      -256.21513064
  atomic energy  EATOM  =      1011.91253630
  Solvation  Ediel_sol  =         0.00000000
  ---------------------------------------------------
  free energy    TOTEN  =       -22.04124402 eV

  energy without entropy =      -22.04124402  energy(sigma->0) =      -22.04124402


--------------------------------------------------------------------------------------------------------




--------------------------------------- Iteration      1(  17)  ---------------------------------------


    POTLOK:  cpu time   18.4158: real time   18.4391
    SETDIJ:  cpu time    0.0486: real time    0.0486
     EDDAV:  cpu time    7.2141: real time    7.2253
       DOS:  cpu time    0.0037: real time    0.0037
    CHARGE:  cpu time    9.1972: real time    9.2079
    MIXING:  cpu time    0.4632: real time    0.4639
    --------------------------------------------
      LOOP:  cpu time   35.3427: real time   35.3885

 eigenvalue-minimisations  :    32
 total energy-change (2. order) :-0.4077978E-03  (-0.1570487E-05)
 number of electron      15.9999999 magnetization 
 augmentation part        2.6675114 magnetization 

 Broyden mixing:
  rms(total) = 0.66202E-03    rms(broyden)= 0.66202E-03
  rms(prec ) = 0.67638E-03
  weight for this iteration     100.00

 eigenvalues of (default mixing * dielectric matrix)
  average eigenvalue GAMMA=   1.9392
  6.6908  3.5984  2.5094  2.1500  1.7007  1.3266  1.0470  0.8604  0.8604  0.8956
  0.8154  0.8154

 Free energy of the ion-electron system (eV)
  ---------------------------------------------------
  alpha Z        PSCENC =         0.01801471
  Ewald energy   TEWEN  =       662.91093246
  -Hartree energ DENC   =     -1500.50637729
  -exchange      EXHF   =         0.00000000
  -V(xc)+E(xc)   XCENC  =        70.07670837
  PAW double counting   =      4821.27121601    -4831.53027834
  entropy T*S    EENTRO =        -0.00000000
  eigenvalues    EBANDS =      -256.19440403
  atomic energy  EATOM  =      1011.91253630
  Solvation  Ediel_sol  =         0.00000000
  ---------------------------------------------------
  free energy    TOTEN  =       -22.04165182 eV

  energy without entropy =      -22.04165182  energy(sigma->0) =      -22.04165182


--------------------------------------------------------------------------------------------------------




--------------------------------------- Iteration      1(  18)  ---------------------------------------


    POTLOK:  cpu time   18.4246: real time   18.4482
    SETDIJ:  cpu time    0.0510: real time    0.0510
     EDDAV:  cpu time    8.4786: real time    8.4920
       DOS:  cpu time    0.0029: real time    0.0029
    CHARGE:  cpu time    9.1629: real time    9.1734
    MIXING:  cpu time    0.4914: real time    0.4922
    --------------------------------------------
      LOOP:  cpu time   36.6113: real time   36.6595

 eigenvalue-minimisations  :    40
 total energy-change (2. order) :-0.6488514E-04  (-0.8670117E-07)
 number of electron      15.9999999 magnetization 
 augmentation part        2.6675246 magnetization 

 Broyden mixing:
  rms(total) = 0.44596E-03    rms(broyden)= 0.44596E-03
  rms(prec ) = 0.45902E-03
  weight for this iteration     100.00

 eigenvalues of (default mixing * dielectric matrix)
  average eigenvalue GAMMA=   2.0517
  7.3066  3.7551  2.4942  2.4942  1.7285  1.7285  1.6100  0.8580  0.8580  1.0531
  1.0531  0.9057  0.8267

 Free energy of the ion-electron system (eV)
  ---------------------------------------------------
  alpha Z        PSCENC =         0.01801471
  Ewald energy   TEWEN  =       662.91093246
  -Hartree energ DENC   =     -1500.50487002
  -exchange      EXHF   =         0.00000000
  -V(xc)+E(xc)   XCENC  =        70.07635849
  PAW double counting   =      4821.04742885    -4831.30637623
  entropy T*S    EENTRO =        -0.00000000
  eigenvalues    EBANDS =      -256.19574126
  atomic energy  EATOM  =      1011.91253630
  Solvation  Ediel_sol  =         0.00000000
  ---------------------------------------------------
  free energy    TOTEN  =       -22.04171671 eV

  energy without entropy =      -22.04171671  energy(sigma->0) =      -22.04171671


--------------------------------------------------------------------------------------------------------




--------------------------------------- Iteration      1(  19)  ---------------------------------------


    POTLOK:  cpu time   18.3624: real time   18.3857
    SETDIJ:  cpu time    0.0501: real time    0.0501
     EDDAV:  cpu time    5.9559: real time    5.9652
       DOS:  cpu time    0.0027: real time    0.0027
    CHARGE:  cpu time    9.1587: real time    9.1691
    MIXING:  cpu time    0.7749: real time    0.7757
    --------------------------------------------
      LOOP:  cpu time   34.3047: real time   34.3486

 eigenvalue-minimisations  :    24
 total energy-change (2. order) :-0.1193834E-03  (-0.1649628E-06)
 number of electron      15.9999999 magnetization 
 augmentation part        2.6675688 magnetization 

 Broyden mixing:
  rms(total) = 0.14115E-03    rms(broyden)= 0.14115E-03
  rms(prec ) = 0.15079E-03
  weight for this iteration     100.00

 eigenvalues of (default mixing * dielectric matrix)
  average eigenvalue GAMMA=   2.1397
  8.1234  4.7095  3.0575  2.4761  2.1203  1.5045  1.5045  0.8577  0.8577  0.9990
  0.9990  0.8199  1.0173  0.9098

 Free energy of the ion-electron system (eV)
  ---------------------------------------------------
  alpha Z        PSCENC =         0.01801471
  Ewald energy   TEWEN  =       662.91093246
  -Hartree energ DENC   =     -1500.50333285
  -exchange      EXHF   =         0.00000000
  -V(xc)+E(xc)   XCENC  =        70.07590700
  PAW double counting   =      4820.48503332    -4830.74404929
  entropy T*S    EENTRO =        -0.00000000
  eigenvalues    EBANDS =      -256.19687773
  atomic energy  EATOM  =      1011.91253630
  Solvation  Ediel_sol  =         0.00000000
  ---------------------------------------------------
  free energy    TOTEN  =       -22.04183609 eV

  energy without entropy =      -22.04183609  energy(sigma->0) =      -22.04183609


--------------------------------------------------------------------------------------------------------




--------------------------------------- Iteration      1(  20)  ---------------------------------------


    POTLOK:  cpu time   18.4284: real time   18.4521
    SETDIJ:  cpu time    0.0583: real time    0.0583
     EDDAV:  cpu time    7.2473: real time    7.2585
       DOS:  cpu time    0.0025: real time    0.0025
    CHARGE:  cpu time    9.1699: real time    9.1803
    MIXING:  cpu time    0.5269: real time    0.5277
    --------------------------------------------
      LOOP:  cpu time   35.4334: real time   35.4794

 eigenvalue-minimisations  :    32
 total energy-change (2. order) :-0.4326168E-04  (-0.7418742E-07)
 number of electron      15.9999999 magnetization 
 augmentation part        2.6675641 magnetization 

 Broyden mixing:
  rms(total) = 0.12631E-03    rms(broyden)= 0.12631E-03
  rms(prec ) = 0.12970E-03
  weight for this iteration     100.00

 eigenvalues of (default mixing * dielectric matrix)
  average eigenvalue GAMMA=   2.2118
  8.6963  5.0247  3.3152  2.4558  2.2771  1.8905  1.4906  1.4906  0.8581  0.8581
  1.0749  1.0749  0.8303  0.9197  0.9197

 Free energy of the ion-electron system (eV)
  ---------------------------------------------------
  alpha Z        PSCENC =         0.01801471
  Ewald energy   TEWEN  =       662.91093246
  -Hartree energ DENC   =     -1500.50552896
  -exchange      EXHF   =         0.00000000
  -V(xc)+E(xc)   XCENC  =        70.07592424
  PAW double counting   =      4820.41976277    -4830.67896147
  entropy T*S    EENTRO =        -0.00000000
  eigenvalues    EBANDS =      -256.19455939
  atomic energy  EATOM  =      1011.91253630
  Solvation  Ediel_sol  =         0.00000000
  ---------------------------------------------------
  free energy    TOTEN  =       -22.04187935 eV

  energy without entropy =      -22.04187935  energy(sigma->0) =      -22.04187935


--------------------------------------------------------------------------------------------------------




--------------------------------------- Iteration      1(  21)  ---------------------------------------


    POTLOK:  cpu time   18.4811: real time   18.5042
    SETDIJ:  cpu time    0.0527: real time    0.0528
     EDDAV:  cpu time    4.6693: real time    4.6765
       DOS:  cpu time    0.0022: real time    0.0021
    CHARGE:  cpu time    9.0773: real time    9.0878
    MIXING:  cpu time    0.5431: real time    0.5440
    --------------------------------------------
      LOOP:  cpu time   32.8257: real time   32.8674

 eigenvalue-minimisations  :    16
 total energy-change (2. order) :-0.2518919E-04  (-0.1062255E-07)
 number of electron      15.9999999 magnetization 
 augmentation part        2.6675580 magnetization 

 Broyden mixing:
  rms(total) = 0.12109E-03    rms(broyden)= 0.12109E-03
  rms(prec ) = 0.12202E-03
  weight for this iteration     100.00

 eigenvalues of (default mixing * dielectric matrix)
  average eigenvalue GAMMA=   2.2838
  9.0354  5.4609  3.6705  2.9998  2.3138  2.3138  1.5855  1.5855  0.8580  0.8580
  0.8261  0.8824  1.0619  1.0619  1.0135  1.0135

 Free energy of the ion-electron system (eV)
  ---------------------------------------------------
  alpha Z        PSCENC =         0.01801471
  Ewald energy   TEWEN  =       662.91093246
  -Hartree energ DENC   =     -1500.50752846
  -exchange      EXHF   =         0.00000000
  -V(xc)+E(xc)   XCENC  =        70.07596232
  PAW double counting   =      4820.58369755    -4830.84283279
  entropy T*S    EENTRO =        -0.00000000
  eigenvalues    EBANDS =      -256.19268662
  atomic energy  EATOM  =      1011.91253630
  Solvation  Ediel_sol  =         0.00000000
  ---------------------------------------------------
  free energy    TOTEN  =       -22.04190454 eV

  energy without entropy =      -22.04190454  energy(sigma->0) =      -22.04190454


--------------------------------------------------------------------------------------------------------




--------------------------------------- Iteration      1(  22)  ---------------------------------------


    POTLOK:  cpu time   18.2245: real time   18.2480
    SETDIJ:  cpu time    0.0574: real time    0.0574
     EDDAV:  cpu time    5.9248: real time    5.9339
       DOS:  cpu time    0.0034: real time    0.0034
    CHARGE:  cpu time    9.1537: real time    9.1642
    MIXING:  cpu time    0.6060: real time    0.6069
    --------------------------------------------
      LOOP:  cpu time   33.9697: real time   34.0137

 eigenvalue-minimisations  :    24
 total energy-change (2. order) :-0.1140584E-04  (-0.6935199E-08)
 number of electron      15.9999999 magnetization 
 augmentation part        2.6675512 magnetization 

 Broyden mixing:
  rms(total) = 0.86051E-04    rms(broyden)= 0.86051E-04
  rms(prec ) = 0.86385E-04
  weight for this iteration     100.00

 eigenvalues of (default mixing * dielectric matrix)
  average eigenvalue GAMMA=   2.2478
  9.1984  5.8905  3.8970  3.0804  2.3885  2.1958  1.7304  1.2772  1.2772  0.8580
  0.8580  1.1562  1.0317  0.8296  0.9397  0.9397  0.6636

 Free energy of the ion-electron system (eV)
  ---------------------------------------------------
  alpha Z        PSCENC =         0.01801471
  Ewald energy   TEWEN  =       662.91093246
  -Hartree energ DENC   =     -1500.50896752
  -exchange      EXHF   =         0.00000000
  -V(xc)+E(xc)   XCENC  =        70.07600976
  PAW double counting   =      4820.68243808    -4830.94149939
  entropy T*S    EENTRO =        -0.00000000
  eigenvalues    EBANDS =      -256.19138034
  atomic energy  EATOM  =      1011.91253630
  Solvation  Ediel_sol  =         0.00000000
  ---------------------------------------------------
  free energy    TOTEN  =       -22.04191595 eV

  energy without entropy =      -22.04191595  energy(sigma->0) =      -22.04191595


--------------------------------------------------------------------------------------------------------




--------------------------------------- Iteration      1(  23)  ---------------------------------------


    POTLOK:  cpu time   18.2907: real time   18.3141
    SETDIJ:  cpu time    0.0503: real time    0.0503
     EDDAV:  cpu time    4.6997: real time    4.7070
       DOS:  cpu time    0.0026: real time    0.0027
    CHARGE:  cpu time    9.1665: real time    9.1770
    MIXING:  cpu time    0.5701: real time    0.5710
    --------------------------------------------
      LOOP:  cpu time   32.7799: real time   32.8220

 eigenvalue-minimisations  :    16
 total energy-change (2. order) :-0.1574505E-05  (-0.1996931E-08)
 number of electron      15.9999999 magnetization 
 augmentation part        2.6675486 magnetization 

 Broyden mixing:
  rms(total) = 0.32277E-04    rms(broyden)= 0.32277E-04
  rms(prec ) = 0.32850E-04
  weight for this iteration     100.00

 eigenvalues of (default mixing * dielectric matrix)
  average eigenvalue GAMMA=   2.2349
  9.3919  6.0682  4.1403  2.9015  2.5762  2.1746  1.8722  1.5639  1.5639  1.0804
  1.0804  0.8577  0.8577  0.8905  0.8905  0.8168  0.8891  0.6123

 Free energy of the ion-electron system (eV)
  ---------------------------------------------------
  alpha Z        PSCENC =         0.01801471
  Ewald energy   TEWEN  =       662.91093246
  -Hartree energ DENC   =     -1500.50886194
  -exchange      EXHF   =         0.00000000
  -V(xc)+E(xc)   XCENC  =        70.07600254
  PAW double counting   =      4820.65932571    -4830.91841636
  entropy T*S    EENTRO =        -0.00000000
  eigenvalues    EBANDS =      -256.19145094
  atomic energy  EATOM  =      1011.91253630
  Solvation  Ediel_sol  =         0.00000000
  ---------------------------------------------------
  free energy    TOTEN  =       -22.04191752 eV

  energy without entropy =      -22.04191752  energy(sigma->0) =      -22.04191752


--------------------------------------------------------------------------------------------------------




--------------------------------------- Iteration      1(  24)  ---------------------------------------


    POTLOK:  cpu time   18.2495: real time   18.2730
    SETDIJ:  cpu time    0.0551: real time    0.0552
     EDDAV:  cpu time    5.9305: real time    5.9397
       DOS:  cpu time    0.0042: real time    0.0042
    CHARGE:  cpu time    9.1564: real time    9.1667
    MIXING:  cpu time    0.6548: real time    0.6557
    --------------------------------------------
      LOOP:  cpu time   34.0505: real time   34.0945

 eigenvalue-minimisations  :    24
 total energy-change (2. order) :-0.2094561E-05  (-0.9119034E-09)
 number of electron      15.9999999 magnetization 
 augmentation part        2.6675515 magnetization 

 Broyden mixing:
  rms(total) = 0.34124E-04    rms(broyden)= 0.34124E-04
  rms(prec ) = 0.34373E-04
  weight for this iteration     100.00

 eigenvalues of (default mixing * dielectric matrix)
  average eigenvalue GAMMA=   2.2907
  9.5981  6.4281  4.4900  3.3146  2.5839  2.3237  2.3237  1.4766  1.4766  1.4621
  0.8579  0.8579  1.0512  1.0512  0.9655  0.9655  0.8253  0.8904  0.5815

 Free energy of the ion-electron system (eV)
  ---------------------------------------------------
  alpha Z        PSCENC =         0.01801471
  Ewald energy   TEWEN  =       662.91093246
  -Hartree energ DENC   =     -1500.50824329
  -exchange      EXHF   =         0.00000000
  -V(xc)+E(xc)   XCENC  =        70.07596489
  PAW double counting   =      4820.63578873    -4830.89488450
  entropy T*S    EENTRO =        -0.00000000
  eigenvalues    EBANDS =      -256.19202891
  atomic energy  EATOM  =      1011.91253630
  Solvation  Ediel_sol  =         0.00000000
  ---------------------------------------------------
  free energy    TOTEN  =       -22.04191961 eV

  energy without entropy =      -22.04191961  energy(sigma->0) =      -22.04191961


--------------------------------------------------------------------------------------------------------




--------------------------------------- Iteration      1(  25)  ---------------------------------------


    POTLOK:  cpu time   18.3988: real time   18.4221
    SETDIJ:  cpu time    0.0488: real time    0.0488
     EDDAV:  cpu time    4.6571: real time    4.6643
       DOS:  cpu time    0.0023: real time    0.0023
    CHARGE:  cpu time    9.1276: real time    9.1380
    MIXING:  cpu time    0.6581: real time    0.6591
    --------------------------------------------
      LOOP:  cpu time   32.8927: real time   32.9345

 eigenvalue-minimisations  :    16
 total energy-change (2. order) :-0.2081591E-05  (-0.1009575E-08)
 number of electron      15.9999999 magnetization 
 augmentation part        2.6675542 magnetization 

 Broyden mixing:
  rms(total) = 0.24790E-04    rms(broyden)= 0.24790E-04
  rms(prec ) = 0.24872E-04
  weight for this iteration     100.00

 eigenvalues of (default mixing * dielectric matrix)
  average eigenvalue GAMMA=   2.2939
  9.6528  6.4851  4.6096  3.1966  3.1966  2.4518  1.9227  1.9227  1.6622  1.6622
  0.8579  0.8579  1.1649  0.9660  0.9660  0.8264  0.9978  0.9978  0.8958  0.5858

 Free energy of the ion-electron system (eV)
  ---------------------------------------------------
  alpha Z        PSCENC =         0.01801471
  Ewald energy   TEWEN  =       662.91093246
  -Hartree energ DENC   =     -1500.50768225
  -exchange      EXHF   =         0.00000000
  -V(xc)+E(xc)   XCENC  =        70.07593101
  PAW double counting   =      4820.57218786    -4830.83130913
  entropy T*S    EENTRO =        -0.00000000
  eigenvalues    EBANDS =      -256.19253265
  atomic energy  EATOM  =      1011.91253630
  Solvation  Ediel_sol  =         0.00000000
  ---------------------------------------------------
  free energy    TOTEN  =       -22.04192170 eV

  energy without entropy =      -22.04192170  energy(sigma->0) =      -22.04192170


--------------------------------------------------------------------------------------------------------




--------------------------------------- Iteration      1(  26)  ---------------------------------------


    POTLOK:  cpu time   18.2495: real time   18.2733
    SETDIJ:  cpu time    0.0491: real time    0.0491
     EDDAV:  cpu time    5.9211: real time    5.9317
       DOS:  cpu time    0.0026: real time    0.0026
    CHARGE:  cpu time    9.1716: real time    9.1819
    MIXING:  cpu time    0.6497: real time    0.6508
    --------------------------------------------
      LOOP:  cpu time   34.0436: real time   34.0895

 eigenvalue-minimisations  :    24
 total energy-change (2. order) :-0.6187777E-06  (-0.4349054E-09)
 number of electron      15.9999999 magnetization 
 augmentation part        2.6675547 magnetization 

 Broyden mixing:
  rms(total) = 0.10691E-04    rms(broyden)= 0.10691E-04
  rms(prec ) = 0.10779E-04
  weight for this iteration     100.00

 eigenvalues of (default mixing * dielectric matrix)
  average eigenvalue GAMMA=   2.3114
  9.7374  6.9743  5.0711  3.7180  3.1068  2.5007  2.1210  2.1210  1.6621  1.6621
  0.8579  0.8579  1.1131  1.0847  0.9804  0.9804  0.9285  0.9285  0.8273  0.7434
  0.5635

 Free energy of the ion-electron system (eV)
  ---------------------------------------------------
  alpha Z        PSCENC =         0.01801471
  Ewald energy   TEWEN  =       662.91093246
  -Hartree energ DENC   =     -1500.50778961
  -exchange      EXHF   =         0.00000000
  -V(xc)+E(xc)   XCENC  =        70.07593656
  PAW double counting   =      4820.59837393    -4830.85749035
  entropy T*S    EENTRO =        -0.00000000
  eigenvalues    EBANDS =      -256.19243630
  atomic energy  EATOM  =      1011.91253630
  Solvation  Ediel_sol  =         0.00000000
  ---------------------------------------------------
  free energy    TOTEN  =       -22.04192232 eV

  energy without entropy =      -22.04192232  energy(sigma->0) =      -22.04192232


--------------------------------------------------------------------------------------------------------




--------------------------------------- Iteration      1(  27)  ---------------------------------------


    POTLOK:  cpu time   18.2890: real time   18.3122
    SETDIJ:  cpu time    0.0550: real time    0.0551
     EDDAV:  cpu time    4.6781: real time    4.6851
       DOS:  cpu time    0.0047: real time    0.0047
    CHARGE:  cpu time    9.1353: real time    9.1454
    MIXING:  cpu time    0.6863: real time    0.6873
    --------------------------------------------
      LOOP:  cpu time   32.8483: real time   32.8899

 eigenvalue-minimisations  :    16
 total energy-change (2. order) :-0.3476355E-06  (-0.3204335E-09)
 number of electron      15.9999999 magnetization 
 augmentation part        2.6675534 magnetization 

 Broyden mixing:
  rms(total) = 0.74247E-05    rms(broyden)= 0.74247E-05
  rms(prec ) = 0.74523E-05
  weight for this iteration     100.00

 eigenvalues of (default mixing * dielectric matrix)
  average eigenvalue GAMMA=   2.2937
  9.7580  7.0663  5.0929  3.8438  3.0428  2.4844  1.9900  1.9900  1.8356  1.8356
  1.5325  1.0944  1.0944  0.8579  0.8579  0.9227  0.9227  0.8259  1.0000  0.9627
  0.8777  0.5727

 Free energy of the ion-electron system (eV)
  ---------------------------------------------------
  alpha Z        PSCENC =         0.01801471
  Ewald energy   TEWEN  =       662.91093246
  -Hartree energ DENC   =     -1500.50807666
  -exchange      EXHF   =         0.00000000
  -V(xc)+E(xc)   XCENC  =        70.07595185
  PAW double counting   =      4820.60992224    -4830.86904113
  entropy T*S    EENTRO =        -0.00000000
  eigenvalues    EBANDS =      -256.19216242
  atomic energy  EATOM  =      1011.91253630
  Solvation  Ediel_sol  =         0.00000000
  ---------------------------------------------------
  free energy    TOTEN  =       -22.04192266 eV

  energy without entropy =      -22.04192266  energy(sigma->0) =      -22.04192266


--------------------------------------------------------------------------------------------------------




--------------------------------------- Iteration      1(  28)  ---------------------------------------


    POTLOK:  cpu time   18.3394: real time   18.3633
    SETDIJ:  cpu time    0.0520: real time    0.0521
     EDDAV:  cpu time    5.9154: real time    5.9246
       DOS:  cpu time    0.0035: real time    0.0035
    CHARGE:  cpu time    9.1162: real time    9.1265
    MIXING:  cpu time    0.7318: real time    0.7329
    --------------------------------------------
      LOOP:  cpu time   34.1584: real time   34.2030

 eigenvalue-minimisations  :    24
 total energy-change (2. order) :-0.1352053E-06  (-0.2448850E-09)
 number of electron      15.9999999 magnetization 
 augmentation part        2.6675538 magnetization 

 Broyden mixing:
  rms(total) = 0.58097E-05    rms(broyden)= 0.58097E-05
  rms(prec ) = 0.58273E-05
  weight for this iteration     100.00

 eigenvalues of (default mixing * dielectric matrix)
  average eigenvalue GAMMA=   2.3244
  9.8171  7.3124  5.5343  4.0755  3.2827  2.7083  2.4454  2.0039  2.0039  1.6915
  1.6915  1.1641  0.8579  0.8579  1.0580  1.0124  1.0124  0.9360  0.9360  0.8918
  0.8269  0.7723  0.5693

 Free energy of the ion-electron system (eV)
  ---------------------------------------------------
  alpha Z        PSCENC =         0.01801471
  Ewald energy   TEWEN  =       662.91093246
  -Hartree energ DENC   =     -1500.50803605
  -exchange      EXHF   =         0.00000000
  -V(xc)+E(xc)   XCENC  =        70.07594992
  PAW double counting   =      4820.60069212    -4830.85980840
  entropy T*S    EENTRO =        -0.00000000
  eigenvalues    EBANDS =      -256.19220385
  atomic energy  EATOM  =      1011.91253630
  Solvation  Ediel_sol  =         0.00000000
  ---------------------------------------------------
  free energy    TOTEN  =       -22.04192280 eV

  energy without entropy =      -22.04192280  energy(sigma->0) =      -22.04192280


--------------------------------------------------------------------------------------------------------




--------------------------------------- Iteration      1(  29)  ---------------------------------------


    POTLOK:  cpu time   18.3962: real time   18.4197
    SETDIJ:  cpu time    0.0601: real time    0.0601
     EDDAV:  cpu time    4.6424: real time    4.6496
       DOS:  cpu time    0.0031: real time    0.0031
    CHARGE:  cpu time    9.1706: real time    9.1811
    MIXING:  cpu time    0.7450: real time    0.7461
    --------------------------------------------
      LOOP:  cpu time   33.0174: real time   33.0599

 eigenvalue-minimisations  :    16
 total energy-change (2. order) :-0.1282519E-06  (-0.2121467E-09)
 number of electron      15.9999999 magnetization 
 augmentation part        2.6675532 magnetization 

 Broyden mixing:
  rms(total) = 0.28517E-05    rms(broyden)= 0.28517E-05
  rms(prec ) = 0.28645E-05
  weight for this iteration     100.00

 eigenvalues of (default mixing * dielectric matrix)
  average eigenvalue GAMMA=   2.3476
  9.8573  7.5241  5.8703  4.4205  3.4617  3.0651  2.5094  2.1191  2.1191  1.6425
  1.6425  1.1339  1.1339  1.1718  0.8579  0.8579  1.0505  0.9317  0.9317  0.9747
  0.9013  0.8278  0.7667  0.5698

 Free energy of the ion-electron system (eV)
  ---------------------------------------------------
  alpha Z        PSCENC =         0.01801471
  Ewald energy   TEWEN  =       662.91093246
  -Hartree energ DENC   =     -1500.50810092
  -exchange      EXHF   =         0.00000000
  -V(xc)+E(xc)   XCENC  =        70.07595341
  PAW double counting   =      4820.59794406    -4830.85705859
  entropy T*S    EENTRO =        -0.00000000
  eigenvalues    EBANDS =      -256.19214435
  atomic energy  EATOM  =      1011.91253630
  Solvation  Ediel_sol  =         0.00000000
  ---------------------------------------------------
  free energy    TOTEN  =       -22.04192293 eV

  energy without entropy =      -22.04192293  energy(sigma->0) =      -22.04192293


--------------------------------------------------------------------------------------------------------




--------------------------------------- Iteration      1(  30)  ---------------------------------------


    POTLOK:  cpu time   18.3929: real time   18.4165
    SETDIJ:  cpu time    0.0485: real time    0.0485
     EDDAV:  cpu time    5.2838: real time    5.2919
       DOS:  cpu time    0.0010: real time    0.0010
    --------------------------------------------
      LOOP:  cpu time   23.7262: real time   23.7579

 eigenvalue-minimisations  :    20
 total energy-change (2. order) :-0.3846958E-07  (-0.1706546E-09)
 number of electron      15.9999999 magnetization 
 augmentation part        2.6675532 magnetization 

 Free energy of the ion-electron system (eV)
  ---------------------------------------------------
  alpha Z        PSCENC =         0.01801471
  Ewald energy   TEWEN  =       662.91093246
  -Hartree energ DENC   =     -1500.50805663
  -exchange      EXHF   =         0.00000000
  -V(xc)+E(xc)   XCENC  =        70.07595115
  PAW double counting   =      4820.59839839    -4830.85751143
  entropy T*S    EENTRO =        -0.00000000
  eigenvalues    EBANDS =      -256.19218790
  atomic energy  EATOM  =      1011.91253630
  Solvation  Ediel_sol  =         0.00000000
  ---------------------------------------------------
  free energy    TOTEN  =       -22.04192296 eV

  energy without entropy =      -22.04192296  energy(sigma->0) =      -22.04192296


--------------------------------------------------------------------------------------------------------




 average (electrostatic) potential at core
  the test charge radii are     0.8471  0.8742
  (the norm of the test charge is              1.0000)
       1 -89.0211       2 -92.9251       3 -92.9251
 
 
 
 E-fermi :  -9.1054     XC(G=0):  -0.0251     alpha+bet : -0.0063


 k-point     1 :       0.0000    0.0000    0.0000
  band No.  band energies     occupation 
      1     -29.5285      2.00000
      2     -28.4682      2.00000
      3     -13.7389      2.00000
      4     -12.8171      2.00000
      5     -12.8171      2.00000
      6     -12.4108      2.00000
      7      -9.1578      2.00000
      8      -9.1578      2.00000
      9      -1.0546      0.00000
     10      -0.7240      0.00000
     11      -0.7240      0.00000
     12       0.0025      0.00000


--------------------------------------------------------------------------------------------------------


 soft charge-density along one line, spin component            1
         0         1         2         3         4         5         6         7         8         9
 total charge-density along one line
 
 pseudopotential strength for first ion, spin component:            1
 20.403  24.017   0.000  -0.000  -0.000   0.000  -0.000  -0.000
 24.017  28.273   0.000  -0.000  -0.000   0.000  -0.000  -0.000
  0.000   0.000  -3.783  -0.000   0.000  -4.730  -0.000   0.000
 -0.000  -0.000  -0.000  -3.447  -0.000  -0.000  -4.275  -0.000
 -0.000  -0.000   0.000  -0.000  -3.447   0.000  -0.000  -4.275
  0.000   0.000  -4.730  -0.000   0.000  -5.844  -0.000   0.000
 -0.000  -0.000  -0.000  -4.275  -0.000  -0.000  -5.232  -0.000
 -0.000  -0.000   0.000  -0.000  -4.275   0.000  -0.000  -5.232
 total augmentation occupancy for first ion, spin component:            1
 27.173 -19.378  -0.000  -0.000   0.000  -0.000   0.000   0.000
-19.378  14.439   0.000   0.000   0.000   0.000   0.000  -0.000
 -0.000   0.000  27.326   0.000   0.000 -16.554  -0.000   0.000
 -0.000   0.000   0.000   5.727   0.000   0.000  -2.578   0.000
  0.000   0.000   0.000   0.000   5.727   0.000   0.000  -2.578
 -0.000   0.000 -16.554   0.000   0.000  10.182   0.000   0.000
  0.000   0.000  -0.000  -2.578   0.000   0.000   1.160   0.000
  0.000  -0.000   0.000   0.000  -2.578   0.000   0.000   1.160


------------------------ aborting loop because EDIFF is reached ----------------------------------------



 DIPCOR: dipole corrections for dipol
 direction  1 min pos   353, direction  2 min pos   332, direction  3 min pos   369,
 dipolmoment           0.000003     -0.000002      0.000001 electrons x Angstroem
 Tr[quadrupol]         8.594089

 energy correction for charged system         0.000000 eV
 dipol+quadrupol energy correction            0.000000 eV
 added-field ion interaction          0.000000 eV  (added to PSCEN)

 
  *************** adding dipol energy to TOTEN NOW **************** 
    CHARGE:  cpu time    9.1399: real time    9.1505
    FORLOC:  cpu time    0.8707: real time    0.8714
    FORNL :  cpu time    0.1709: real time    0.1712
    STRESS:  cpu time    2.5461: real time    2.5499
    FORHAR:  cpu time    5.2120: real time    5.2183
    MIXING:  cpu time    0.7391: real time    0.7403
    OFIELD:  cpu time    0.0000: real time    0.0000

  FORCE on cell =-STRESS in cart. coord.  units (eV):
  Direction    XX          YY          ZZ          XY          YZ          ZX
  --------------------------------------------------------------------------------------
  Alpha Z     0.01801     0.01801     0.01801
  Ewald     -49.90005   762.71151   -49.90005     0.00000    -0.00000    -0.00000
  Hartree   370.47252   759.56299   370.47252     0.00000     0.00000    -0.00000
  E(xc)     -74.46527   -72.29632   -74.46527    -0.00000    -0.00000    -0.00000
  Local    -666.68209 -1790.50220  -666.68209     0.00000     0.00000     0.00000
  n-local    58.84396    46.82072    58.84397     0.00000     0.00000    -0.00000
  augment    91.01545    82.03786    91.01545     0.00000    -0.00000     0.00000
  Kinetic   270.69560   219.88616   270.69560    -0.00000    -0.00000    -0.00000
  Fock        0.00000     0.00000     0.00000     0.00000     0.00000     0.00000
  -------------------------------------------------------------------------------------
  Total      -0.00185     8.23873    -0.00185     0.00000     0.00000     0.00000
  in kB      -0.00007     0.30787    -0.00007     0.00000     0.00000     0.00000
  external pressure =        0.10 kB  Pullay stress =        0.00 kB


 VOLUME and BASIS-vectors are now :
 -----------------------------------------------------------------------------
  energy-cutoff  :     1000.00
  volume of cell :    42875.00
      direct lattice vectors                 reciprocal lattice vectors
    35.000000000  0.000000000  0.000000000     0.028571429  0.000000000  0.000000000
     0.000000000 35.000000000  0.000000000     0.000000000  0.028571429  0.000000000
     0.000000000  0.000000000 35.000000000     0.000000000  0.000000000  0.028571429

  length of vectors
    35.000000000 35.000000000 35.000000000     0.028571429  0.028571429  0.028571429


 FORCES acting on ions
    electron-ion (+dipol)            ewald-force                    non-local-force                 convergence-correction
 -----------------------------------------------------------------------------------------------
   0.669E-15 0.712E-05 -.198E-08   -.372E-18 0.568E-13 0.429E-18   0.889E-26 0.000E+00 0.000E+00   0.967E-14 -.728E-12 0.365E-13
   0.638E-14 -.260E+03 0.179E-07   -.321E-17 0.347E+03 -.485E-17   -.162E-25 -.830E+02 0.000E+00   0.263E-13 -.627E-06 0.356E-13
   0.319E-14 0.260E+03 -.257E-08   0.553E-17 -.347E+03 -.733E-18   -.307E-25 0.830E+02 0.000E+00   0.287E-13 0.627E-06 0.140E-12
 -----------------------------------------------------------------------------------------------
   0.102E-13 0.100E-04 0.133E-07   0.195E-17 0.000E+00 -.515E-17   -.380E-25 -.142E-13 0.000E+00   0.646E-13 -.210E-11 0.213E-12
 
 
 POSITION                                       TOTAL-FORCE (eV/Angst)
 -----------------------------------------------------------------------------------
      0.00000      0.05699      0.00000         0.000000      0.000000      0.000000
      0.00000      1.22721      0.00000        -0.000000      3.520996     -0.000000
      0.00000     33.88677      0.00000         0.000000     -3.520996      0.000000
 -----------------------------------------------------------------------------------
    total drift:                                0.000000      0.000010      0.000000


--------------------------------------------------------------------------------------------------------



  FREE ENERGIE OF THE ION-ELECTRON SYSTEM (eV)
  ---------------------------------------------------
  free  energy   TOTEN  =       -22.04192296 eV

  energy  without entropy=      -22.04192296  energy(sigma->0) =      -22.04192296
 


--------------------------------------------------------------------------------------------------------


    POTLOK:  cpu time   18.4500: real time   18.4733


--------------------------------------------------------------------------------------------------------


 writing wavefunctions
     LOOP+:  cpu time 1326.7574: real time 1328.2804
    4ORBIT:  cpu time    0.0000: real time    0.0000

 total amount of memory used by VASP MPI-rank0  2956582. kBytes
=======================================================================

   base      :      30000. kBytes
   nonl-proj :      33863. kBytes
   fftplans  :    1060428. kBytes
   grid      :    1813819. kBytes
   one-center:          1. kBytes
   wavefun   :      18471. kBytes
 
  
  
 General timing and accounting informations for this job:
 ========================================================
  
                  Total CPU time used (sec):     1744.946
                            User time (sec):     1675.597
                          System time (sec):       69.349
                         Elapsed time (sec):     1747.359
  
                   Maximum memory used (kb):     4006628.
                   Average memory used (kb):           0.
  
                          Minor page faults:     56125421
                          Major page faults:          146
                 Voluntary context switches:         1522
