 vasp.6.1.2 22Jul20 (build Jan  6 2021 09:55:43) gamma-only                      
 executed on             LinuxPGI date 2021.04.13  11:58:40
 running on   16 total cores
 distrk:  each k-point on   16 cores,    1 groups
 distr:  one band on NCORE=   8 cores,    2 groups


--------------------------------------------------------------------------------------------------------


 INCAR:
 POTCAR:    PAW_PBE C_s 06Sep2000                 
 POTCAR:    PAW_PBE O_s 07Sep2000                 
 POTCAR:    PAW_PBE C_s 06Sep2000                 
   VRHFIN =C: s2p2                                                                                  
   LEXCH  = PE                                                                                      
   EATOM  =   147.1560 eV,   10.8157 Ry                                                             
                                                                                                    
   TITEL  = PAW_PBE C_s 06Sep2000                                                                   
   LULTRA =        F    use ultrasoft PP ?                                                          
   IUNSCR =        0    unscreen: 0-lin 1-nonlin 2-no                                               
   RPACOR =    0.000    partial core radius                                                         
   POMASS =   12.011; ZVAL   =    4.000    mass and valenz                                          
   RCORE  =    1.850    outmost cutoff radius                                                       
   RWIGS  =    1.890; RWIGS  =    1.000    wigner-seitz radius (au A)                               
   ENMAX  =  273.911; ENMIN  =  205.433 eV                                                          
   RCLOC  =    0.804    cutoff for local pot                                                        
   LCOR   =        T    correct aug charges                                                         
   LPAW   =        T    paw PP                                                                      
   EAUG   =  439.243                                                                                
   DEXC   =    0.000                                                                                
   RMAX   =    1.897    core radius for proj-oper                                                   
   RAUG   =    1.300    factor for augmentation sphere                                              
   RDEP   =    1.940    radius for radial grids                                                     
   RDEPT  =    1.573    core radius for aug-charge                                                  
                                                                                                    
   Atomic configuration                                                                             
    4 entries                                                                                       
     n  l   j            E        occ.                                                              
     1  0  0.50      -273.3789   2.0000                                                             
     2  0  0.50       -13.7508   2.0000                                                             
     2  1  0.50        -5.2854   2.0000                                                             
     3  2  1.50        -1.3606   0.0000                                                             
   Description                                                                                      
     l       E           TYP  RCUT    TYP  RCUT                                                     
     0    -13.7508457     23  1.500                                                                 
     0    -11.0934578     23  1.500                                                                 
     1     -5.2854381     23  1.850                                                                 
     1     -1.3099858     23  1.850                                                                 
  local pseudopotential read in
  atomic valenz-charges read in
  non local Contribution for L=            0  read in
    real space projection operators read in
  non local Contribution for L=            0  read in
    real space projection operators read in
  non local Contribution for L=            1  read in
    real space projection operators read in
  non local Contribution for L=            1  read in
    real space projection operators read in
    PAW grid and wavefunctions read in
 
   number of l-projection  operators is LMAX  =            4
   number of lm-projection operators is LMMAX =            8
 
 POTCAR:    PAW_PBE O_s 07Sep2000                 
   VRHFIN =O: s2p4                                                                                  
   LEXCH  = PE                                                                                      
   EATOM  =   432.3788 eV,   31.7789 Ry                                                             
                                                                                                    
   TITEL  = PAW_PBE O_s 07Sep2000                                                                   
   LULTRA =        F    use ultrasoft PP ?                                                          
   IUNSCR =        0    unscreen: 0-lin 1-nonlin 2-no                                               
   RPACOR =    0.000    partial core radius                                                         
   POMASS =   16.000; ZVAL   =    6.000    mass and valenz                                          
   RCORE  =    1.850    outmost cutoff radius                                                       
   RWIGS  =    1.700; RWIGS  =    0.900    wigner-seitz radius (au A)                               
   ENMAX  =  282.853; ENMIN  =  212.140 eV                                                          
   RCLOC  =    0.804    cutoff for local pot                                                        
   LCOR   =        T    correct aug charges                                                         
   LPAW   =        T    paw PP                                                                      
   EAUG   =  412.352                                                                                
   RMAX   =    1.897    core radius for proj-oper                                                   
   RAUG   =    1.300    factor for augmentation sphere                                              
   RDEP   =    1.878    radius for radial grids                                                     
   RDEPT  =    1.572    core radius for aug-charge                                                  
                                                                                                    
   Atomic configuration                                                                             
    4 entries                                                                                       
     n  l   j            E        occ.                                                              
     1  0  0.50      -514.6923   2.0000                                                             
     2  0  0.50       -23.9615   2.0000                                                             
     2  1  0.50        -9.0305   4.0000                                                             
     3  2  1.50        -1.3606   0.0000                                                             
   Description                                                                                      
     l       E           TYP  RCUT    TYP  RCUT                                                     
     0    -23.9615315     23  1.500                                                                 
     0    -25.3221141     23  1.500                                                                 
     1     -9.0304908     23  1.850                                                                 
     1     -7.3935399     23  1.850                                                                 
  local pseudopotential read in
  atomic valenz-charges read in
  non local Contribution for L=            0  read in
    real space projection operators read in
  non local Contribution for L=            0  read in
    real space projection operators read in
  non local Contribution for L=            1  read in
    real space projection operators read in
  non local Contribution for L=            1  read in
    real space projection operators read in
    PAW grid and wavefunctions read in
 
   number of l-projection  operators is LMAX  =            4
   number of lm-projection operators is LMMAX =            8
 
  PAW_PBE C_s 06Sep2000                 :
 energy of atom  1       EATOM= -147.1560
 kinetic energy error for atom=    0.0002 (will be added to EATOM!!)
  PAW_PBE O_s 07Sep2000                 :
 energy of atom  2       EATOM= -432.3788
 kinetic energy error for atom=    0.0004 (will be added to EATOM!!)
 
 
 POSCAR:  C  O
  positions in cartesian coordinates
  No initial velocities read in
 exchange correlation table for  LEXCH =        8
   RHO(1)=    0.500       N(1)  =     2000
   RHO(2)=  100.500       N(2)  =     4000
 


--------------------------------------------------------------------------------------------------------


 ion  position               nearest neighbor table
   1  0.000  0.002  0.000-   3 1.17   4 1.17
   2  0.000  0.206  0.000-   5 1.17   6 1.17
   3  0.000  0.035  0.000-   1 1.17
   4  0.000  0.968  0.000-   1 1.17
   5  0.000  0.172  0.000-   2 1.17
   6  0.000  0.239  0.000-   2 1.17
 
  LATTYP: Found a simple cubic cell.
 ALAT       =    35.0000000000
  
  Lattice vectors:
  
 A1 = (  35.0000000000,   0.0000000000,   0.0000000000)
 A2 = (   0.0000000000,  35.0000000000,   0.0000000000)
 A3 = (   0.0000000000,   0.0000000000,  35.0000000000)


Analysis of symmetry for initial positions (statically):
=====================================================================
 Subroutine PRICEL returns:
 Original cell was already a primitive cell.
 

 Routine SETGRP: Setting up the symmetry group for a 
 simple cubic supercell.


 Subroutine GETGRP returns: Found 16 space group operations
 (whereof  8 operations were pure point group operations)
 out of a pool of 48 trial point group operations.


The static configuration has the point symmetry C_4v.
 The point group associated with its full space group is D_4h.


Analysis of symmetry for dynamics (positions and initial velocities):
=====================================================================
 Subroutine PRICEL returns:
 Original cell was already a primitive cell.
 

 Routine SETGRP: Setting up the symmetry group for a 
 simple cubic supercell.


 Subroutine GETGRP returns: Found 16 space group operations
 (whereof  8 operations were pure point group operations)
 out of a pool of 48 trial point group operations.


The dynamic configuration has the point symmetry C_4v.
 The point group associated with its full space group is D_4h.


 Subroutine INISYM returns: Found 16 space group operations
 (whereof  8 operations are pure point group operations),
 and found     1 'primitive' translations


----------------------------------------------------------------------------------------

                                     Primitive cell                                     

  volume of cell :   42875.0000

  direct lattice vectors                    reciprocal lattice vectors
    35.000000000  0.000000000  0.000000000     0.028571429  0.000000000  0.000000000
     0.000000000 35.000000000  0.000000000     0.000000000  0.028571429  0.000000000
     0.000000000  0.000000000 35.000000000     0.000000000  0.000000000  0.028571429

  length of vectors
    35.000000000 35.000000000 35.000000000     0.028571429  0.028571429  0.028571429

  position of ions in fractional coordinates (direct lattice)
     0.000000000  0.001628171  0.000000000
     0.000000000  0.205640743  0.000000000
     0.000000000  0.035063029  0.000000000
     0.000000000  0.968193314  0.000000000
     0.000000000  0.172205886  0.000000000
     0.000000000  0.239075600  0.000000000

  ion indices of the primitive-cell ions
   primitive index   ion index
                 1           1
                 2           2
                 3           3
                 4           4
                 5           5
                 6           6

----------------------------------------------------------------------------------------

 
 
 KPOINTS: automatic mesh                          

Automatic generation of k-mesh.
Space group operators:
 irot       det(A)        alpha          n_x          n_y          n_z        tau_x        tau_y        tau_z
    1     1.000000     0.000000     1.000000     0.000000     0.000000     0.000000     0.000000     0.000000
    2     1.000000    90.000000     0.000000     1.000000     0.000000     0.000000     0.000000     0.000000
    3    -1.000000   180.000000     0.000000     0.000000     1.000000     0.000000     0.000000     0.000000
    4    -1.000000   180.000000     0.707107     0.000000     0.707107     0.000000     0.000000     0.000000
    5    -1.000000   180.000000     1.000000     0.000000     0.000000     0.000000     0.000000     0.000000
    6     1.000000    90.000000     0.000000    -1.000000     0.000000     0.000000     0.000000     0.000000
    7     1.000000   180.000000     0.000000     1.000000     0.000000     0.000000     0.000000     0.000000
    8    -1.000000   180.000000     0.707107     0.000000    -0.707107     0.000000     0.000000     0.000000
    9    -1.000000     0.000000     1.000000     0.000000     0.000000     0.000000     0.207269     0.000000
   10    -1.000000    90.000000     0.000000     1.000000     0.000000     0.000000     0.207269     0.000000
   11     1.000000   180.000000     0.000000     0.000000     1.000000     0.000000     0.207269     0.000000
   12     1.000000   180.000000     0.707107     0.000000     0.707107     0.000000     0.207269     0.000000
   13     1.000000   180.000000     1.000000     0.000000     0.000000     0.000000     0.207269     0.000000
   14    -1.000000    90.000000     0.000000    -1.000000     0.000000     0.000000     0.207269     0.000000
   15    -1.000000   180.000000     0.000000     1.000000     0.000000     0.000000     0.207269     0.000000
   16     1.000000   180.000000     0.707107     0.000000    -0.707107     0.000000     0.207269     0.000000
 
 Subroutine IBZKPT returns following result:
 ===========================================
 
 Found      1 irreducible k-points:
 
 Following reciprocal coordinates:
            Coordinates               Weight
  0.000000  0.000000  0.000000      1.000000
 
 Following cartesian coordinates:
            Coordinates               Weight
  0.000000  0.000000  0.000000      1.000000
 


--------------------------------------------------------------------------------------------------------




 Dimension of arrays:
   k-points           NKPTS =      1   k-points in BZ     NKDIM =      1   number of bands    NBANDS=     20
   number of dos      NEDOS =    301   number of ions     NIONS =      6
   non local maximal  LDIM  =      4   non local SUM 2l+1 LMDIM =      8
   total plane-waves  NPLWV = ******
   max r-space proj   IRMAX =      1   max aug-charges    IRDMAX=  29269
   dimension x,y,z NGX =   378 NGY =  378 NGZ =  378
   dimension x,y,z NGXF=   756 NGYF=  756 NGZF=  756
   support grid    NGXF=   756 NGYF=  756 NGZF=  756
   ions per type =               2   4
   NGX,Y,Z   is equivalent  to a cutoff of  17.95, 17.95, 17.95 a.u.
   NGXF,Y,Z  is equivalent  to a cutoff of  35.91, 35.91, 35.91 a.u.

 SYSTEM =  C                                       
 POSCAR =   C  O                                   

 Startparameter for this run:
   NWRITE =      2    write-flag & timer
   PREC   = acc       normal or accurate (medium, high low for compatibility)
   ISTART =      0    job   : 0-new  1-cont  2-samecut
   ICHARG =      2    charge: 1-file 2-atom 10-const
   ISPIN  =      1    spin polarized calculation?
   LNONCOLLINEAR =      F non collinear calculations
   LSORBIT =      F    spin-orbit coupling
   INIWAV =      1    electr: 0-lowe 1-rand  2-diag
   LASPH  =      T    aspherical Exc in radial PAW
   METAGGA=      F    non-selfconsistent MetaGGA calc.

 Electronic Relaxation 1
   ENCUT  = 1000.0 eV  73.50 Ry    8.57 a.u.  90.25 90.25 90.25*2*pi/ulx,y,z
   ENINI  = 1000.0     initial cutoff
   ENAUG  =  439.2 eV  augmentation charge cutoff
   NELM   =     60;   NELMIN=  2; NELMDL= -5     # of ELM steps 
   EDIFF  = 0.1E-06   stopping-criterion for ELM
   LREAL  =      F    real-space projection
   NLSPLINE    = F    spline interpolate recip. space projectors
   LCOMPAT=      F    compatible to vasp.4.4
   GGA_COMPAT  = T    GGA compatible to vasp.4.4-vasp.4.6
   LMAXPAW     = -100 max onsite density
   LMAXMIX     =    2 max onsite mixed and CHGCAR
   VOSKOWN=      0    Vosko Wilk Nusair interpolation
   ROPT   =    0.00000   0.00000
 Ionic relaxation
   EDIFFG = 0.1E-05   stopping-criterion for IOM
   NSW    =      0    number of steps for IOM
   NBLOCK =      1;   KBLOCK =      1    inner block; outer block 
   IBRION =     -1    ionic relax: 0-MD 1-quasi-New 2-CG
   NFREE  =      0    steps in history (QN), initial steepest desc. (CG)
   ISIF   =      2    stress and relaxation
   IWAVPR =     10    prediction:  0-non 1-charg 2-wave 3-comb
   ISYM   =      2    0-nonsym 1-usesym 2-fastsym
   LCORR  =      T    Harris-Foulkes like correction to forces

   POTIM  = 0.5000    time-step for ionic-motion
   TEIN   =    0.0    initial temperature
   TEBEG  =    0.0;   TEEND  =   0.0 temperature during run
   SMASS  =  -3.00    Nose mass-parameter (am)
   estimated Nose-frequenzy (Omega)   =  0.10E-29 period in steps = 0.13E+47 mass=  -0.280E-25a.u.
   SCALEE = 1.0000    scale energy and forces
   NPACO  =    256;   APACO  = 16.0  distance and # of slots for P.C.
   PSTRESS=    0.0 pullay stress

  Mass of Ions in am
   POMASS =  12.01 16.00
  Ionic Valenz
   ZVAL   =   4.00  6.00
  Atomic Wigner-Seitz radii
   RWIGS  =  -1.00 -1.00
  virtual crystal weights 
   VCA    =   1.00  1.00
   NELECT =      32.0000    total number of electrons
   NUPDOWN=      -1.0000    fix difference up-down

 DOS related values:
   EMIN   =  10.00;   EMAX   =-10.00  energy-range for DOS
   EFERMI =   0.00
   ISMEAR =     0;   SIGMA  =   0.01  broadening in eV -4-tet -1-fermi 0-gaus

 Electronic relaxation 2 (details)
   IALGO  =     38    algorithm
   LDIAG  =      T    sub-space diagonalisation (order eigenvalues)
   LSUBROT=      F    optimize rotation matrix (better conditioning)
   TURBO    =      0    0=normal 1=particle mesh
   IRESTART =      0    0=no restart 2=restart with 2 vectors
   NREBOOT  =      0    no. of reboots
   NMIN     =      0    reboot dimension
   EREF     =   0.00    reference energy to select bands
   IMIX   =      4    mixing-type and parameters
     AMIX     =   0.40;   BMIX     =  1.00
     AMIX_MAG =   1.60;   BMIX_MAG =  1.00
     AMIN     =   0.10
     WC   =   100.;   INIMIX=   1;  MIXPRE=   1;  MAXMIX= -45

 Intra band minimization:
   WEIMIN = 0.0000     energy-eigenvalue tresh-hold
   EBREAK =  0.13E-08  absolut break condition
   DEPER  =   0.30     relativ break condition  

   TIME   =   0.40     timestep for ELM

  volume/ion in A,a.u.               =    7145.83     48222.46
  Fermi-wavevector in a.u.,A,eV,Ry     =   0.148499  0.280622  0.300035  0.022052
  Thomas-Fermi vector in A             =   0.821704
 
 Write flags
   LWAVE        =      T    write WAVECAR
   LDOWNSAMPLE  =      F    k-point downsampling of WAVECAR
   LCHARG       =      T    write CHGCAR
   LVTOT        =      F    write LOCPOT, total local potential
   LVHAR        =      F    write LOCPOT, Hartree potential only
   LELF         =      F    write electronic localiz. function (ELF)
   LORBIT       =      0    0 simple, 1 ext, 2 COOP (PROOUT), +10 PAW based schemes


 Dipole corrections
   LMONO  =      F    monopole corrections only (constant potential shift)
   LDIPOL =      F    correct potential (dipole corrections)
   IDIPOL =      4    1-x, 2-y, 3-z, 4-all directions 
   EPSILON=  1.0000000 bulk dielectric constant

 Exchange correlation treatment:
   GGA     =    --    GGA type
   LEXCH   =     8    internal setting for exchange type
   VOSKOWN=      0    Vosko Wilk Nusair interpolation
   LHFCALC =     F    Hartree Fock is set to
   LHFONE  =     F    Hartree Fock one center treatment
   AEXX    =    0.0000 exact exchange contribution

 Linear response parameters
   LEPSILON=     F    determine dielectric tensor
   LRPA    =     F    only Hartree local field effects (RPA)
   LNABLA  =     F    use nabla operator in PAW spheres
   LVEL    =     F    velocity operator in full k-point grid
   LINTERFAST=   F  fast interpolation
   KINTER  =     0    interpolate to denser k-point grid
   CSHIFT  =0.1000    complex shift for real part using Kramers Kronig
   OMEGAMAX=  -1.0    maximum frequency
   DEG_THRESHOLD= 0.2000000E-02 threshold for treating states as degnerate
   RTIME   =   -0.100 relaxation time in fs
  (WPLASMAI=    0.000 imaginary part of plasma frequency in eV, 0.658/RTIME)
   DFIELD  = 0.0000000 0.0000000 0.0000000 field for delta impulse in time
 
 Orbital magnetization related:
   ORBITALMAG=     F  switch on orbital magnetization
   LCHIMAG   =     F  perturbation theory with respect to B field
   DQ        =  0.001000  dq finite difference perturbation B field
   LLRAUG    =     F  two centre corrections for induced B field



--------------------------------------------------------------------------------------------------------


 Static calculation
 charge density and potential will be updated during run
 non-spin polarized calculation
 Variant of blocked Davidson
 Davidson routine will perform the subspace rotation
 perform sub-space diagonalisation
    after iterative eigenvector-optimisation
 modified Broyden-mixing scheme, WC =      100.0
 initial mixing is a Kerker type mixing with AMIX =  0.4000 and BMIX =      1.0000
 Hartree-type preconditioning will be used
 using additional bands             4
 reciprocal scheme for non local part
 calculate Harris-corrections to forces 
   (improved forces if not selfconsistent)
 use gradient corrections 
 use of overlap-Matrix (Vanderbilt PP)
 Gauss-broadening in eV      SIGMA  =   0.01


--------------------------------------------------------------------------------------------------------


  energy-cutoff  :     1000.00
  volume of cell :    42875.00
      direct lattice vectors                 reciprocal lattice vectors
    35.000000000  0.000000000  0.000000000     0.028571429  0.000000000  0.000000000
     0.000000000 35.000000000  0.000000000     0.000000000  0.028571429  0.000000000
     0.000000000  0.000000000 35.000000000     0.000000000  0.000000000  0.028571429

  length of vectors
    35.000000000 35.000000000 35.000000000     0.028571429  0.028571429  0.028571429


 
 k-points in units of 2pi/SCALE and weight: automatic mesh                          
   0.00000000  0.00000000  0.00000000       1.000
 
 k-points in reciprocal lattice and weights: automatic mesh                          
   0.00000000  0.00000000  0.00000000       1.000
 
 position of ions in fractional coordinates (direct lattice) 
   0.00000000  0.00162817  0.00000000
   0.00000000  0.20564074  0.00000000
   0.00000000  0.03506303  0.00000000
   0.00000000  0.96819331  0.00000000
   0.00000000  0.17220589  0.00000000
   0.00000000  0.23907560  0.00000000
 
 position of ions in cartesian coordinates  (Angst):
   0.00000000  0.05698600  0.00000000
   0.00000000  7.19742600  0.00000000
   0.00000000  1.22720600  0.00000000
   0.00000000 33.88676600  0.00000000
   0.00000000  6.02720600  0.00000000
   0.00000000  8.36764600  0.00000000
 


--------------------------------------------------------------------------------------------------------


 use parallel FFT for orbitals z direction half grid
 k-point   1 :   0.0000 0.0000 0.0000  plane waves: 1539209

 maximum and minimum number of plane-waves per node :    192406   192397

 maximum number of plane-waves:   1539209
 maximum index in each direction: 
   IXMAX=   90   IYMAX=   90   IZMAX=   90
   IXMIN=  -90   IYMIN=  -90   IZMIN=    0


 parallel 3D FFT for wavefunctions:
    minimum data exchange during FFTs selected (reduces bandwidth)
 parallel 3D FFT for charge:
    minimum data exchange during FFTs selected (reduces bandwidth)


 total amount of memory used by VASP MPI-rank0  2978131. kBytes
=======================================================================

   base      :      30000. kBytes
   nonl-proj :      43098. kBytes
   fftplans  :    1060428. kBytes
   grid      :    1813819. kBytes
   one-center:          1. kBytes
   wavefun   :      30785. kBytes
 
     INWAV:  cpu time    0.0000: real time    0.0000
 Broyden mixing: mesh for mixing (old mesh)
   NGX =181   NGY =181   NGZ =181
  (NGX  =756   NGY  =756   NGZ  =756)
  gives a total of ****** points

 initial charge density was supplied:
 charge density of overlapping atoms calculated
 number of electron      32.0000000 magnetization 
 keeping initial charge density in first step


--------------------------------------------------------------------------------------------------------


 Maximum index for augmentation-charges          2508 (set IRDMAX)


--------------------------------------------------------------------------------------------------------


 First call to EWALD:  gamma=   0.051
 Maximum number of real-space cells 3x 3x 3
 Maximum number of reciprocal cells 3x 3x 3

    FEWALD:  cpu time    0.0006: real time    0.0006


--------------------------------------- Iteration      1(   1)  ---------------------------------------


    POTLOK:  cpu time   17.3017: real time   17.3210
    SETDIJ:  cpu time    0.0621: real time    0.0639
     EDDAV:  cpu time   12.0932: real time   12.1379
       DOS:  cpu time    0.0104: real time    0.0104
    --------------------------------------------
      LOOP:  cpu time   29.4674: real time   29.5332

 eigenvalue-minimisations  :    56
 total energy-change (2. order) : 0.3533502E+03  (-0.5632417E+03)
 number of electron      32.0000000 magnetization 
 augmentation part       32.0000000 magnetization 

 Free energy of the ion-electron system (eV)
  ---------------------------------------------------
  alpha Z        PSCENC =         0.07205883
  Ewald energy   TEWEN  =      1576.33640564
  -Hartree energ DENC   =     -3177.46483334
  -exchange      EXHF   =         0.00000000
  -V(xc)+E(xc)   XCENC  =       135.98155606
  PAW double counting   =      1593.34061361    -1611.57548628
  entropy T*S    EENTRO =        -0.00000140
  eigenvalues    EBANDS =      -187.16515797
  atomic energy  EATOM  =      2023.82507259
  Solvation  Ediel_sol  =         0.00000000
  ---------------------------------------------------
  free energy    TOTEN  =       353.35022775 eV

  energy without entropy =      353.35022915  energy(sigma->0) =      353.35022845


--------------------------------------------------------------------------------------------------------




--------------------------------------- Iteration      1(   2)  ---------------------------------------


     EDDAV:  cpu time   13.3481: real time   13.3634
       DOS:  cpu time    0.0013: real time    0.0013
    --------------------------------------------
      LOOP:  cpu time   13.3493: real time   13.3646

 eigenvalue-minimisations  :    64
 total energy-change (2. order) :-0.1860459E+03  (-0.1857569E+03)
 number of electron      32.0000000 magnetization 
 augmentation part       32.0000000 magnetization 

 Free energy of the ion-electron system (eV)
  ---------------------------------------------------
  alpha Z        PSCENC =         0.07205883
  Ewald energy   TEWEN  =      1576.33640564
  -Hartree energ DENC   =     -3177.46483334
  -exchange      EXHF   =         0.00000000
  -V(xc)+E(xc)   XCENC  =       135.98155606
  PAW double counting   =      1593.34061361    -1611.57548628
  entropy T*S    EENTRO =        -0.00000000
  eigenvalues    EBANDS =      -373.21103961
  atomic energy  EATOM  =      2023.82507259
  Solvation  Ediel_sol  =         0.00000000
  ---------------------------------------------------
  free energy    TOTEN  =       167.30434751 eV

  energy without entropy =      167.30434751  energy(sigma->0) =      167.30434751


--------------------------------------------------------------------------------------------------------




--------------------------------------- Iteration      1(   3)  ---------------------------------------


     EDDAV:  cpu time   13.4149: real time   13.4309
       DOS:  cpu time    0.0007: real time    0.0007
    --------------------------------------------
      LOOP:  cpu time   13.4156: real time   13.4316

 eigenvalue-minimisations  :    64
 total energy-change (2. order) :-0.1690370E+03  (-0.1592277E+03)
 number of electron      32.0000000 magnetization 
 augmentation part       32.0000000 magnetization 

 Free energy of the ion-electron system (eV)
  ---------------------------------------------------
  alpha Z        PSCENC =         0.07205883
  Ewald energy   TEWEN  =      1576.33640564
  -Hartree energ DENC   =     -3177.46483334
  -exchange      EXHF   =         0.00000000
  -V(xc)+E(xc)   XCENC  =       135.98155606
  PAW double counting   =      1593.34061361    -1611.57548628
  entropy T*S    EENTRO =        -0.00000000
  eigenvalues    EBANDS =      -542.24802470
  atomic energy  EATOM  =      2023.82507259
  Solvation  Ediel_sol  =         0.00000000
  ---------------------------------------------------
  free energy    TOTEN  =        -1.73263759 eV

  energy without entropy =       -1.73263759  energy(sigma->0) =       -1.73263759


--------------------------------------------------------------------------------------------------------




--------------------------------------- Iteration      1(   4)  ---------------------------------------


     EDDAV:  cpu time   10.2260: real time   10.2378
       DOS:  cpu time    0.0007: real time    0.0007
    --------------------------------------------
      LOOP:  cpu time   10.2267: real time   10.2385

 eigenvalue-minimisations  :    44
 total energy-change (2. order) :-0.4450383E+02  (-0.4449027E+02)
 number of electron      32.0000000 magnetization 
 augmentation part       32.0000000 magnetization 

 Free energy of the ion-electron system (eV)
  ---------------------------------------------------
  alpha Z        PSCENC =         0.07205883
  Ewald energy   TEWEN  =      1576.33640564
  -Hartree energ DENC   =     -3177.46483334
  -exchange      EXHF   =         0.00000000
  -V(xc)+E(xc)   XCENC  =       135.98155606
  PAW double counting   =      1593.34061361    -1611.57548628
  entropy T*S    EENTRO =        -0.00000000
  eigenvalues    EBANDS =      -586.75185931
  atomic energy  EATOM  =      2023.82507259
  Solvation  Ediel_sol  =         0.00000000
  ---------------------------------------------------
  free energy    TOTEN  =       -46.23647219 eV

  energy without entropy =      -46.23647219  energy(sigma->0) =      -46.23647219


--------------------------------------------------------------------------------------------------------




--------------------------------------- Iteration      1(   5)  ---------------------------------------


     EDDAV:  cpu time   10.8746: real time   10.8870
       DOS:  cpu time    0.0013: real time    0.0013
    CHARGE:  cpu time    9.9520: real time    9.9588
    MIXING:  cpu time    0.3497: real time    0.3500
    --------------------------------------------
      LOOP:  cpu time   21.1775: real time   21.1972

 eigenvalue-minimisations  :    48
 total energy-change (2. order) :-0.1536386E+01  (-0.1535591E+01)
 number of electron      31.9999997 magnetization 
 augmentation part        6.0150074 magnetization 

 Broyden mixing:
  rms(total) = 0.65065E+01    rms(broyden)= 0.65065E+01
  rms(prec ) = 0.65126E+01
  weight for this iteration     100.00

 Free energy of the ion-electron system (eV)
  ---------------------------------------------------
  alpha Z        PSCENC =         0.07205883
  Ewald energy   TEWEN  =      1576.33640564
  -Hartree energ DENC   =     -3177.46483334
  -exchange      EXHF   =         0.00000000
  -V(xc)+E(xc)   XCENC  =       135.98155606
  PAW double counting   =      1593.34061361    -1611.57548628
  entropy T*S    EENTRO =        -0.00000000
  eigenvalues    EBANDS =      -588.28824569
  atomic energy  EATOM  =      2023.82507259
  Solvation  Ediel_sol  =         0.00000000
  ---------------------------------------------------
  free energy    TOTEN  =       -47.77285857 eV

  energy without entropy =      -47.77285857  energy(sigma->0) =      -47.77285857


--------------------------------------------------------------------------------------------------------




--------------------------------------- Iteration      1(   6)  ---------------------------------------


    POTLOK:  cpu time   17.0878: real time   17.1076
    SETDIJ:  cpu time    0.0544: real time    0.0544
     EDDAV:  cpu time   10.8751: real time   10.9013
       DOS:  cpu time    0.0154: real time    0.0154
    CHARGE:  cpu time    9.8019: real time    9.8090
    MIXING:  cpu time    0.3903: real time    0.3956
    --------------------------------------------
      LOOP:  cpu time   38.2249: real time   38.2833

 eigenvalue-minimisations  :    48
 total energy-change (2. order) : 0.3387518E+01  (-0.2306763E+01)
 number of electron      31.9999997 magnetization 
 augmentation part        5.2916302 magnetization 

 Broyden mixing:
  rms(total) = 0.64156E+01    rms(broyden)= 0.64156E+01
  rms(prec ) = 0.64160E+01
  weight for this iteration     100.00

 eigenvalues of (default mixing * dielectric matrix)
  average eigenvalue GAMMA=   0.5995
  0.5995

 Free energy of the ion-electron system (eV)
  ---------------------------------------------------
  alpha Z        PSCENC =         0.07205883
  Ewald energy   TEWEN  =      1576.33640564
  -Hartree energ DENC   =     -3227.42483455
  -exchange      EXHF   =         0.00000000
  -V(xc)+E(xc)   XCENC  =       139.07191978
  PAW double counting   =      3411.88997540    -3433.09927183
  entropy T*S    EENTRO =        -0.00000000
  eigenvalues    EBANDS =      -535.05666616
  atomic energy  EATOM  =      2023.82507259
  Solvation  Ediel_sol  =         0.00000000
  ---------------------------------------------------
  free energy    TOTEN  =       -44.38534029 eV

  energy without entropy =      -44.38534029  energy(sigma->0) =      -44.38534029


--------------------------------------------------------------------------------------------------------




--------------------------------------- Iteration      1(   7)  ---------------------------------------


    POTLOK:  cpu time   17.0952: real time   17.1137
    SETDIJ:  cpu time    0.0529: real time    0.0529
     EDDAV:  cpu time   10.8726: real time   10.8898
       DOS:  cpu time    0.0121: real time    0.0121
    CHARGE:  cpu time    9.8979: real time    9.9060
    MIXING:  cpu time    0.3465: real time    0.3469
    --------------------------------------------
      LOOP:  cpu time   38.2772: real time   38.3213

 eigenvalue-minimisations  :    48
 total energy-change (2. order) : 0.7505656E-01  (-0.1077938E+00)
 number of electron      31.9999997 magnetization 
 augmentation part        5.3585470 magnetization 

 Broyden mixing:
  rms(total) = 0.44896E+01    rms(broyden)= 0.44896E+01
  rms(prec ) = 0.44901E+01
  weight for this iteration     100.00

 eigenvalues of (default mixing * dielectric matrix)
  average eigenvalue GAMMA=   1.6712
  0.7685  2.5740

 Free energy of the ion-electron system (eV)
  ---------------------------------------------------
  alpha Z        PSCENC =         0.07205883
  Ewald energy   TEWEN  =      1576.33640564
  -Hartree energ DENC   =     -3231.34670290
  -exchange      EXHF   =         0.00000000
  -V(xc)+E(xc)   XCENC  =       139.22545034
  PAW double counting   =      4655.30246957    -4676.17887452
  entropy T*S    EENTRO =        -0.00000000
  eigenvalues    EBANDS =      -531.54616328
  atomic energy  EATOM  =      2023.82507259
  Solvation  Ediel_sol  =         0.00000000
  ---------------------------------------------------
  free energy    TOTEN  =       -44.31028373 eV

  energy without entropy =      -44.31028373  energy(sigma->0) =      -44.31028373


--------------------------------------------------------------------------------------------------------




--------------------------------------- Iteration      1(   8)  ---------------------------------------


    POTLOK:  cpu time   17.1027: real time   17.1210
    SETDIJ:  cpu time    0.0710: real time    0.0710
     EDDAV:  cpu time   13.3565: real time   13.3719
       DOS:  cpu time    0.0169: real time    0.0169
    CHARGE:  cpu time    9.8810: real time    9.8925
    MIXING:  cpu time    0.3710: real time    0.3714
    --------------------------------------------
      LOOP:  cpu time   40.7991: real time   40.8448

 eigenvalue-minimisations  :    64
 total energy-change (2. order) : 0.1636470E+00  (-0.1878542E+00)
 number of electron      31.9999997 magnetization 
 augmentation part        5.3871758 magnetization 

 Broyden mixing:
  rms(total) = 0.72209E+00    rms(broyden)= 0.72209E+00
  rms(prec ) = 0.72357E+00
  weight for this iteration     100.00

 eigenvalues of (default mixing * dielectric matrix)
  average eigenvalue GAMMA=   1.3322
  2.5461  0.7253  0.7253

 Free energy of the ion-electron system (eV)
  ---------------------------------------------------
  alpha Z        PSCENC =         0.07205883
  Ewald energy   TEWEN  =      1576.33640564
  -Hartree energ DENC   =     -3252.41105768
  -exchange      EXHF   =         0.00000000
  -V(xc)+E(xc)   XCENC  =       140.19598400
  PAW double counting   =      9324.31247269    -9344.99529348
  entropy T*S    EENTRO =        -0.00000000
  eigenvalues    EBANDS =      -511.48227933
  atomic energy  EATOM  =      2023.82507259
  Solvation  Ediel_sol  =         0.00000000
  ---------------------------------------------------
  free energy    TOTEN  =       -44.14663673 eV

  energy without entropy =      -44.14663673  energy(sigma->0) =      -44.14663673


--------------------------------------------------------------------------------------------------------




--------------------------------------- Iteration      1(   9)  ---------------------------------------


    POTLOK:  cpu time   17.1033: real time   17.1214
    SETDIJ:  cpu time    0.0595: real time    0.0595
     EDDAV:  cpu time   13.3766: real time   13.3951
       DOS:  cpu time    0.0116: real time    0.0116
    CHARGE:  cpu time    9.8579: real time    9.8650
    MIXING:  cpu time    0.3988: real time    0.3992
    --------------------------------------------
      LOOP:  cpu time   40.8078: real time   40.8519

 eigenvalue-minimisations  :    64
 total energy-change (2. order) : 0.7875796E-01  (-0.2768576E-01)
 number of electron      31.9999997 magnetization 
 augmentation part        5.3442285 magnetization 

 Broyden mixing:
  rms(total) = 0.34005E+00    rms(broyden)= 0.34005E+00
  rms(prec ) = 0.34053E+00
  weight for this iteration     100.00

 eigenvalues of (default mixing * dielectric matrix)
  average eigenvalue GAMMA=   1.3062
  2.5102  0.9325  0.9325  0.8494

 Free energy of the ion-electron system (eV)
  ---------------------------------------------------
  alpha Z        PSCENC =         0.07205883
  Ewald energy   TEWEN  =      1576.33640564
  -Hartree energ DENC   =     -3252.23262410
  -exchange      EXHF   =         0.00000000
  -V(xc)+E(xc)   XCENC  =       140.22798585
  PAW double counting   =      9445.07288626    -9465.83373456
  entropy T*S    EENTRO =        -0.00000000
  eigenvalues    EBANDS =      -511.53592928
  atomic energy  EATOM  =      2023.82507259
  Solvation  Ediel_sol  =         0.00000000
  ---------------------------------------------------
  free energy    TOTEN  =       -44.06787877 eV

  energy without entropy =      -44.06787877  energy(sigma->0) =      -44.06787877


--------------------------------------------------------------------------------------------------------




--------------------------------------- Iteration      1(  10)  ---------------------------------------


    POTLOK:  cpu time   17.1526: real time   17.1709
    SETDIJ:  cpu time    0.0543: real time    0.0543
     EDDAV:  cpu time   13.3433: real time   13.3588
       DOS:  cpu time    0.0138: real time    0.0138
    CHARGE:  cpu time    9.9183: real time    9.9255
    MIXING:  cpu time    0.3746: real time    0.3750
    --------------------------------------------
      LOOP:  cpu time   40.8569: real time   40.8984

 eigenvalue-minimisations  :    64
 total energy-change (2. order) : 0.6597359E-02  (-0.3810884E-02)
 number of electron      31.9999997 magnetization 
 augmentation part        5.3356198 magnetization 

 Broyden mixing:
  rms(total) = 0.12057E+00    rms(broyden)= 0.12057E+00
  rms(prec ) = 0.12085E+00
  weight for this iteration     100.00

 eigenvalues of (default mixing * dielectric matrix)
  average eigenvalue GAMMA=   1.3433
  2.4851  1.6692  0.8912  0.8912  0.7799

 Free energy of the ion-electron system (eV)
  ---------------------------------------------------
  alpha Z        PSCENC =         0.07205883
  Ewald energy   TEWEN  =      1576.33640564
  -Hartree energ DENC   =     -3251.30158517
  -exchange      EXHF   =         0.00000000
  -V(xc)+E(xc)   XCENC  =       140.17001263
  PAW double counting   =      9531.05716262    -9551.70130331
  entropy T*S    EENTRO =        -0.00000000
  eigenvalues    EBANDS =      -512.51910525
  atomic energy  EATOM  =      2023.82507259
  Solvation  Ediel_sol  =         0.00000000
  ---------------------------------------------------
  free energy    TOTEN  =       -44.06128141 eV

  energy without entropy =      -44.06128141  energy(sigma->0) =      -44.06128141


--------------------------------------------------------------------------------------------------------




--------------------------------------- Iteration      1(  11)  ---------------------------------------


    POTLOK:  cpu time   17.1590: real time   17.1776
    SETDIJ:  cpu time    0.0474: real time    0.0474
     EDDAV:  cpu time   13.4021: real time   13.4180
       DOS:  cpu time    0.0121: real time    0.0121
    CHARGE:  cpu time    9.9028: real time    9.9101
    MIXING:  cpu time    0.3897: real time    0.3901
    --------------------------------------------
      LOOP:  cpu time   40.9130: real time   40.9553

 eigenvalue-minimisations  :    64
 total energy-change (2. order) :-0.2986830E-02  (-0.6173620E-03)
 number of electron      31.9999997 magnetization 
 augmentation part        5.3359384 magnetization 

 Broyden mixing:
  rms(total) = 0.24997E-01    rms(broyden)= 0.24997E-01
  rms(prec ) = 0.25391E-01
  weight for this iteration     100.00

 eigenvalues of (default mixing * dielectric matrix)
  average eigenvalue GAMMA=   1.3550
  2.3731  2.2087  0.8981  0.8981  0.9095  0.8427

 Free energy of the ion-electron system (eV)
  ---------------------------------------------------
  alpha Z        PSCENC =         0.07205883
  Ewald energy   TEWEN  =      1576.33640564
  -Hartree energ DENC   =     -3251.04438261
  -exchange      EXHF   =         0.00000000
  -V(xc)+E(xc)   XCENC  =       140.13547022
  PAW double counting   =      9622.55522201    -9643.09731919
  entropy T*S    EENTRO =        -0.00000000
  eigenvalues    EBANDS =      -512.84679573
  atomic energy  EATOM  =      2023.82507259
  Solvation  Ediel_sol  =         0.00000000
  ---------------------------------------------------
  free energy    TOTEN  =       -44.06426824 eV

  energy without entropy =      -44.06426824  energy(sigma->0) =      -44.06426824


--------------------------------------------------------------------------------------------------------




--------------------------------------- Iteration      1(  12)  ---------------------------------------


    POTLOK:  cpu time   17.1384: real time   17.1570
    SETDIJ:  cpu time    0.0602: real time    0.0603
     EDDAV:  cpu time   12.0651: real time   12.0894
       DOS:  cpu time    0.0107: real time    0.0107
    CHARGE:  cpu time    9.9330: real time    9.9434
    MIXING:  cpu time    0.4201: real time    0.4205
    --------------------------------------------
      LOOP:  cpu time   39.6276: real time   39.6813

 eigenvalue-minimisations  :    56
 total energy-change (2. order) :-0.3535381E-02  (-0.5601346E-04)
 number of electron      31.9999997 magnetization 
 augmentation part        5.3354270 magnetization 

 Broyden mixing:
  rms(total) = 0.87445E-02    rms(broyden)= 0.87445E-02
  rms(prec ) = 0.93732E-02
  weight for this iteration     100.00

 eigenvalues of (default mixing * dielectric matrix)
  average eigenvalue GAMMA=   1.3699
  2.4432  2.4432  1.0986  1.0986  0.8735  0.8735  0.7590

 Free energy of the ion-electron system (eV)
  ---------------------------------------------------
  alpha Z        PSCENC =         0.07205883
  Ewald energy   TEWEN  =      1576.33640564
  -Hartree energ DENC   =     -3251.39440105
  -exchange      EXHF   =         0.00000000
  -V(xc)+E(xc)   XCENC  =       140.13672987
  PAW double counting   =      9639.99001859    -9660.50728520
  entropy T*S    EENTRO =        -0.00000000
  eigenvalues    EBANDS =      -512.52640290
  atomic energy  EATOM  =      2023.82507259
  Solvation  Ediel_sol  =         0.00000000
  ---------------------------------------------------
  free energy    TOTEN  =       -44.06780362 eV

  energy without entropy =      -44.06780362  energy(sigma->0) =      -44.06780362


--------------------------------------------------------------------------------------------------------




--------------------------------------- Iteration      1(  13)  ---------------------------------------


    POTLOK:  cpu time   17.1300: real time   17.1549
    SETDIJ:  cpu time    0.0549: real time    0.0549
     EDDAV:  cpu time   10.8827: real time   10.8952
       DOS:  cpu time    0.0121: real time    0.0121
    CHARGE:  cpu time    9.8814: real time    9.8886
    MIXING:  cpu time    0.4427: real time    0.4432
    --------------------------------------------
      LOOP:  cpu time   38.4038: real time   38.4489

 eigenvalue-minimisations  :    48
 total energy-change (2. order) :-0.3085054E-02  (-0.2087632E-04)
 number of electron      31.9999997 magnetization 
 augmentation part        5.3351889 magnetization 

 Broyden mixing:
  rms(total) = 0.61047E-02    rms(broyden)= 0.61047E-02
  rms(prec ) = 0.66230E-02
  weight for this iteration     100.00

 eigenvalues of (default mixing * dielectric matrix)
  average eigenvalue GAMMA=   1.4772
  2.8886  2.5330  1.8356  1.2136  0.8762  0.8762  0.8128  0.7819

 Free energy of the ion-electron system (eV)
  ---------------------------------------------------
  alpha Z        PSCENC =         0.07205883
  Ewald energy   TEWEN  =      1576.33640564
  -Hartree energ DENC   =     -3251.81639261
  -exchange      EXHF   =         0.00000000
  -V(xc)+E(xc)   XCENC  =       140.14309684
  PAW double counting   =      9647.55847197    -9668.07220136
  entropy T*S    EENTRO =        -0.00000000
  eigenvalues    EBANDS =      -512.11740057
  atomic energy  EATOM  =      2023.82507259
  Solvation  Ediel_sol  =         0.00000000
  ---------------------------------------------------
  free energy    TOTEN  =       -44.07088867 eV

  energy without entropy =      -44.07088867  energy(sigma->0) =      -44.07088867


--------------------------------------------------------------------------------------------------------




--------------------------------------- Iteration      1(  14)  ---------------------------------------


    POTLOK:  cpu time   17.1987: real time   17.2170
    SETDIJ:  cpu time    0.0508: real time    0.0508
     EDDAV:  cpu time   10.8228: real time   10.8352
       DOS:  cpu time    0.0162: real time    0.0162
    CHARGE:  cpu time    9.9163: real time    9.9235
    MIXING:  cpu time    0.4201: real time    0.4206
    --------------------------------------------
      LOOP:  cpu time   38.4249: real time   38.4634

 eigenvalue-minimisations  :    48
 total energy-change (2. order) :-0.4086370E-02  (-0.4958417E-04)
 number of electron      31.9999997 magnetization 
 augmentation part        5.3350840 magnetization 

 Broyden mixing:
  rms(total) = 0.24471E-02    rms(broyden)= 0.24471E-02
  rms(prec ) = 0.28703E-02
  weight for this iteration     100.00

 eigenvalues of (default mixing * dielectric matrix)
  average eigenvalue GAMMA=   1.5323
  3.6106  2.4296  2.0986  1.2231  1.0812  0.8750  0.8750  0.7986  0.7986

 Free energy of the ion-electron system (eV)
  ---------------------------------------------------
  alpha Z        PSCENC =         0.07205883
  Ewald energy   TEWEN  =      1576.33640564
  -Hartree energ DENC   =     -3252.41862889
  -exchange      EXHF   =         0.00000000
  -V(xc)+E(xc)   XCENC  =       140.15126571
  PAW double counting   =      9645.00065218    -9665.51791742
  entropy T*S    EENTRO =        -0.00000000
  eigenvalues    EBANDS =      -511.52388369
  atomic energy  EATOM  =      2023.82507259
  Solvation  Ediel_sol  =         0.00000000
  ---------------------------------------------------
  free energy    TOTEN  =       -44.07497504 eV

  energy without entropy =      -44.07497504  energy(sigma->0) =      -44.07497504


--------------------------------------------------------------------------------------------------------




--------------------------------------- Iteration      1(  15)  ---------------------------------------


    POTLOK:  cpu time   17.1276: real time   17.1461
    SETDIJ:  cpu time    0.0547: real time    0.0547
     EDDAV:  cpu time   10.8075: real time   10.8259
       DOS:  cpu time    0.0097: real time    0.0097
    CHARGE:  cpu time    9.8968: real time    9.9044
    MIXING:  cpu time    0.4638: real time    0.4643
    --------------------------------------------
      LOOP:  cpu time   38.3601: real time   38.4051

 eigenvalue-minimisations  :    48
 total energy-change (2. order) :-0.2037254E-02  (-0.1935284E-04)
 number of electron      31.9999997 magnetization 
 augmentation part        5.3349493 magnetization 

 Broyden mixing:
  rms(total) = 0.32726E-02    rms(broyden)= 0.32726E-02
  rms(prec ) = 0.34042E-02
  weight for this iteration     100.00

 eigenvalues of (default mixing * dielectric matrix)
  average eigenvalue GAMMA=   1.7240
  4.6830  2.4805  2.4805  2.0323  1.2588  0.8835  0.8835  0.8768  0.8768  0.7840

 Free energy of the ion-electron system (eV)
  ---------------------------------------------------
  alpha Z        PSCENC =         0.07205883
  Ewald energy   TEWEN  =      1576.33640564
  -Hartree energ DENC   =     -3252.72963548
  -exchange      EXHF   =         0.00000000
  -V(xc)+E(xc)   XCENC  =       140.15351537
  PAW double counting   =      9644.46070963    -9664.97860520
  entropy T*S    EENTRO =        -0.00000000
  eigenvalues    EBANDS =      -511.21653368
  atomic energy  EATOM  =      2023.82507259
  Solvation  Ediel_sol  =         0.00000000
  ---------------------------------------------------
  free energy    TOTEN  =       -44.07701229 eV

  energy without entropy =      -44.07701229  energy(sigma->0) =      -44.07701229


--------------------------------------------------------------------------------------------------------




--------------------------------------- Iteration      1(  16)  ---------------------------------------


    POTLOK:  cpu time   17.1037: real time   17.1224
    SETDIJ:  cpu time    0.0553: real time    0.0554
     EDDAV:  cpu time   10.8670: real time   10.8816
       DOS:  cpu time    0.0133: real time    0.0133
    CHARGE:  cpu time    9.9155: real time    9.9236
    MIXING:  cpu time    0.4613: real time    0.4618
    --------------------------------------------
      LOOP:  cpu time   38.4161: real time   38.4581

 eigenvalue-minimisations  :    48
 total energy-change (2. order) :-0.1435306E-02  (-0.1425279E-04)
 number of electron      31.9999997 magnetization 
 augmentation part        5.3347192 magnetization 

 Broyden mixing:
  rms(total) = 0.87704E-03    rms(broyden)= 0.87704E-03
  rms(prec ) = 0.10026E-02
  weight for this iteration     100.00

 eigenvalues of (default mixing * dielectric matrix)
  average eigenvalue GAMMA=   1.7534
  5.6112  2.5769  2.5769  1.9686  1.2771  1.0282  0.8862  0.8862  0.8102  0.8331
  0.8331

 Free energy of the ion-electron system (eV)
  ---------------------------------------------------
  alpha Z        PSCENC =         0.07205883
  Ewald energy   TEWEN  =      1576.33640564
  -Hartree energ DENC   =     -3252.93542753
  -exchange      EXHF   =         0.00000000
  -V(xc)+E(xc)   XCENC  =       140.15268334
  PAW double counting   =      9642.83495391    -9663.35084282
  entropy T*S    EENTRO =        -0.00000000
  eigenvalues    EBANDS =      -511.01335156
  atomic energy  EATOM  =      2023.82507259
  Solvation  Ediel_sol  =         0.00000000
  ---------------------------------------------------
  free energy    TOTEN  =       -44.07844760 eV

  energy without entropy =      -44.07844760  energy(sigma->0) =      -44.07844760


--------------------------------------------------------------------------------------------------------




--------------------------------------- Iteration      1(  17)  ---------------------------------------


    POTLOK:  cpu time   17.1032: real time   17.1225
    SETDIJ:  cpu time    0.0435: real time    0.0435
     EDDAV:  cpu time   13.3760: real time   13.3916
       DOS:  cpu time    0.0117: real time    0.0117
    CHARGE:  cpu time    9.8971: real time    9.9063
    MIXING:  cpu time    0.4776: real time    0.4781
    --------------------------------------------
      LOOP:  cpu time   40.9091: real time   40.9537

 eigenvalue-minimisations  :    64
 total energy-change (2. order) :-0.4399258E-03  (-0.1842263E-05)
 number of electron      31.9999997 magnetization 
 augmentation part        5.3346427 magnetization 

 Broyden mixing:
  rms(total) = 0.72759E-03    rms(broyden)= 0.72759E-03
  rms(prec ) = 0.80975E-03
  weight for this iteration     100.00

 eigenvalues of (default mixing * dielectric matrix)
  average eigenvalue GAMMA=   1.7784
  5.8880  2.8938  2.3491  1.7079  1.7079  1.7150  0.8832  0.8832  0.9618  0.8487
  0.7752  0.7267

 Free energy of the ion-electron system (eV)
  ---------------------------------------------------
  alpha Z        PSCENC =         0.07205883
  Ewald energy   TEWEN  =      1576.33640564
  -Hartree energ DENC   =     -3253.01012914
  -exchange      EXHF   =         0.00000000
  -V(xc)+E(xc)   XCENC  =       140.15281483
  PAW double counting   =      9643.07564576    -9663.59101037
  entropy T*S    EENTRO =        -0.00000000
  eigenvalues    EBANDS =      -510.93974567
  atomic energy  EATOM  =      2023.82507259
  Solvation  Ediel_sol  =         0.00000000
  ---------------------------------------------------
  free energy    TOTEN  =       -44.07888753 eV

  energy without entropy =      -44.07888753  energy(sigma->0) =      -44.07888753


--------------------------------------------------------------------------------------------------------




--------------------------------------- Iteration      1(  18)  ---------------------------------------


    POTLOK:  cpu time   17.1202: real time   17.1387
    SETDIJ:  cpu time    0.0640: real time    0.0640
     EDDAV:  cpu time   10.8716: real time   10.8843
       DOS:  cpu time    0.0061: real time    0.0061
    CHARGE:  cpu time    9.8809: real time    9.8880
    MIXING:  cpu time    0.4971: real time    0.4976
    --------------------------------------------
      LOOP:  cpu time   38.4399: real time   38.4787

 eigenvalue-minimisations  :    48
 total energy-change (2. order) :-0.4751301E-03  (-0.1303526E-05)
 number of electron      31.9999997 magnetization 
 augmentation part        5.3347581 magnetization 

 Broyden mixing:
  rms(total) = 0.58902E-03    rms(broyden)= 0.58902E-03
  rms(prec ) = 0.63267E-03
  weight for this iteration     100.00

 eigenvalues of (default mixing * dielectric matrix)
  average eigenvalue GAMMA=   1.7443
  5.9659  2.7258  2.4860  2.1020  2.1020  1.3348  0.8881  0.8881  0.8006  0.8797
  0.8797  0.8113  0.8113

 Free energy of the ion-electron system (eV)
  ---------------------------------------------------
  alpha Z        PSCENC =         0.07205883
  Ewald energy   TEWEN  =      1576.33640564
  -Hartree energ DENC   =     -3253.04825094
  -exchange      EXHF   =         0.00000000
  -V(xc)+E(xc)   XCENC  =       140.15197225
  PAW double counting   =      9641.58046990    -9662.09577896
  entropy T*S    EENTRO =        -0.00000000
  eigenvalues    EBANDS =      -510.90131197
  atomic energy  EATOM  =      2023.82507259
  Solvation  Ediel_sol  =         0.00000000
  ---------------------------------------------------
  free energy    TOTEN  =       -44.07936266 eV

  energy without entropy =      -44.07936266  energy(sigma->0) =      -44.07936266


--------------------------------------------------------------------------------------------------------




--------------------------------------- Iteration      1(  19)  ---------------------------------------


    POTLOK:  cpu time   17.0526: real time   17.0709
    SETDIJ:  cpu time    0.0487: real time    0.0487
     EDDAV:  cpu time   10.8652: real time   10.8789
       DOS:  cpu time    0.0113: real time    0.0113
    CHARGE:  cpu time    9.8462: real time    9.8534
    MIXING:  cpu time    0.5026: real time    0.5032
    --------------------------------------------
      LOOP:  cpu time   38.3266: real time   38.3664

 eigenvalue-minimisations  :    48
 total energy-change (2. order) :-0.2110726E-03  (-0.3848671E-06)
 number of electron      31.9999997 magnetization 
 augmentation part        5.3346687 magnetization 

 Broyden mixing:
  rms(total) = 0.33124E-03    rms(broyden)= 0.33124E-03
  rms(prec ) = 0.37194E-03
  weight for this iteration     100.00

 eigenvalues of (default mixing * dielectric matrix)
  average eigenvalue GAMMA=   1.8767
  7.1117  3.8270  2.4165  2.4165  1.5946  1.4503  1.4503  0.8849  0.8849  0.9324
  0.9324  0.8442  0.7644  0.7644

 Free energy of the ion-electron system (eV)
  ---------------------------------------------------
  alpha Z        PSCENC =         0.07205883
  Ewald energy   TEWEN  =      1576.33640564
  -Hartree energ DENC   =     -3253.07160118
  -exchange      EXHF   =         0.00000000
  -V(xc)+E(xc)   XCENC  =       140.15205329
  PAW double counting   =      9642.52457870    -9663.03988396
  entropy T*S    EENTRO =        -0.00000000
  eigenvalues    EBANDS =      -510.87825764
  atomic energy  EATOM  =      2023.82507259
  Solvation  Ediel_sol  =         0.00000000
  ---------------------------------------------------
  free energy    TOTEN  =       -44.07957373 eV

  energy without entropy =      -44.07957373  energy(sigma->0) =      -44.07957373


--------------------------------------------------------------------------------------------------------




--------------------------------------- Iteration      1(  20)  ---------------------------------------


    POTLOK:  cpu time   17.0601: real time   17.0786
    SETDIJ:  cpu time    0.0514: real time    0.0514
     EDDAV:  cpu time   10.8743: real time   10.8871
       DOS:  cpu time    0.0149: real time    0.0149
    CHARGE:  cpu time    9.8784: real time    9.8891
    MIXING:  cpu time    0.5206: real time    0.5213
    --------------------------------------------
      LOOP:  cpu time   38.3998: real time   38.4424

 eigenvalue-minimisations  :    48
 total energy-change (2. order) :-0.2211679E-03  (-0.6292448E-06)
 number of electron      31.9999997 magnetization 
 augmentation part        5.3346209 magnetization 

 Broyden mixing:
  rms(total) = 0.52044E-03    rms(broyden)= 0.52044E-03
  rms(prec ) = 0.52847E-03
  weight for this iteration     100.00

 eigenvalues of (default mixing * dielectric matrix)
  average eigenvalue GAMMA=   1.9564
  7.8622  4.4488  2.6302  2.6302  1.8962  1.4745  1.4745  1.0919  0.8946  0.8946
  0.8673  0.8673  0.8053  0.8053  0.7025

 Free energy of the ion-electron system (eV)
  ---------------------------------------------------
  alpha Z        PSCENC =         0.07205883
  Ewald energy   TEWEN  =      1576.33640564
  -Hartree energ DENC   =     -3253.09716394
  -exchange      EXHF   =         0.00000000
  -V(xc)+E(xc)   XCENC  =       140.15166044
  PAW double counting   =      9642.58458638    -9663.09954351
  entropy T*S    EENTRO =        -0.00000000
  eigenvalues    EBANDS =      -510.85287133
  atomic energy  EATOM  =      2023.82507259
  Solvation  Ediel_sol  =         0.00000000
  ---------------------------------------------------
  free energy    TOTEN  =       -44.07979490 eV

  energy without entropy =      -44.07979490  energy(sigma->0) =      -44.07979490


--------------------------------------------------------------------------------------------------------




--------------------------------------- Iteration      1(  21)  ---------------------------------------


    POTLOK:  cpu time   17.0029: real time   17.0225
    SETDIJ:  cpu time    0.0556: real time    0.0556
     EDDAV:  cpu time   10.8129: real time   10.8259
       DOS:  cpu time    0.0102: real time    0.0102
    CHARGE:  cpu time    9.8574: real time    9.8646
    MIXING:  cpu time    0.5684: real time    0.5690
    --------------------------------------------
      LOOP:  cpu time   38.3074: real time   38.3478

 eigenvalue-minimisations  :    48
 total energy-change (2. order) :-0.1092986E-03  (-0.2101279E-06)
 number of electron      31.9999997 magnetization 
 augmentation part        5.3346376 magnetization 

 Broyden mixing:
  rms(total) = 0.20619E-03    rms(broyden)= 0.20619E-03
  rms(prec ) = 0.21175E-03
  weight for this iteration     100.00

 eigenvalues of (default mixing * dielectric matrix)
  average eigenvalue GAMMA=   2.0587
  8.5176  5.1281  3.2871  2.4140  2.2507  1.8611  1.3142  1.3142  1.0328  0.8895
  0.8895  0.8828  0.8828  0.7766  0.7490  0.7490

 Free energy of the ion-electron system (eV)
  ---------------------------------------------------
  alpha Z        PSCENC =         0.07205883
  Ewald energy   TEWEN  =      1576.33640564
  -Hartree energ DENC   =     -3253.11002089
  -exchange      EXHF   =         0.00000000
  -V(xc)+E(xc)   XCENC  =       140.15154865
  PAW double counting   =      9642.57180812    -9663.08676990
  entropy T*S    EENTRO =        -0.00000000
  eigenvalues    EBANDS =      -510.84000724
  atomic energy  EATOM  =      2023.82507259
  Solvation  Ediel_sol  =         0.00000000
  ---------------------------------------------------
  free energy    TOTEN  =       -44.07990420 eV

  energy without entropy =      -44.07990420  energy(sigma->0) =      -44.07990420


--------------------------------------------------------------------------------------------------------




--------------------------------------- Iteration      1(  22)  ---------------------------------------


    POTLOK:  cpu time   16.9686: real time   16.9870
    SETDIJ:  cpu time    0.0521: real time    0.0522
     EDDAV:  cpu time   10.8099: real time   10.8281
       DOS:  cpu time    0.0115: real time    0.0115
    CHARGE:  cpu time    9.8838: real time    9.8910
    MIXING:  cpu time    0.5712: real time    0.5719
    --------------------------------------------
      LOOP:  cpu time   38.2971: real time   38.3416

 eigenvalue-minimisations  :    48
 total energy-change (2. order) :-0.5246559E-04  (-0.5725785E-07)
 number of electron      31.9999997 magnetization 
 augmentation part        5.3346652 magnetization 

 Broyden mixing:
  rms(total) = 0.28219E-03    rms(broyden)= 0.28219E-03
  rms(prec ) = 0.28337E-03
  weight for this iteration     100.00

 eigenvalues of (default mixing * dielectric matrix)
  average eigenvalue GAMMA=   2.0514
  8.7113  5.3152  3.1049  2.4621  2.4621  1.8684  1.5069  1.2994  1.2994  0.8898
  0.8898  0.8996  0.8996  0.9280  0.8264  0.7555  0.7555

 Free energy of the ion-electron system (eV)
  ---------------------------------------------------
  alpha Z        PSCENC =         0.07205883
  Ewald energy   TEWEN  =      1576.33640564
  -Hartree energ DENC   =     -3253.11344826
  -exchange      EXHF   =         0.00000000
  -V(xc)+E(xc)   XCENC  =       140.15139231
  PAW double counting   =      9642.59130160    -9663.10628675
  entropy T*S    EENTRO =        -0.00000000
  eigenvalues    EBANDS =      -510.83645262
  atomic energy  EATOM  =      2023.82507259
  Solvation  Ediel_sol  =         0.00000000
  ---------------------------------------------------
  free energy    TOTEN  =       -44.07995666 eV

  energy without entropy =      -44.07995666  energy(sigma->0) =      -44.07995666


--------------------------------------------------------------------------------------------------------




--------------------------------------- Iteration      1(  23)  ---------------------------------------


    POTLOK:  cpu time   16.9668: real time   16.9848
    SETDIJ:  cpu time    0.0594: real time    0.0594
     EDDAV:  cpu time    8.3089: real time    8.3185
       DOS:  cpu time    0.0108: real time    0.0108
    CHARGE:  cpu time    9.8320: real time    9.8391
    MIXING:  cpu time    0.5877: real time    0.5884
    --------------------------------------------
      LOOP:  cpu time   35.7655: real time   35.8009

 eigenvalue-minimisations  :    32
 total energy-change (2. order) :-0.1639961E-04  (-0.4984390E-08)
 number of electron      31.9999997 magnetization 
 augmentation part        5.3346506 magnetization 

 Broyden mixing:
  rms(total) = 0.72000E-04    rms(broyden)= 0.72000E-04
  rms(prec ) = 0.73818E-04
  weight for this iteration     100.00

 eigenvalues of (default mixing * dielectric matrix)
  average eigenvalue GAMMA=   2.1054
  8.8746  5.6917  3.2658  3.2658  2.4469  1.8998  1.8998  1.3361  1.3361  1.0953
  0.8891  0.8891  0.9257  0.9257  0.8149  0.8149  0.7624  0.7624

 Free energy of the ion-electron system (eV)
  ---------------------------------------------------
  alpha Z        PSCENC =         0.07205883
  Ewald energy   TEWEN  =      1576.33640564
  -Hartree energ DENC   =     -3253.11509259
  -exchange      EXHF   =         0.00000000
  -V(xc)+E(xc)   XCENC  =       140.15141926
  PAW double counting   =      9642.51738825    -9663.03245508
  entropy T*S    EENTRO =        -0.00000000
  eigenvalues    EBANDS =      -510.83476996
  atomic energy  EATOM  =      2023.82507259
  Solvation  Ediel_sol  =         0.00000000
  ---------------------------------------------------
  free energy    TOTEN  =       -44.07997306 eV

  energy without entropy =      -44.07997306  energy(sigma->0) =      -44.07997306


--------------------------------------------------------------------------------------------------------




--------------------------------------- Iteration      1(  24)  ---------------------------------------


    POTLOK:  cpu time   17.0026: real time   17.0207
    SETDIJ:  cpu time    0.0469: real time    0.0470
     EDDAV:  cpu time    8.4001: real time    8.4096
       DOS:  cpu time    0.0096: real time    0.0096
    CHARGE:  cpu time    9.8833: real time    9.8905
    MIXING:  cpu time    0.5854: real time    0.5861
    --------------------------------------------
      LOOP:  cpu time   35.9279: real time   35.9635

 eigenvalue-minimisations  :    32
 total energy-change (2. order) :-0.1427218E-04  (-0.7621214E-08)
 number of electron      31.9999997 magnetization 
 augmentation part        5.3346378 magnetization 

 Broyden mixing:
  rms(total) = 0.12530E-03    rms(broyden)= 0.12530E-03
  rms(prec ) = 0.12559E-03
  weight for this iteration     100.00

 eigenvalues of (default mixing * dielectric matrix)
  average eigenvalue GAMMA=   2.0797
  9.1404  5.9164  3.8726  2.8957  2.4802  2.1459  1.7978  1.3235  1.3235  1.1673
  0.8916  0.8916  0.9226  0.9226  0.8060  0.8060  0.7653  0.7222  0.7222

 Free energy of the ion-electron system (eV)
  ---------------------------------------------------
  alpha Z        PSCENC =         0.07205883
  Ewald energy   TEWEN  =      1576.33640564
  -Hartree energ DENC   =     -3253.11723525
  -exchange      EXHF   =         0.00000000
  -V(xc)+E(xc)   XCENC  =       140.15145628
  PAW double counting   =      9642.36017433    -9662.87531511
  entropy T*S    EENTRO =        -0.00000000
  eigenvalues    EBANDS =      -510.83260464
  atomic energy  EATOM  =      2023.82507259
  Solvation  Ediel_sol  =         0.00000000
  ---------------------------------------------------
  free energy    TOTEN  =       -44.07998733 eV

  energy without entropy =      -44.07998733  energy(sigma->0) =      -44.07998733


--------------------------------------------------------------------------------------------------------




--------------------------------------- Iteration      1(  25)  ---------------------------------------


    POTLOK:  cpu time   16.9941: real time   17.0126
    SETDIJ:  cpu time    0.0529: real time    0.0530
     EDDAV:  cpu time    8.3793: real time    8.3942
       DOS:  cpu time    0.0132: real time    0.0132
    CHARGE:  cpu time    9.8938: real time    9.9009
    MIXING:  cpu time    0.6130: real time    0.6138
    --------------------------------------------
      LOOP:  cpu time   35.9464: real time   35.9876

 eigenvalue-minimisations  :    32
 total energy-change (2. order) :-0.2405973E-05  (-0.3082025E-08)
 number of electron      31.9999997 magnetization 
 augmentation part        5.3346416 magnetization 

 Broyden mixing:
  rms(total) = 0.65785E-04    rms(broyden)= 0.65785E-04
  rms(prec ) = 0.66093E-04
  weight for this iteration     100.00

 eigenvalues of (default mixing * dielectric matrix)
  average eigenvalue GAMMA=   2.1215
  9.4871  6.1344  4.4432  3.1087  2.3869  2.1738  1.9856  1.4707  1.3569  1.3569
  0.8880  0.8880  0.9842  0.9842  0.9197  0.9197  0.7951  0.7478  0.7478  0.6524

 Free energy of the ion-electron system (eV)
  ---------------------------------------------------
  alpha Z        PSCENC =         0.07205883
  Ewald energy   TEWEN  =      1576.33640564
  -Hartree energ DENC   =     -3253.11739562
  -exchange      EXHF   =         0.00000000
  -V(xc)+E(xc)   XCENC  =       140.15143845
  PAW double counting   =      9642.45887169    -9662.97393829
  entropy T*S    EENTRO =        -0.00000000
  eigenvalues    EBANDS =      -510.83250303
  atomic energy  EATOM  =      2023.82507259
  Solvation  Ediel_sol  =         0.00000000
  ---------------------------------------------------
  free energy    TOTEN  =       -44.07998974 eV

  energy without entropy =      -44.07998974  energy(sigma->0) =      -44.07998974


--------------------------------------------------------------------------------------------------------




--------------------------------------- Iteration      1(  26)  ---------------------------------------


    POTLOK:  cpu time   16.9471: real time   16.9656
    SETDIJ:  cpu time    0.0593: real time    0.0593
     EDDAV:  cpu time    8.3529: real time    8.3642
       DOS:  cpu time    0.0147: real time    0.0147
    CHARGE:  cpu time    9.8588: real time    9.8660
    MIXING:  cpu time    0.6032: real time    0.6040
    --------------------------------------------
      LOOP:  cpu time   35.8361: real time   35.8739

 eigenvalue-minimisations  :    32
 total energy-change (2. order) :-0.3201262E-05  (-0.2221714E-08)
 number of electron      31.9999997 magnetization 
 augmentation part        5.3346451 magnetization 

 Broyden mixing:
  rms(total) = 0.39005E-04    rms(broyden)= 0.39005E-04
  rms(prec ) = 0.39158E-04
  weight for this iteration     100.00

 eigenvalues of (default mixing * dielectric matrix)
  average eigenvalue GAMMA=   2.1244
  9.5864  6.4685  4.6644  3.1153  2.4235  2.4235  1.8823  1.6782  1.6782  1.1640
  1.1640  0.8884  0.8884  0.9733  0.9733  0.8647  0.8647  0.8254  0.7462  0.7462
  0.5941

 Free energy of the ion-electron system (eV)
  ---------------------------------------------------
  alpha Z        PSCENC =         0.07205883
  Ewald energy   TEWEN  =      1576.33640564
  -Hartree energ DENC   =     -3253.11734870
  -exchange      EXHF   =         0.00000000
  -V(xc)+E(xc)   XCENC  =       140.15140969
  PAW double counting   =      9642.43912575    -9662.95416442
  entropy T*S    EENTRO =        -0.00000000
  eigenvalues    EBANDS =      -510.83255232
  atomic energy  EATOM  =      2023.82507259
  Solvation  Ediel_sol  =         0.00000000
  ---------------------------------------------------
  free energy    TOTEN  =       -44.07999294 eV

  energy without entropy =      -44.07999294  energy(sigma->0) =      -44.07999294


--------------------------------------------------------------------------------------------------------




--------------------------------------- Iteration      1(  27)  ---------------------------------------


    POTLOK:  cpu time   16.9217: real time   16.9400
    SETDIJ:  cpu time    0.0408: real time    0.0408
     EDDAV:  cpu time    8.3848: real time    8.3996
       DOS:  cpu time    0.0150: real time    0.0150
    CHARGE:  cpu time    9.8575: real time    9.8648
    MIXING:  cpu time    0.6543: real time    0.6551
    --------------------------------------------
      LOOP:  cpu time   35.8741: real time   35.9152

 eigenvalue-minimisations  :    32
 total energy-change (2. order) :-0.1355761E-05  (-0.1017483E-08)
 number of electron      31.9999997 magnetization 
 augmentation part        5.3346471 magnetization 

 Broyden mixing:
  rms(total) = 0.99252E-05    rms(broyden)= 0.99252E-05
  rms(prec ) = 0.10195E-04
  weight for this iteration     100.00

 eigenvalues of (default mixing * dielectric matrix)
  average eigenvalue GAMMA=   2.1194
  9.5863  6.6952  4.7809  3.2487  2.6062  2.3155  1.9453  1.7148  1.7148  1.2881
  1.2881  1.0100  1.0100  1.0053  0.8871  0.8871  0.8676  0.8676  0.8080  0.7499
  0.7499  0.6006

 Free energy of the ion-electron system (eV)
  ---------------------------------------------------
  alpha Z        PSCENC =         0.07205883
  Ewald energy   TEWEN  =      1576.33640564
  -Hartree energ DENC   =     -3253.11712722
  -exchange      EXHF   =         0.00000000
  -V(xc)+E(xc)   XCENC  =       140.15139780
  PAW double counting   =      9642.48131044    -9662.99632684
  entropy T*S    EENTRO =        -0.00000000
  eigenvalues    EBANDS =      -510.83278555
  atomic energy  EATOM  =      2023.82507259
  Solvation  Ediel_sol  =         0.00000000
  ---------------------------------------------------
  free energy    TOTEN  =       -44.07999430 eV

  energy without entropy =      -44.07999430  energy(sigma->0) =      -44.07999430


--------------------------------------------------------------------------------------------------------




--------------------------------------- Iteration      1(  28)  ---------------------------------------


    POTLOK:  cpu time   16.9422: real time   16.9601
    SETDIJ:  cpu time    0.0595: real time    0.0595
     EDDAV:  cpu time    8.3365: real time    8.3482
       DOS:  cpu time    0.0114: real time    0.0114
    CHARGE:  cpu time    9.8794: real time    9.8909
    MIXING:  cpu time    0.6726: real time    0.6734
    --------------------------------------------
      LOOP:  cpu time   35.9016: real time   35.9435

 eigenvalue-minimisations  :    32
 total energy-change (2. order) :-0.8191068E-06  (-0.6491625E-09)
 number of electron      31.9999997 magnetization 
 augmentation part        5.3346454 magnetization 

 Broyden mixing:
  rms(total) = 0.63918E-05    rms(broyden)= 0.63918E-05
  rms(prec ) = 0.65618E-05
  weight for this iteration     100.00

 eigenvalues of (default mixing * dielectric matrix)
  average eigenvalue GAMMA=   2.1237
  9.6306  6.7916  4.8513  3.1060  3.1060  2.3887  2.3887  1.7907  1.5346  1.5346
  1.2577  1.1308  1.1308  0.8897  0.8897  0.9028  0.9028  0.8673  0.8673  0.7984
  0.7523  0.7523  0.5794

 Free energy of the ion-electron system (eV)
  ---------------------------------------------------
  alpha Z        PSCENC =         0.07205883
  Ewald energy   TEWEN  =      1576.33640564
  -Hartree energ DENC   =     -3253.11719714
  -exchange      EXHF   =         0.00000000
  -V(xc)+E(xc)   XCENC  =       140.15140476
  PAW double counting   =      9642.48442031    -9662.99944331
  entropy T*S    EENTRO =        -0.00000000
  eigenvalues    EBANDS =      -510.83271680
  atomic energy  EATOM  =      2023.82507259
  Solvation  Ediel_sol  =         0.00000000
  ---------------------------------------------------
  free energy    TOTEN  =       -44.07999512 eV

  energy without entropy =      -44.07999512  energy(sigma->0) =      -44.07999512


--------------------------------------------------------------------------------------------------------




--------------------------------------- Iteration      1(  29)  ---------------------------------------


    POTLOK:  cpu time   16.9838: real time   17.0019
    SETDIJ:  cpu time    0.0677: real time    0.0677
     EDDAV:  cpu time    8.4287: real time    8.4437
       DOS:  cpu time    0.0129: real time    0.0129
    CHARGE:  cpu time    9.8869: real time    9.8939
    MIXING:  cpu time    0.6969: real time    0.6977
    --------------------------------------------
      LOOP:  cpu time   36.0769: real time   36.1179

 eigenvalue-minimisations  :    32
 total energy-change (2. order) :-0.5568404E-06  (-0.4889138E-09)
 number of electron      31.9999997 magnetization 
 augmentation part        5.3346457 magnetization 

 Broyden mixing:
  rms(total) = 0.54547E-05    rms(broyden)= 0.54547E-05
  rms(prec ) = 0.55338E-05
  weight for this iteration     100.00

 eigenvalues of (default mixing * dielectric matrix)
  average eigenvalue GAMMA=   2.1487
  9.6969  7.0463  5.1971  3.8095  3.0568  2.4203  2.4203  1.7456  1.7456  1.5028
  1.1899  1.1899  1.1571  1.1006  0.8882  0.8882  0.9595  0.9595  0.8525  0.8525
  0.8061  0.7497  0.7497  0.5838

 Free energy of the ion-electron system (eV)
  ---------------------------------------------------
  alpha Z        PSCENC =         0.07205883
  Ewald energy   TEWEN  =      1576.33640564
  -Hartree energ DENC   =     -3253.11724661
  -exchange      EXHF   =         0.00000000
  -V(xc)+E(xc)   XCENC  =       140.15140740
  PAW double counting   =      9642.48124153    -9662.99627122
  entropy T*S    EENTRO =        -0.00000000
  eigenvalues    EBANDS =      -510.83266384
  atomic energy  EATOM  =      2023.82507259
  Solvation  Ediel_sol  =         0.00000000
  ---------------------------------------------------
  free energy    TOTEN  =       -44.07999567 eV

  energy without entropy =      -44.07999567  energy(sigma->0) =      -44.07999567


--------------------------------------------------------------------------------------------------------




--------------------------------------- Iteration      1(  30)  ---------------------------------------


    POTLOK:  cpu time   17.0154: real time   17.0338
    SETDIJ:  cpu time    0.0640: real time    0.0640
     EDDAV:  cpu time    8.3518: real time    8.3613
       DOS:  cpu time    0.0112: real time    0.0112
    CHARGE:  cpu time    9.8750: real time    9.8820
    MIXING:  cpu time    0.7372: real time    0.7381
    --------------------------------------------
      LOOP:  cpu time   36.0544: real time   36.0904

 eigenvalue-minimisations  :    32
 total energy-change (2. order) :-0.2711045E-06  (-0.5227392E-09)
 number of electron      31.9999997 magnetization 
 augmentation part        5.3346456 magnetization 

 Broyden mixing:
  rms(total) = 0.45763E-05    rms(broyden)= 0.45763E-05
  rms(prec ) = 0.46128E-05
  weight for this iteration     100.00

 eigenvalues of (default mixing * dielectric matrix)
  average eigenvalue GAMMA=   2.1479
  9.7807  7.1985  5.4847  4.1413  2.9959  2.4328  2.2312  2.2312  1.7622  1.4328
  1.4328  1.2574  1.1496  1.1496  0.8889  0.8889  0.9221  0.9221  0.8747  0.8440
  0.8440  0.7530  0.7530  0.7457  0.5796

 Free energy of the ion-electron system (eV)
  ---------------------------------------------------
  alpha Z        PSCENC =         0.07205883
  Ewald energy   TEWEN  =      1576.33640564
  -Hartree energ DENC   =     -3253.11719770
  -exchange      EXHF   =         0.00000000
  -V(xc)+E(xc)   XCENC  =       140.15140482
  PAW double counting   =      9642.48141854    -9662.99644710
  entropy T*S    EENTRO =        -0.00000000
  eigenvalues    EBANDS =      -510.83271157
  atomic energy  EATOM  =      2023.82507259
  Solvation  Ediel_sol  =         0.00000000
  ---------------------------------------------------
  free energy    TOTEN  =       -44.07999594 eV

  energy without entropy =      -44.07999594  energy(sigma->0) =      -44.07999594


--------------------------------------------------------------------------------------------------------




--------------------------------------- Iteration      1(  31)  ---------------------------------------


    POTLOK:  cpu time   17.0972: real time   17.1157
    SETDIJ:  cpu time    0.0468: real time    0.0469
     EDDAV:  cpu time    8.3744: real time    8.3861
       DOS:  cpu time    0.0123: real time    0.0123
    CHARGE:  cpu time    9.8670: real time    9.8742
    MIXING:  cpu time    0.7547: real time    0.7557
    --------------------------------------------
      LOOP:  cpu time   36.1526: real time   36.1909

 eigenvalue-minimisations  :    32
 total energy-change (2. order) :-0.1242734E-06  (-0.4860254E-09)
 number of electron      31.9999997 magnetization 
 augmentation part        5.3346462 magnetization 

 Broyden mixing:
  rms(total) = 0.45189E-05    rms(broyden)= 0.45189E-05
  rms(prec ) = 0.45372E-05
  weight for this iteration     100.00

 eigenvalues of (default mixing * dielectric matrix)
  average eigenvalue GAMMA=   2.1406
  9.7865  7.3600  5.5206  4.3224  3.0341  2.5556  2.3372  2.3372  1.8090  1.5432
  1.5432  1.2154  1.1587  1.1587  0.9789  0.8879  0.8879  0.9074  0.9074  0.8589
  0.8589  0.7552  0.7552  0.7982  0.7982  0.5790

 Free energy of the ion-electron system (eV)
  ---------------------------------------------------
  alpha Z        PSCENC =         0.07205883
  Ewald energy   TEWEN  =      1576.33640564
  -Hartree energ DENC   =     -3253.11711174
  -exchange      EXHF   =         0.00000000
  -V(xc)+E(xc)   XCENC  =       140.15140015
  PAW double counting   =      9642.48711325    -9663.00213682
  entropy T*S    EENTRO =        -0.00000000
  eigenvalues    EBANDS =      -510.83279797
  atomic energy  EATOM  =      2023.82507259
  Solvation  Ediel_sol  =         0.00000000
  ---------------------------------------------------
  free energy    TOTEN  =       -44.07999607 eV

  energy without entropy =      -44.07999607  energy(sigma->0) =      -44.07999607


--------------------------------------------------------------------------------------------------------




--------------------------------------- Iteration      1(  32)  ---------------------------------------


    POTLOK:  cpu time   17.0984: real time   17.1165
    SETDIJ:  cpu time    0.0516: real time    0.0516
     EDDAV:  cpu time    8.3870: real time    8.3985
       DOS:  cpu time    0.0123: real time    0.0123
    --------------------------------------------
      LOOP:  cpu time   25.5493: real time   25.5789

 eigenvalue-minimisations  :    32
 total energy-change (2. order) :-0.8299548E-07  (-0.4005152E-09)
 number of electron      31.9999997 magnetization 
 augmentation part        5.3346462 magnetization 

 Free energy of the ion-electron system (eV)
  ---------------------------------------------------
  alpha Z        PSCENC =         0.07205883
  Ewald energy   TEWEN  =      1576.33640564
  -Hartree energ DENC   =     -3253.11710136
  -exchange      EXHF   =         0.00000000
  -V(xc)+E(xc)   XCENC  =       140.15140041
  PAW double counting   =      9642.48657361    -9663.00159845
  entropy T*S    EENTRO =        -0.00000000
  eigenvalues    EBANDS =      -510.83280742
  atomic energy  EATOM  =      2023.82507259
  Solvation  Ediel_sol  =         0.00000000
  ---------------------------------------------------
  free energy    TOTEN  =       -44.07999615 eV

  energy without entropy =      -44.07999615  energy(sigma->0) =      -44.07999615


--------------------------------------------------------------------------------------------------------




 average (electrostatic) potential at core
  the test charge radii are     0.8471  0.8742
  (the norm of the test charge is              1.0000)
       1 -88.9728       2 -88.9728       3 -92.8721       4 -92.8812       5 -92.8721
       6 -92.8812
 
 
 
 E-fermi :  -9.0323     XC(G=0):  -0.0425     alpha+bet : -0.0126


 k-point     1 :       0.0000    0.0000    0.0000
  band No.  band energies     occupation 
      1     -29.4811      2.00000
      2     -29.4811      2.00000
      3     -28.4205      2.00000
      4     -28.4204      2.00000
      5     -13.6907      2.00000
      6     -13.6852      2.00000
      7     -12.7702      2.00000
      8     -12.7702      2.00000
      9     -12.7699      2.00000
     10     -12.7699      2.00000
     11     -12.3633      2.00000
     12     -12.3551      2.00000
     13      -9.1104      2.00000
     14      -9.1104      2.00000
     15      -9.1090      2.00000
     16      -9.1090      2.00000
     17      -1.0930      0.00000
     18      -0.9394      0.00000
     19      -0.6818      0.00000
     20      -0.6765      0.00000


--------------------------------------------------------------------------------------------------------


 soft charge-density along one line, spin component            1
         0         1         2         3         4         5         6         7         8         9
 total charge-density along one line
 
 pseudopotential strength for first ion, spin component:            1
 20.397  24.009   0.000   0.000  -0.000   0.000   0.000  -0.000
 24.009  28.264   0.000   0.000  -0.000   0.000   0.000  -0.000
  0.000   0.000  -3.778   0.000   0.000  -4.722   0.000   0.000
  0.000   0.000   0.000  -3.442  -0.000   0.000  -4.267  -0.000
 -0.000  -0.000   0.000  -0.000  -3.442   0.000  -0.000  -4.267
  0.000   0.000  -4.722   0.000   0.000  -5.834   0.000   0.000
  0.000   0.000   0.000  -4.267  -0.000   0.000  -5.221  -0.000
 -0.000  -0.000   0.000  -0.000  -4.267   0.000  -0.000  -5.221
 total augmentation occupancy for first ion, spin component:            1
 27.178 -19.383  -0.002   0.000  -0.000   0.000   0.000  -0.000
-19.383  14.443   0.001  -0.000   0.000   0.000  -0.000   0.000
 -0.002   0.001  27.328   0.000   0.000 -16.555  -0.000   0.000
  0.000  -0.000   0.000   5.729   0.000   0.000  -2.579   0.000
 -0.000   0.000   0.000   0.000   5.729   0.000   0.000  -2.579
  0.000   0.000 -16.555   0.000   0.000  10.183   0.000  -0.000
  0.000  -0.000  -0.000  -2.579   0.000   0.000   1.161   0.000
 -0.000   0.000   0.000   0.000  -2.579  -0.000   0.000   1.161


------------------------ aborting loop because EDIFF is reached ----------------------------------------



 DIPCOR: dipole corrections for dipol
 direction  1 min pos   351, direction  2 min pos   435, direction  3 min pos   421,
 dipolmoment           0.000004      0.000000     -0.000004 electrons x Angstroem
 Tr[quadrupol]        17.252493

 energy correction for charged system         0.000000 eV
 dipol+quadrupol energy correction            0.000000 eV
 added-field ion interaction          0.000000 eV  (added to PSCEN)

 
  *************** adding dipol energy to TOTEN NOW **************** 
    CHARGE:  cpu time    9.8899: real time    9.8972
    FORLOC:  cpu time    0.8217: real time    0.8225
    FORNL :  cpu time    0.4392: real time    0.4399
    STRESS:  cpu time    2.8053: real time    2.8089
    FORHAR:  cpu time    5.0505: real time    5.0557
    MIXING:  cpu time    0.7637: real time    0.7647
    OFIELD:  cpu time    0.0000: real time    0.0000

  FORCE on cell =-STRESS in cart. coord.  units (eV):
  Direction    XX          YY          ZZ          XY          YZ          ZX
  --------------------------------------------------------------------------------------
  Alpha Z     0.07206     0.07206     0.07206
  Ewald    -203.56353  1983.46429  -203.56353    -0.00000     0.00000    -0.00000
  Hartree   642.42680  1968.26354   642.42680     0.00000    -0.00000    -0.00000
  E(xc)    -148.92960  -144.59268  -148.92960    -0.00000    -0.00000    -0.00000
  Local   -1131.09531 -4488.26660 -1131.09531     0.00000    -0.00000    -0.00000
  n-local   117.70256    93.65231   117.70256     0.00000    -0.00000     0.00000
  augment   182.01229   164.07007   182.01229    -0.00000    -0.00000     0.00000
  Kinetic   541.37100   439.84326   541.37100    -0.00000    -0.00000    -0.00000
  Fock        0.00000     0.00000     0.00000     0.00000     0.00000     0.00000
  -------------------------------------------------------------------------------------
  Total      -0.00374    16.50624    -0.00374     0.00000     0.00000     0.00000
  in kB      -0.00014     0.61681    -0.00014     0.00000     0.00000     0.00000
  external pressure =        0.21 kB  Pullay stress =        0.00 kB


 VOLUME and BASIS-vectors are now :
 -----------------------------------------------------------------------------
  energy-cutoff  :     1000.00
  volume of cell :    42875.00
      direct lattice vectors                 reciprocal lattice vectors
    35.000000000  0.000000000  0.000000000     0.028571429  0.000000000  0.000000000
     0.000000000 35.000000000  0.000000000     0.000000000  0.028571429  0.000000000
     0.000000000  0.000000000 35.000000000     0.000000000  0.000000000  0.028571429

  length of vectors
    35.000000000 35.000000000 35.000000000     0.028571429  0.028571429  0.028571429


 FORCES acting on ions
    electron-ion (+dipol)            ewald-force                    non-local-force                 convergence-correction
 -----------------------------------------------------------------------------------------------
   0.192E-14 0.185E+02 -.229E-08   0.105E-16 -.185E+02 0.161E-17   -.646E-25 -.268E-01 0.000E+00   0.158E-14 -.348E-05 0.740E-13
   0.171E-14 -.185E+02 -.342E-08   -.700E-17 0.185E+02 0.619E-18   -.775E-25 0.268E-01 0.000E+00   0.679E-14 0.348E-05 0.941E-14
   0.219E-14 -.219E+03 0.206E-07   -.157E-16 0.305E+03 -.280E-17   -.698E-24 -.831E+02 -.331E-23   0.220E-13 -.122E-04 0.110E-12
   0.574E-14 0.280E+03 -.296E-08   -.583E-18 -.366E+03 0.948E-18   -.362E-24 0.829E+02 -.165E-23   0.820E-14 0.894E-05 0.187E-12
   0.408E-14 0.219E+03 0.115E-07   0.176E-16 -.305E+03 -.792E-17   -.207E-24 0.831E+02 0.827E-24   0.172E-13 0.122E-04 0.781E-13
   0.593E-14 -.280E+03 0.150E-07   -.975E-18 0.366E+03 -.277E-17   0.310E-24 -.829E+02 0.165E-23   0.305E-13 -.894E-05 -.391E-14
 -----------------------------------------------------------------------------------------------
   0.216E-13 0.112E-04 0.383E-07   0.390E-17 -.568E-13 -.103E-16   -.110E-23 0.568E-13 -.248E-23   0.863E-13 -.608E-11 0.455E-12
 
 
 POSITION                                       TOTAL-FORCE (eV/Angst)
 -----------------------------------------------------------------------------------
      0.00000      0.05699      0.00000         0.000000      0.027070     -0.000000
      0.00000      7.19743      0.00000         0.000000     -0.027070     -0.000000
      0.00000      1.22721      0.00000        -0.000000      3.509670      0.000000
      0.00000     33.88677      0.00000        -0.000000     -3.538617     -0.000000
      0.00000      6.02721      0.00000         0.000000     -3.509670     -0.000000
      0.00000      8.36765      0.00000        -0.000000      3.538617     -0.000000
 -----------------------------------------------------------------------------------
    total drift:                                0.000000      0.000011      0.000000


--------------------------------------------------------------------------------------------------------



  FREE ENERGIE OF THE ION-ELECTRON SYSTEM (eV)
  ---------------------------------------------------
  free  energy   TOTEN  =       -44.07999615 eV

  energy  without entropy=      -44.07999615  energy(sigma->0) =      -44.07999615
 


--------------------------------------------------------------------------------------------------------


    POTLOK:  cpu time   17.0546: real time   17.0729


--------------------------------------------------------------------------------------------------------


 writing wavefunctions
     LOOP+:  cpu time 1418.1364: real time 1419.5630
    4ORBIT:  cpu time    0.0000: real time    0.0000

 total amount of memory used by VASP MPI-rank0  2978131. kBytes
=======================================================================

   base      :      30000. kBytes
   nonl-proj :      43098. kBytes
   fftplans  :    1060428. kBytes
   grid      :    1813819. kBytes
   one-center:          1. kBytes
   wavefun   :      30785. kBytes
 
  
  
 General timing and accounting informations for this job:
 ========================================================
  
                  Total CPU time used (sec):     1739.085
                            User time (sec):     1621.433
                          System time (sec):      117.652
                         Elapsed time (sec):     1741.239
  
                   Maximum memory used (kb):     4057540.
                   Average memory used (kb):           0.
  
                          Minor page faults:     71592156
                          Major page faults:          251
                 Voluntary context switches:         2778
