
 Primary working directories    : /scratch/sirous/44610/molpro.e9b5WFrjEo
 Secondary working directories  : /scratch/sirous/44610/molpro.e9b5WFrjEo
 Wavefunction directory         : /scratch/sirous/44610/
 Main file repository           : /scratch/sirous/44610/molpro.e9b5WFrjEo/

 id        : karlovklimes

 Nodes                      nprocs
 nc-08.cc.karlov.mff.cuni.cz    4

 Using customized tuning parameters: mindgm=1; mindgv=20; mindgc=4; mindgr=1; noblas=0; minvec=7
 default implementation of scratch files=sf  


 Variables initialized (934), CPU time= 0.01 sec
 ***,CH3C6H4CN+CF3CN+BF3
 memory,500,m
 gdirect
 gthresh,energy=1.d-8,twoint=1.d-15,oneint=1.d-15,zero=1.d-15,orbital=1.d-8,grid=1.d-8
 symmetry,nosym
 geomtyp=xyz
                                                                                 ! Geometry
 geometry={
 O1        -0.786562022    0.045168441     -0.007189119
 H1        0.177706774    0.012695896     -0.006835389
 C1        -1.247990941    -1.290283536     0.001083621
 H2        -2.334277443    -1.2588971     0.0002212
 H3        -0.925965746    -1.849768096     -0.880445382
 H4        -0.927027831    -1.838462882     0.89007652
 O2        4.939647934057216    -0.1435785445258776     -0.001723769005824207
 H5        5.3788520730572165    0.24457365447412238     -0.7615964510058242
 H6        5.377532228057216    0.25902573447412236     0.7513657629941758
 }
 
 
 
 basis=avtz
 
 
 
                                                                                 ! Dimer Calculation
 {rhf,accu=1.d-8;orbital,2101.2}
 eab_HF=energy
 
 
                                                                                 !monomer A
 dummy,7,8,9;                                                                    ! NOW MONOMER B IS DUMMY
 {rhf,accu=1.d-8;orbital,2201.2}
 ea_HF=energy
                                                                                 !monomer B
 dummy,1,2,3,4,5,6;                                                              !NOW MONOMER A IS DUMMY
 {rhf,accu=1.d-8;orbital,2301.2}
 eb_HF=energy
 
 E_AB_int=eab_HF-ea_HF-eb_HF
 
 
 text,results in hartree
 show,E_AB_int
 
 Commands  initialized (763), CPU time= 0.01 sec, 617 directives.
 Default parameters read. Elapsed time= 0.25 sec

 Checking input...
 Passed
1


                                         ***  PROGRAM SYSTEM MOLPRO  ***
                                       Copyright, TTI GmbH Stuttgart, 2015
                                    Version 2019.2 linked Jun  8 2019 11:26:33


 **********************************************************************************************************************************
 LABEL *   CH3C6H4CN+CF3CN+BF3                                                           
  64 bit mpp version                                                                     DATE: 13-Oct-19          TIME: 06:16:39  
 **********************************************************************************************************************************

 SHA1:             8135a10abc80eafa5b3ae28ffc55be4890dc4c84
 **********************************************************************************************************************************

 THRESHOLDS:

 ZERO    =  1.00D-15  ONEINT  =  1.00D-15  TWOINT  =  1.00D-15  PREFAC  =  1.00D-14  XXXXXX  =  1.00D-09  EORDER  =  1.00D-04
 ENERGY  =  1.00D-08  ETEST   =  0.00D+00  EDENS   =  0.00D+00  THRDEDEF=  1.00D-06  GRADIENT=  1.00D-02  STEP    =  1.00D-03
 ORBITAL =  1.00D-08  CIVEC   =  1.00D-05  COEFF   =  1.00D-04  PRINTCI =  5.00D-02  PUNCHCI =  9.90D+01  OPTGRAD =  3.00D-04
 OPTENERG=  1.00D-06  OPTSTEP =  3.00D-04  THRGRAD =  1.00D-10  COMPRESS=  1.00D-11  VARMIN  =  1.00D-07  VARMAX  =  1.00D-03
 THRDOUB =  0.00D+00  THRDIV  =  1.00D-05  THRRED  =  1.00D-07  THRPSP  =  1.00D+00  THRDC   =  1.00D-10  THRCS   =  1.00D-10
 THRNRM  =  1.00D-08  THREQ   =  0.00D+00  THRDE   =  1.00D+00  THRREF  =  1.00D-05  SPARFAC =  1.00D+00  THRDLP  =  1.00D-07
 THRDIA  =  1.00D-10  THRDLS  =  1.00D-07  THRGPS  =  0.00D+00  THRKEX  =  0.00D+00  THRDIS  =  2.00D-01  THRVAR  =  1.00D-10
 THRLOC  =  1.00D-06  THRGAP  =  1.00D-06  THRLOCT = -1.00D+00  THRGAPT = -1.00D+00  THRORB  =  1.00D-06  THRMLTP =  0.00D+00
 THRCPQCI=  1.00D-10  KEXTA   =  0.00D+00  THRCOARS=  0.00D+00  SYMTOL  =  1.00D-06  GRADTOL =  1.00D-06  THROVL  =  1.00D-08
 THRORTH =  1.00D-08  GRID    =  1.00D-08  GRIDMAX =  1.00D-03  DTMAX   =  0.00D+00  THROCCDE=  1.00D-01  THROCCDE=  1.00D-01
 THRPRINT=  2.50D-01


 Variable memory set to  500000000 words,  buffer space 

 SETTING GEOMTYP        =    XYZ
 ZSYMEL=NOSYM

 SETTING BASIS          =    AVTZ


 Recomputing integrals since basis changed


 Using spherical harmonics

 Library entry O      S aug-cc-pVTZ          selected for orbital group  1
 Library entry O      P aug-cc-pVTZ          selected for orbital group  1
 Library entry O      D aug-cc-pVTZ          selected for orbital group  1
 Library entry O      F aug-cc-pVTZ          selected for orbital group  1
 Library entry H      S aug-cc-pVTZ          selected for orbital group  2
 Library entry H      P aug-cc-pVTZ          selected for orbital group  2
 Library entry H      D aug-cc-pVTZ          selected for orbital group  2
 Library entry C      S aug-cc-pVTZ          selected for orbital group  3
 Library entry C      P aug-cc-pVTZ          selected for orbital group  3
 Library entry C      D aug-cc-pVTZ          selected for orbital group  3
 Library entry C      F aug-cc-pVTZ          selected for orbital group  3


 PROGRAM * SEWARD (Integral evaluation for generally contracted gaussian basis sets)     Author: Roland Lindh, 1990

 Geometry written to block  1 of record 700


 Point group  C1  



 ATOMIC COORDINATES

 NR  ATOM    CHARGE       X              Y              Z

   1  O1      8.00   -1.486386802    0.085355983   -0.013585466
   2  H1      1.00    0.335817133    0.023991766   -0.012917013
   3  C1      6.00   -2.358361084   -2.438282506    0.002047747
   4  H2      1.00   -4.411145066   -2.378970738    0.000418007
   5  H3      1.00   -1.749821661   -3.495555095   -1.663800640
   6  H4      1.00   -1.751828710   -3.474191337    1.682000853
   7  O2      8.00    9.334581747   -0.271324127   -0.003257451
   8  H5      1.00   10.164557283    0.462177224   -1.439208710
   9  H6      1.00   10.162063137    0.489487697    1.419875511

 Bond lengths in Bohr (Angstrom)

 1-2  1.823237010  1-3  2.670081416  3-4  2.053641307  3-5  2.064750931  3-6  2.064759324
     ( 0.964815476)     ( 1.412946237)     ( 1.086740179)     ( 1.092619139)     ( 1.092623580)

 7-8  1.813515822  7-9  1.813523507
     ( 0.959671245)     ( 0.959675312)

 Bond angles

  1-3-4  107.40559298   1-3-5  112.51964705   1-3-6  112.52114043   2-1-3  107.13200477

  4-3-5  107.98411747   4-3-6  107.98497413   5-3-6  108.23763291   8-7-9  104.05491273

 NUCLEAR CHARGE:                   28
 NUMBER OF PRIMITIVE AOS:         363
 NUMBER OF SYMMETRY AOS:          324
 NUMBER OF CONTRACTIONS:          276   (  276A   )
 NUMBER OF CORE ORBITALS:           3   (    3A   )
 NUMBER OF VALENCE ORBITALS:       18   (   18A   )


 NUCLEAR REPULSION ENERGY   65.31817530


 Eigenvalues of metric

         1 0.600E-04 0.717E-04 0.879E-04 0.181E-03 0.367E-03 0.387E-03 0.393E-03 0.444E-03


 OPERATOR DM      FOR CENTER  0  COORDINATES:    0.000000    0.000000    0.000000


 **********************************************************************************************************************************
 DATASETS  * FILE   NREC   LENGTH (MB)   RECORD NAMES
              1      18       32.92       500      610      700      900      950      970     1000      129      960     1100   
                                          VAR    BASINP    GEOM    SYMINP    ZMAT    AOBASIS   BASIS     P2S    ABASIS      S 
                                         1400     1410     1200     1210     1080     1600     1650     1700   
                                           T        V       H0       H01     AOSYM     SMH    MOLCAS    OPER   

 PROGRAMS   *        TOTAL       INT
 CPU TIMES  *         0.58      0.40
 REAL TIME  *         1.88 SEC
 DISK USED  *        33.40 MB (local),      133.59 MB (total)
 GA USED    *         0.00 MB       (max)       0.00 MB       (current)
 **********************************************************************************************************************************


 PROGRAM * RHF-SCF (CLOSED SHELL)       Authors: W. Meyer, H.-J. Werner


 NUMBER OF ELECTRONS:      14+   14-    SPACE SYMMETRY=1    SPIN SYMMETRY: Singlet 
 CONVERGENCE THRESHOLDS:    1.00E-04 (Density)    1.00E-09 (Energy)
 INTEGRAL THRESHOLDS:       1.00E-11 (Initial)    1.00E-11 (Final)
 MAX. NUMBER OF ITERATIONS:       60
 INTERPOLATION TYPE:            DIIS
 INTERPOLATION STEPS:              2 (START)      1 (STEP)
 LEVEL SHIFTS:                  0.00 (CLOSED)  0.00 (OPEN) 



 Orbital guess generated from atomic densities. Full valence occupancy:   21

 Molecular orbital dump at record        2101.2

 Initial occupancy:  14

 Direct Fock-matrix evaluation.        Authors: Roland Lindh & Martin Schuetz (1993/96)

 Integral Threshold:                  0.1D-10
 Threshold for writing integrals:     0.1D-06
 Prescreening on density matrix:        ON 
 Calculation will be performed fully direct        

 ITERATION   DDIFF            GRAD            ENERGY        2-EL.EN.            DIPOLE MOMENTS         DIIS   CPU(IT)  CPU(TOT)
    1      0.000D+00      0.000D+00      -191.08024512    273.741496    1.51697   -0.01224   -0.00161    0      8.0     10.4     start
    2      0.000D+00      0.475D-02      -191.13462056    267.624423    0.88580   -0.00845   -0.00092    1      6.4     16.8     diag
    3      0.512D-02      0.280D-02      -191.15242156    270.417428    1.02452   -0.04779   -0.00086    2      6.3     23.1     diag
    4      0.171D-02      0.386D-03      -191.15312034    270.159859    1.01860   -0.05129   -0.00083    3      6.1     29.3     diag
    5      0.336D-03      0.891D-04      -191.15317307    270.185750    1.01242   -0.05660   -0.00079    4      5.9     35.2     diag
    6      0.875D-04      0.191D-04      -191.15317566    270.181642    1.01212   -0.05650   -0.00079    5      5.7     40.9     diag
    7      0.231D-04      0.861D-05      -191.15317593    270.181909    1.01189   -0.05721   -0.00079    6      5.4     46.3     diag
    8      0.685D-05      0.194D-05      -191.15317596    270.182008    1.01170   -0.05724   -0.00079    7      5.3     51.6     diag
    9      0.286D-05      0.427D-06      -191.15317597    270.182002    1.01168   -0.05726   -0.00079    0      4.9     56.5     orth

 Final occupancy:  14

 !RHF STATE  1.1 Energy              -191.153175966297
 Nuclear energy                        65.31817530
 One-electron energy                 -391.56235214
 Two-electron energy                  135.09100088
 Virial quotient                       -1.00145739
 !RHF STATE  1.1 Dipole moment          1.01168380    -0.05726303    -0.00078529
 Dipole moment /Debye                   2.57127530    -0.14553858    -0.00199588

 Orbital energies:

         1.1          2.1          3.1          4.1          5.1          6.1          7.1          8.1          9.1         10.1
    -20.572524   -20.555260   -11.265321    -1.357406    -1.354921    -0.920264    -0.720327    -0.687202    -0.615753    -0.590445

        11.1         12.1         13.1         14.1         15.1         16.1
     -0.590340    -0.515141    -0.499309    -0.445962     0.024927     0.037401


 HOMO     14.1    -0.445962 =     -12.1353eV
 LUMO     15.1     0.024927 =       0.6783eV
 LUMO-HOMO         0.470890 =      12.8136eV


 **********************************************************************************************************************************
 DATASETS  * FILE   NREC   LENGTH (MB)   RECORD NAMES
              1      18       32.92       500      610      700      900      950      970     1000      129      960     1100   
                                          VAR    BASINP    GEOM    SYMINP    ZMAT    AOBASIS   BASIS     P2S    ABASIS      S 
                                         1400     1410     1200     1210     1080     1600     1650     1700   
                                           T        V       H0       H01     AOSYM     SMH    MOLCAS    OPER   

              2       4        4.45       700     1000      520     2101   
                                         GEOM     BASIS   MCVARS     RHF  

 PROGRAMS   *        TOTAL   RHF-SCF       INT
 CPU TIMES  *        57.09     56.51      0.40
 REAL TIME  *        60.16 SEC
 DISK USED  *        42.34 MB (local),      169.37 MB (total)
 SF USED    *         0.92 MB
 GA USED    *         0.00 MB       (max)       0.00 MB       (current)
 **********************************************************************************************************************************
 SETTING EAB_HF         =      -191.15317597  AU                              

 Dummy atoms: O2  H5  H6


 Recomputing one-electron integrals since nuclear charges changed


 PROGRAM * SEWARD (Integral evaluation for generally contracted gaussian basis sets)     Author: Roland Lindh, 1990

 Geometry written to block  1 of record 700


 Point group  C1  



 ATOMIC COORDINATES

 NR  ATOM    CHARGE       X              Y              Z

   1  O1      8.00   -1.486386802    0.085355983   -0.013585466
   2  H1      1.00    0.335817133    0.023991766   -0.012917013
   3  C1      6.00   -2.358361084   -2.438282506    0.002047747
   4  H2      1.00   -4.411145066   -2.378970738    0.000418007
   5  H3      1.00   -1.749821661   -3.495555095   -1.663800640
   6  H4      1.00   -1.751828710   -3.474191337    1.682000853
   7  O2      0.00    9.334581747   -0.271324127   -0.003257451
   8  H5      0.00   10.164557283    0.462177224   -1.439208710
   9  H6      0.00   10.162063137    0.489487697    1.419875511

 Bond lengths in Bohr (Angstrom)

 1-2  1.823237010  1-3  2.670081416  3-4  2.053641307  3-5  2.064750931  3-6  2.064759324
     ( 0.964815476)     ( 1.412946237)     ( 1.086740179)     ( 1.092619139)     ( 1.092623580)

 7-8  1.813515822  7-9  1.813523507
     ( 0.959671245)     ( 0.959675312)

 Bond angles

  1-3-4  107.40559298   1-3-5  112.51964705   1-3-6  112.52114043   2-1-3  107.13200477

  4-3-5  107.98411747   4-3-6  107.98497413   5-3-6  108.23763291   8-7-9  104.05491273

 NUCLEAR CHARGE:                   18
 NUMBER OF PRIMITIVE AOS:         363
 NUMBER OF SYMMETRY AOS:          324
 NUMBER OF CONTRACTIONS:          276   (  276A   )
 NUMBER OF CORE ORBITALS:           2   (    2A   )
 NUMBER OF VALENCE ORBITALS:       12   (   12A   )

 MOLECULE CHANGED: INITIALIZING OCCUPATION AND DUMP RECORDS


 NUCLEAR REPULSION ENERGY   40.42326361


 Eigenvalues of metric

         1 0.600E-04 0.717E-04 0.879E-04 0.181E-03 0.367E-03 0.387E-03 0.393E-03 0.444E-03


 OPERATOR DM      FOR CENTER  0  COORDINATES:    0.000000    0.000000    0.000000


 **********************************************************************************************************************************
 DATASETS  * FILE   NREC   LENGTH (MB)   RECORD NAMES
              1      18       32.92       500      610      700      900      950      970     1000      129      960     1100   
                                          VAR    BASINP    GEOM    SYMINP    ZMAT    AOBASIS   BASIS     P2S    ABASIS      S 
                                         1400     1410     1200     1210     1080     1600     1650     1700   
                                           T        V       H0       H01     AOSYM     SMH    MOLCAS    OPER   

              2       4        4.45       700     1000      520     2101   
                                         GEOM     BASIS   MCVARS     RHF  

 PROGRAMS   *        TOTAL       INT   RHF-SCF       INT
 CPU TIMES  *        57.19      0.10     56.51      0.40
 REAL TIME  *        60.37 SEC
 DISK USED  *        42.34 MB (local),      169.37 MB (total)
 SF USED    *         0.92 MB
 GA USED    *         0.00 MB       (max)       0.00 MB       (current)
 **********************************************************************************************************************************


 PROGRAM * RHF-SCF (CLOSED SHELL)       Authors: W. Meyer, H.-J. Werner


 NUMBER OF ELECTRONS:       9+    9-    SPACE SYMMETRY=1    SPIN SYMMETRY: Singlet 
 CONVERGENCE THRESHOLDS:    1.00E-04 (Density)    1.00E-09 (Energy)
 INTEGRAL THRESHOLDS:       1.00E-11 (Initial)    1.00E-11 (Final)
 MAX. NUMBER OF ITERATIONS:       60
 INTERPOLATION TYPE:            DIIS
 INTERPOLATION STEPS:              2 (START)      1 (STEP)
 LEVEL SHIFTS:                  0.00 (CLOSED)  0.00 (OPEN) 



 Orbital guess generated from atomic densities. Full valence occupancy:   14

 Molecular orbital dump at record        2201.2

 Initial occupancy:   9

 Direct Fock-matrix evaluation.        Authors: Roland Lindh & Martin Schuetz (1993/96)

 Integral Threshold:                  0.1D-10
 Threshold for writing integrals:     0.1D-06
 Prescreening on density matrix:        ON 
 Calculation will be performed fully direct        

 ITERATION   DDIFF            GRAD            ENERGY        2-EL.EN.            DIPOLE MOMENTS         DIIS   CPU(IT)  CPU(TOT)
    1      0.000D+00      0.000D+00      -115.05603072    164.560627    0.67006   -0.77562    0.00493    0      7.8     10.8     start
    2      0.000D+00      0.394D-02      -115.08413747    162.035725    0.35053   -0.46103    0.00291    1      6.3     17.0     diag
    3      0.353D-02      0.215D-02      -115.09133715    163.270201    0.41223   -0.58630    0.00371    2      6.1     23.1     diag
    4      0.111D-02      0.428D-03      -115.09186924    163.094207    0.40882   -0.58066    0.00367    3      5.9     29.0     diag
    5      0.299D-03      0.851D-04      -115.09190249    163.105815    0.40305   -0.58366    0.00369    4      5.7     34.7     diag
    6      0.695D-04      0.160D-04      -115.09190405    163.103698    0.40293   -0.58452    0.00370    5      5.4     40.1     diag
    7      0.187D-04      0.339D-05      -115.09190412    163.103380    0.40265   -0.58470    0.00370    6      5.1     45.2     diag
    8      0.436D-05      0.875D-06      -115.09190412    163.103687    0.40265   -0.58472    0.00370    0      4.7     50.0     orth

 Final occupancy:   9

 !RHF STATE  1.1 Energy              -115.091904122068
 Nuclear energy                        40.42326361
 One-electron energy                 -237.06701125
 Two-electron energy                   81.55184352
 Virial quotient                       -1.00143798
 !RHF STATE  1.1 Dipole moment          0.40264570    -0.58471511     0.00369810
 Dipole moment /Debye                   1.02335626    -1.48610024     0.00939902

 Orbital energies:

         1.1          2.1          3.1          4.1          5.1          6.1          7.1          8.1          9.1         10.1
    -20.560887   -11.270251    -1.360461    -0.925330    -0.692644    -0.620919    -0.595471    -0.504424    -0.451275     0.020862

        11.1
      0.035622


 HOMO      9.1    -0.451275 =     -12.2798eV
 LUMO     10.1     0.020862 =       0.5677eV
 LUMO-HOMO         0.472136 =      12.8475eV


 **********************************************************************************************************************************
 DATASETS  * FILE   NREC   LENGTH (MB)   RECORD NAMES
              1      18       32.92       500      610      700      900      950      970     1000      129      960     1100   
                                          VAR    BASINP    GEOM    SYMINP    ZMAT    AOBASIS   BASIS     P2S    ABASIS      S 
                                         1400     1410     1200     1210     1080     1600     1650     1700   
                                           T        V       H0       H01     AOSYM     SMH    MOLCAS    OPER   

              2       5       10.01       700     1000      520     2101     2201   
                                         GEOM     BASIS   MCVARS     RHF      RHF  

 PROGRAMS   *        TOTAL   RHF-SCF       INT   RHF-SCF       INT
 CPU TIMES  *       107.19     50.00      0.10     56.51      0.40
 REAL TIME  *       111.00 SEC
 DISK USED  *        47.59 MB (local),      190.36 MB (total)
 SF USED    *         0.92 MB
 GA USED    *         0.00 MB       (max)       0.00 MB       (current)
 **********************************************************************************************************************************
 SETTING EA_HF          =      -115.09190412  AU                              

 Dummy atoms: O1  H1  C1  H2  H3  H4


 Recomputing one-electron integrals since nuclear charges changed


 PROGRAM * SEWARD (Integral evaluation for generally contracted gaussian basis sets)     Author: Roland Lindh, 1990

 Geometry written to block  1 of record 700


 Point group  C1  



 ATOMIC COORDINATES

 NR  ATOM    CHARGE       X              Y              Z

   1  O1      0.00   -1.486386802    0.085355983   -0.013585466
   2  H1      0.00    0.335817133    0.023991766   -0.012917013
   3  C1      0.00   -2.358361084   -2.438282506    0.002047747
   4  H2      0.00   -4.411145066   -2.378970738    0.000418007
   5  H3      0.00   -1.749821661   -3.495555095   -1.663800640
   6  H4      0.00   -1.751828710   -3.474191337    1.682000853
   7  O2      8.00    9.334581747   -0.271324127   -0.003257451
   8  H5      1.00   10.164557283    0.462177224   -1.439208710
   9  H6      1.00   10.162063137    0.489487697    1.419875511

 Bond lengths in Bohr (Angstrom)

 1-2  1.823237010  1-3  2.670081416  3-4  2.053641307  3-5  2.064750931  3-6  2.064759324
     ( 0.964815476)     ( 1.412946237)     ( 1.086740179)     ( 1.092619139)     ( 1.092623580)

 7-8  1.813515822  7-9  1.813523507
     ( 0.959671245)     ( 0.959675312)

 Bond angles

  1-3-4  107.40559298   1-3-5  112.51964705   1-3-6  112.52114043   2-1-3  107.13200477

  4-3-5  107.98411747   4-3-6  107.98497413   5-3-6  108.23763291   8-7-9  104.05491273

 NUCLEAR CHARGE:                   10
 NUMBER OF PRIMITIVE AOS:         363
 NUMBER OF SYMMETRY AOS:          324
 NUMBER OF CONTRACTIONS:          276   (  276A   )
 NUMBER OF CORE ORBITALS:           1   (    1A   )
 NUMBER OF VALENCE ORBITALS:        6   (    6A   )

 MOLECULE CHANGED: INITIALIZING OCCUPATION AND DUMP RECORDS


 NUCLEAR REPULSION ENERGY    9.17236909


 Eigenvalues of metric

         1 0.600E-04 0.717E-04 0.879E-04 0.181E-03 0.367E-03 0.387E-03 0.393E-03 0.444E-03


 OPERATOR DM      FOR CENTER  0  COORDINATES:    0.000000    0.000000    0.000000


 **********************************************************************************************************************************
 DATASETS  * FILE   NREC   LENGTH (MB)   RECORD NAMES
              1      18       32.92       500      610      700      900      950      970     1000      129      960     1100   
                                          VAR    BASINP    GEOM    SYMINP    ZMAT    AOBASIS   BASIS     P2S    ABASIS      S 
                                         1400     1410     1200     1210     1080     1600     1650     1700   
                                           T        V       H0       H01     AOSYM     SMH    MOLCAS    OPER   

              2       5       10.01       700     1000      520     2101     2201   
                                         GEOM     BASIS   MCVARS     RHF      RHF  

 PROGRAMS   *        TOTAL       INT   RHF-SCF       INT   RHF-SCF       INT
 CPU TIMES  *       107.32      0.12     50.00      0.10     56.51      0.40
 REAL TIME  *       111.24 SEC
 DISK USED  *        47.59 MB (local),      190.36 MB (total)
 SF USED    *         0.92 MB
 GA USED    *         0.00 MB       (max)       0.00 MB       (current)
 **********************************************************************************************************************************


 PROGRAM * RHF-SCF (CLOSED SHELL)       Authors: W. Meyer, H.-J. Werner


 NUMBER OF ELECTRONS:       5+    5-    SPACE SYMMETRY=1    SPIN SYMMETRY: Singlet 
 CONVERGENCE THRESHOLDS:    1.00E-04 (Density)    1.00E-09 (Energy)
 INTEGRAL THRESHOLDS:       1.00E-11 (Initial)    1.00E-11 (Final)
 MAX. NUMBER OF ITERATIONS:       60
 INTERPOLATION TYPE:            DIIS
 INTERPOLATION STEPS:              2 (START)      1 (STEP)
 LEVEL SHIFTS:                  0.00 (CLOSED)  0.00 (OPEN) 



 Orbital guess generated from atomic densities. Full valence occupancy:    7

 Molecular orbital dump at record        2301.2

 Initial occupancy:   5

 Direct Fock-matrix evaluation.        Authors: Roland Lindh & Martin Schuetz (1993/96)

 Integral Threshold:                  0.1D-10
 Threshold for writing integrals:     0.1D-06
 Prescreening on density matrix:        ON 
 Calculation will be performed fully direct        

 ITERATION   DDIFF            GRAD            ENERGY        2-EL.EN.            DIPOLE MOMENTS         DIIS   CPU(IT)  CPU(TOT)
    1      0.000D+00      0.000D+00       -76.02252569     77.615439    0.84685    0.76338   -0.00655    0      7.4     10.3     start
    2      0.000D+00      0.584D-02       -76.04932614     74.048015    0.50011    0.45079   -0.00387    1      6.0     16.3     diag
    3      0.372D-02      0.365D-02       -76.06021045     75.613995    0.58602    0.52822   -0.00453    2      5.9     22.2     diag
    4      0.132D-02      0.339D-03       -76.06039210     75.525295    0.58341    0.52587   -0.00451    3      5.5     27.6     diag
    5      0.169D-03      0.914D-04       -76.06040991     75.538973    0.58248    0.52503   -0.00450    4      5.4     33.0     diag
    6      0.513D-04      0.172D-04       -76.06041093     75.538243    0.58236    0.52492   -0.00450    5      4.9     37.9     diag
    7      0.121D-04      0.329D-05       -76.06041097     75.538358    0.58230    0.52487   -0.00450    6      4.7     42.6     diag
    8      0.316D-05      0.623D-06       -76.06041097     75.538297    0.58228    0.52485   -0.00450    0      3.8     46.3     orth

 Final occupancy:   5

 !RHF STATE  1.1 Energy               -76.060410972413
 Nuclear energy                         9.17236909
 One-electron energy                 -123.00192859
 Two-electron energy                   37.76914853
 Virial quotient                       -1.00145625
 !RHF STATE  1.1 Dipole moment          0.58227873     0.52484943    -0.00450279
 Dipole moment /Debye                   1.47990798     1.33394682    -0.01144420

 Orbital energies:

         1.1          2.1          3.1          4.1          5.1          6.1          7.1
    -20.567832    -1.352680    -0.715623    -0.585383    -0.510296     0.025023     0.032390


 HOMO      5.1    -0.510296 =     -13.8859eV
 LUMO      6.1     0.025023 =       0.6809eV
 LUMO-HOMO         0.535319 =      14.5668eV


 **********************************************************************************************************************************
 DATASETS  * FILE   NREC   LENGTH (MB)   RECORD NAMES
              1      18       32.92       500      610      700      900      950      970     1000      129      960     1100   
                                          VAR    BASINP    GEOM    SYMINP    ZMAT    AOBASIS   BASIS     P2S    ABASIS      S 
                                         1400     1410     1200     1210     1080     1600     1650     1700   
                                           T        V       H0       H01     AOSYM     SMH    MOLCAS    OPER   

              2       6       15.56       700     1000      520     2101     2201     2301   
                                         GEOM     BASIS   MCVARS     RHF      RHF      RHF  

 PROGRAMS   *        TOTAL   RHF-SCF       INT   RHF-SCF       INT   RHF-SCF       INT
 CPU TIMES  *       153.74     46.42      0.12     50.00      0.10     56.51      0.40
 REAL TIME  *       158.22 SEC
 DISK USED  *        53.14 MB (local),      212.58 MB (total)
 SF USED    *         0.92 MB
 GA USED    *         0.00 MB       (max)       0.00 MB       (current)
 **********************************************************************************************************************************
 SETTING EB_HF          =       -76.06041097  AU                              
 SETTING E_AB_INT       =        -0.00086087  AU                              

 *** results in hartree
 E_AB_INT         =        -0.00086087 AU
 Molecular orbitals read from record     2301.2  Type=RHF/CANONICAL (state 1.1)
 Occupation numbers read from record     2301.2  Type=RHF/RHF (state 1.1)
 Orbital energies read from record       2301.2  Type=RHF/CANONICAL (state 1.1)
 Redundancy group numbers read from rec  2301.2  Type=RHF/RHF (state 1.1)

 RHF/aug-cc-pVTZ energy=    -76.060410972413

         RHF-SCF         RHF-SCF         RHF-SCF
    -76.06041097   -115.09190412   -191.15317597
 **********************************************************************************************************************************
 Molpro calculation terminated
