
 Primary working directories    : /scratch/sirous/460905/molpro.2AZb2A2LaY
 Secondary working directories  : /scratch/sirous/460905/molpro.2AZb2A2LaY
 Wavefunction directory         : /scratch/sirous/460905/
 Main file repository           : /scratch/sirous/460905/molpro.2AZb2A2LaY/

 id        : karlovklimes

 Nodes                      nprocs
 nc-19.cc.karlov.mff.cuni.cz    4

 Using customized tuning parameters: mindgm=1; mindgv=20; mindgc=4; mindgr=1; noblas=0; minvec=7
 default implementation of scratch files=sf  


 Variables initialized (934), CPU time= 0.01 sec
 ***,CH3C6H4CN+CF3CN+BF3
 memory,500,m
 gdirect
 gthresh,energy=1.d-8,twoint=1.d-19,oneint=1.d-19,zero=1.d-15,orbital=1.d-8,grid=1.d-8
 symmetry,nosym
 geomtyp=xyz
                                                                                 ! Geometry
 geometry={
 H1        0.0176077530000000    0.6404641599999999     -0.7613515990000000
 H2        -0.0133778400000000    0.6316333020000000     0.7545505100000000
 H3        0.0240861940000000    3.7269150510000002     0.0012916600000000
 H4        0.9847960170000000    4.8998273129999994     -0.0163366190000000
 O1        0.0000000000000000    1.2272060000000000     0.0000000000000000
 O2        0.0472419370000000    4.6880053420000003     0.0025334240000000
 }
 
 
 
 basis=avtz
 
 
 
                                                                                 ! Dimer Calculation
 {rks,pbe,accu=1.d-8;orbital,2101.2}
 eab_PBE=energy
 
 
                                                                                 !monomer A
 dummy,3,4,6;                                                                    ! NOW MONOMER B IS DUMMY
 {rks,pbe,accu=1.d-8;orbital,2201.2}
 ea_PBE=energy
                                                                                 !monomer B
 dummy,1,2,5;                                                                    !NOW MONOMER A IS DUMMY
 {rks,pbe,accu=1.d-8;orbital,2301.2}
 eb_PBE=energy
 
 E_AB_int=eab_PBE-ea_PBE-eb_PBE
 
 
 text,results in hartree
 show,E_AB_int
 
 Commands  initialized (763), CPU time= 0.01 sec, 617 directives.
 Default parameters read. Elapsed time= 0.26 sec

 Checking input...
 Passed
1


                                         ***  PROGRAM SYSTEM MOLPRO  ***
                                       Copyright, TTI GmbH Stuttgart, 2015
                                    Version 2019.2 linked Jun  8 2019 11:26:33


 **********************************************************************************************************************************
 LABEL *   CH3C6H4CN+CF3CN+BF3                                                           
  64 bit mpp version                                                                     DATE: 27-Mar-20          TIME: 14:31:06  
 **********************************************************************************************************************************

 SHA1:             8135a10abc80eafa5b3ae28ffc55be4890dc4c84
 **********************************************************************************************************************************

 THRESHOLDS:

 ZERO    =  1.00D-15  ONEINT  =  1.00D-19  TWOINT  =  1.00D-19  PREFAC  =  1.00D-14  XXXXXX  =  1.00D-09  EORDER  =  1.00D-04
 ENERGY  =  1.00D-08  ETEST   =  0.00D+00  EDENS   =  0.00D+00  THRDEDEF=  1.00D-06  GRADIENT=  1.00D-02  STEP    =  1.00D-03
 ORBITAL =  1.00D-08  CIVEC   =  1.00D-05  COEFF   =  1.00D-04  PRINTCI =  5.00D-02  PUNCHCI =  9.90D+01  OPTGRAD =  3.00D-04
 OPTENERG=  1.00D-06  OPTSTEP =  3.00D-04  THRGRAD =  1.00D-10  COMPRESS=  1.00D-11  VARMIN  =  1.00D-07  VARMAX  =  1.00D-03
 THRDOUB =  0.00D+00  THRDIV  =  1.00D-05  THRRED  =  1.00D-07  THRPSP  =  1.00D+00  THRDC   =  1.00D-10  THRCS   =  1.00D-10
 THRNRM  =  1.00D-08  THREQ   =  0.00D+00  THRDE   =  1.00D+00  THRREF  =  1.00D-05  SPARFAC =  1.00D+00  THRDLP  =  1.00D-07
 THRDIA  =  1.00D-10  THRDLS  =  1.00D-07  THRGPS  =  0.00D+00  THRKEX  =  0.00D+00  THRDIS  =  2.00D-01  THRVAR  =  1.00D-10
 THRLOC  =  1.00D-06  THRGAP  =  1.00D-06  THRLOCT = -1.00D+00  THRGAPT = -1.00D+00  THRORB  =  1.00D-06  THRMLTP =  0.00D+00
 THRCPQCI=  1.00D-10  KEXTA   =  0.00D+00  THRCOARS=  0.00D+00  SYMTOL  =  1.00D-06  GRADTOL =  1.00D-06  THROVL  =  1.00D-08
 THRORTH =  1.00D-08  GRID    =  1.00D-08  GRIDMAX =  1.00D-03  DTMAX   =  0.00D+00  THROCCDE=  1.00D-01  THROCCDE=  1.00D-01
 THRPRINT=  2.50D-01


 Variable memory set to  500000000 words,  buffer space 

 SETTING GEOMTYP        =    XYZ
 ZSYMEL=NOSYM

 SETTING BASIS          =    AVTZ


 Recomputing integrals since basis changed


 Using spherical harmonics

 Library entry H      S aug-cc-pVTZ          selected for orbital group  1
 Library entry H      P aug-cc-pVTZ          selected for orbital group  1
 Library entry H      D aug-cc-pVTZ          selected for orbital group  1
 Library entry O      S aug-cc-pVTZ          selected for orbital group  2
 Library entry O      P aug-cc-pVTZ          selected for orbital group  2
 Library entry O      D aug-cc-pVTZ          selected for orbital group  2
 Library entry O      F aug-cc-pVTZ          selected for orbital group  2


 PROGRAM * SEWARD (Integral evaluation for generally contracted gaussian basis sets)     Author: Roland Lindh, 1990

 Geometry written to block  1 of record 700


 Point group  C1  



 ATOMIC COORDINATES

 NR  ATOM    CHARGE       X              Y              Z

   1  H1      1.00    0.033273831    1.210301855   -1.438746007
   2  H2      1.00   -0.025280454    1.193613952    1.425893811
   3  H3      1.00    0.045516310    7.042848736    0.002440884
   4  H4      1.00    1.860994761    9.259331679   -0.030871736
   5  O1      8.00    0.000000000    2.319083238    0.000000000
   6  O2      8.00    0.089274323    8.859046167    0.004787478

 Bond lengths in Bohr (Angstrom)

 1-5  1.816726005  2-5  1.816726005  3-6  1.816726005  4-6  1.816726006
     ( 0.961370000)     ( 0.961370000)     ( 0.961370001)     ( 0.961370001)

 Bond angles

  1-5-2  104.10700004   3-6-4  104.10699993

 NUCLEAR CHARGE:                   20
 NUMBER OF PRIMITIVE AOS:         242
 NUMBER OF SYMMETRY AOS:          216
 NUMBER OF CONTRACTIONS:          184   (  184A   )
 NUMBER OF CORE ORBITALS:           2   (    2A   )
 NUMBER OF VALENCE ORBITALS:       12   (   12A   )


 NUCLEAR REPULSION ENERGY   33.52870779


 Eigenvalues of metric

         1 0.260E-03 0.309E-03 0.313E-03 0.385E-03 0.858E-03 0.132E-02 0.154E-02 0.154E-02


 OPERATOR DM      FOR CENTER  0  COORDINATES:    0.000000    0.000000    0.000000


 **********************************************************************************************************************************
 DATASETS  * FILE   NREC   LENGTH (MB)   RECORD NAMES
              1      18       31.30       500      610      700      900      950      970     1000      129      960     1100   
                                          VAR    BASINP    GEOM    SYMINP    ZMAT    AOBASIS   BASIS     P2S    ABASIS      S 
                                         1400     1410     1200     1210     1080     1600     1650     1700   
                                           T        V       H0       H01     AOSYM     SMH    MOLCAS    OPER   

 PROGRAMS   *        TOTAL       INT
 CPU TIMES  *         0.48      0.31
 REAL TIME  *         1.68 SEC
 DISK USED  *        31.70 MB (local),      126.81 MB (total)
 GA USED    *         0.00 MB       (max)       0.00 MB       (current)
 **********************************************************************************************************************************

 Density functional group PBE=PBEX+PBEC
 Functional: PBEX(Automatically generated (new) PBEX)                          Gradient terms: 1
 Functional: PBEC(Automatically generated (new) PBEC)                          Gradient terms: 1
 Use libxcgrid:  F
 Use grid at  1800.2

 Functional: PBEX                      Factor:  1.0000
 Functional: PBEC                      Factor:  1.0000

 Generated new metagrid on record  1800.2 with target accuracy 1.0D-08 and 60196 points in CPU time    0.2
 Computed new grid on record 1800.1 in CPU time    0.2
  150340 words reserved for DFT integration

 PROGRAM * RKS-SCF (Restricted closed shell Kohn-Sham)     Authors: W. Meyer, H.-J. Werner, P.J. Knowles, 1993

 NUMBER OF ELECTRONS:      10+   10-    SPACE SYMMETRY=1    SPIN SYMMETRY: Singlet 
 CONVERGENCE THRESHOLDS:    1.00E-04 (Density)    1.00E-08 (Energy)
 INTEGRAL THRESHOLDS:       1.00E-11 (Initial)    1.00E-11 (Final)
 MAX. NUMBER OF ITERATIONS:       60
 INTERPOLATION TYPE:            DIIS
 INTERPOLATION STEPS:              2 (START)      1 (STEP)
 LEVEL SHIFTS:                  0.00 (CLOSED)  0.00 (OPEN) 



 Use fine grid record 1800.2 for energy threshold  1.0D-08
 Orbital guess generated from atomic densities. Full valence occupancy:   14

 Molecular orbital dump at record        2101.2

 Initial occupancy:  10

 Direct Fock-matrix evaluation.        Authors: Roland Lindh & Martin Schuetz (1993/96)

 Integral Threshold:                  0.1D-10
 Threshold for writing integrals:     0.1D-06
 Prescreening on density matrix:        ON 
 Calculation will be performed fully direct        

 ITERATION   DDIFF            GRAD            ENERGY        2-EL.EN.            DIPOLE MOMENTS         DIIS   CPU(IT)  CPU(TOT)
    1      0.000D+00      0.000D+00      -152.60341374    226.636039    0.85246   -1.82615   -0.02500    0      3.7      5.9     start
    2      0.000D+00      0.114D-01      -151.91996791    194.938906   -0.39044    0.15781    0.01180    1      2.6      8.5     diag
    3      0.210D-01      0.252D-01      -152.76467117    217.562370    0.57017   -1.32444   -0.01676    2      2.6     11.1     diag
    4      0.143D-01      0.675D-03      -152.76525697    216.839562    0.52400   -1.30456   -0.01549    3      2.6     13.7     diag
    5      0.595D-03      0.410D-03      -152.76543250    216.862059    0.53682   -1.29617   -0.01575    4      2.5     16.2     diag
    6      0.297D-03      0.132D-03      -152.76545329    216.919111    0.53604   -1.29543   -0.01578    5      2.5     18.7     diag
    7      0.828D-04      0.212D-04      -152.76545389    216.930326    0.53647   -1.29761   -0.01578    6      2.5     21.2     diag
    8      0.131D-04      0.188D-05      -152.76545389    216.930708    0.53662   -1.29751   -0.01579    7      2.4     23.6     diag
    9      0.138D-05      0.445D-06      -152.76545389    216.930680    0.53655   -1.29752   -0.01579    0      2.3     25.9     orth

 Final occupancy:  10

 !RKS STATE  1.1 Energy              -152.765453892521
 Nuclear energy                        33.52870779
 One-electron energy                 -276.29180572
 Two-electron energy                  108.46533996
 Density functional                   -18.46769592     PBEX=-17.81789030 PBEC= -0.64980562
 Virial quotient                       -1.00558597
 !RKS STATE  1.1 Dipole moment          0.53655083    -1.29752308    -0.01578567
 Dipole moment /Debye                   1.36368685    -3.29775872    -0.04012054

 Orbital energies:

         1.1          2.1          3.1          4.1          5.1          6.1          7.1          8.1          9.1         10.1
    -18.776781   -18.740434    -0.947886    -0.911993    -0.499016    -0.463753    -0.364192    -0.323963    -0.282589    -0.247968

        11.1         12.1
     -0.046286    -0.009588


 HOMO     10.1    -0.247968 =      -6.7475eV
 LUMO     11.1    -0.046286 =      -1.2595eV
 LUMO-HOMO         0.201682 =       5.4880eV


 **********************************************************************************************************************************
 DATASETS  * FILE   NREC   LENGTH (MB)   RECORD NAMES
              1      19       31.30       500      610      700      900      950      970     1000      129      960     1100   
                                          VAR    BASINP    GEOM    SYMINP    ZMAT    AOBASIS   BASIS     P2S    ABASIS      S 
                                         1400     1410     1200     1210     1080     1600     1650     1700     1800   
                                           T        V       H0       H01     AOSYM     SMH    MOLCAS    OPER     GRID   

              2       5        3.54       700     1000      520     1800     2101   
                                         GEOM     BASIS   MCVARS    GRID      RKS  

 PROGRAMS   *        TOTAL   RKS-SCF       INT
 CPU TIMES  *        26.60     26.12      0.31
 REAL TIME  *        29.35 SEC
 DISK USED  *        37.09 MB (local),      148.35 MB (total)
 SF USED    *         0.41 MB
 GA USED    *         1.99 MB       (max)       1.99 MB       (current)
 **********************************************************************************************************************************
 SETTING EAB_PBE        =      -152.76545389  AU                              

 Dummy atoms: H3  H4  O2


 Recomputing one-electron integrals since nuclear charges changed


 PROGRAM * SEWARD (Integral evaluation for generally contracted gaussian basis sets)     Author: Roland Lindh, 1990

 Geometry written to block  1 of record 700


 Point group  C1  



 ATOMIC COORDINATES

 NR  ATOM    CHARGE       X              Y              Z

   1  H1      1.00    0.033273831    1.210301855   -1.438746007
   2  H2      1.00   -0.025280454    1.193613952    1.425893811
   3  H3      0.00    0.045516310    7.042848736    0.002440884
   4  H4      0.00    1.860994761    9.259331679   -0.030871736
   5  O1      8.00    0.000000000    2.319083238    0.000000000
   6  O2      0.00    0.089274323    8.859046167    0.004787478

 Bond lengths in Bohr (Angstrom)

 1-5  1.816726005  2-5  1.816726005  3-6  1.816726005  4-6  1.816726006
     ( 0.961370000)     ( 0.961370000)     ( 0.961370001)     ( 0.961370001)

 Bond angles

  1-5-2  104.10700004   3-6-4  104.10699993

 NUCLEAR CHARGE:                   10
 NUMBER OF PRIMITIVE AOS:         242
 NUMBER OF SYMMETRY AOS:          216
 NUMBER OF CONTRACTIONS:          184   (  184A   )
 NUMBER OF CORE ORBITALS:           1   (    1A   )
 NUMBER OF VALENCE ORBITALS:        6   (    6A   )

 MOLECULE CHANGED: INITIALIZING OCCUPATION AND DUMP RECORDS


 NUCLEAR REPULSION ENERGY    9.15605699


 Eigenvalues of metric

         1 0.260E-03 0.309E-03 0.313E-03 0.385E-03 0.858E-03 0.132E-02 0.154E-02 0.154E-02


 OPERATOR DM      FOR CENTER  0  COORDINATES:    0.000000    0.000000    0.000000


 **********************************************************************************************************************************
 DATASETS  * FILE   NREC   LENGTH (MB)   RECORD NAMES
              1      19       31.30       500      610      700      900      950      970     1000      129      960     1100   
                                          VAR    BASINP    GEOM    SYMINP    ZMAT    AOBASIS   BASIS     P2S    ABASIS      S 
                                         1400     1410     1200     1210     1080     1600     1650     1700     1800   
                                           T        V       H0       H01     AOSYM     SMH    MOLCAS    OPER     GRID   

              2       5        3.54       700     1000      520     1800     2101   
                                         GEOM     BASIS   MCVARS    GRID      RKS  

 PROGRAMS   *        TOTAL       INT   RKS-SCF       INT
 CPU TIMES  *        26.65      0.05     26.12      0.31
 REAL TIME  *        29.49 SEC
 DISK USED  *        37.09 MB (local),      148.35 MB (total)
 SF USED    *         0.41 MB
 GA USED    *         1.99 MB       (max)       1.99 MB       (current)
 **********************************************************************************************************************************

 Density functional group PBE=PBEX+PBEC
 Functional: PBEX(Automatically generated (new) PBEX)                          Gradient terms: 1
 Functional: PBEC(Automatically generated (new) PBEC)                          Gradient terms: 1
 Use libxcgrid:  F
 Use grid at  1800.2

 Functional: PBEX                      Factor:  1.0000
 Functional: PBEC                      Factor:  1.0000

 Generated new metagrid on record  1800.2 with target accuracy 1.0D-08 and 60196 points in CPU time    0.2
 Computed new grid on record 1800.1 in CPU time    0.2
  150340 words reserved for DFT integration

 PROGRAM * RKS-SCF (Restricted closed shell Kohn-Sham)     Authors: W. Meyer, H.-J. Werner, P.J. Knowles, 1993

 NUMBER OF ELECTRONS:       5+    5-    SPACE SYMMETRY=1    SPIN SYMMETRY: Singlet 
 CONVERGENCE THRESHOLDS:    1.00E-04 (Density)    1.00E-08 (Energy)
 INTEGRAL THRESHOLDS:       1.00E-11 (Initial)    1.00E-11 (Final)
 MAX. NUMBER OF ITERATIONS:       60
 INTERPOLATION TYPE:            DIIS
 INTERPOLATION STEPS:              2 (START)      1 (STEP)
 LEVEL SHIFTS:                  0.00 (CLOSED)  0.00 (OPEN) 



 Use fine grid record 1800.2 for energy threshold  1.0D-08
 Orbital guess generated from atomic densities. Full valence occupancy:    7

 Molecular orbital dump at record        2201.2

 Initial occupancy:   5

 Direct Fock-matrix evaluation.        Authors: Roland Lindh & Martin Schuetz (1993/96)

 Integral Threshold:                  0.1D-10
 Threshold for writing integrals:     0.1D-06
 Prescreening on density matrix:        ON 
 Calculation will be performed fully direct        

 ITERATION   DDIFF            GRAD            ENERGY        2-EL.EN.            DIPOLE MOMENTS         DIIS   CPU(IT)  CPU(TOT)
    1      0.000D+00      0.000D+00       -76.29636719     98.100317    0.00388   -1.09747   -0.00631    0      4.2      7.2     start
    2      0.000D+00      0.114D-01       -75.92497867     81.999526   -0.00152    0.40606    0.00240    1      2.8     10.0     diag
    3      0.152D-01      0.257D-01       -76.37984319     93.541489    0.00262   -0.73638   -0.00424    2      2.6     12.6     diag
    4      0.105D-01      0.648D-03       -76.38021709     93.158719    0.00252   -0.70897   -0.00408    3      2.6     15.2     diag
    5      0.353D-03      0.148D-03       -76.38023003     93.206893    0.00251   -0.70722   -0.00407    4      2.5     17.7     diag
    6      0.568D-04      0.346D-04       -76.38023087     93.218288    0.00252   -0.70950   -0.00408    5      2.5     20.2     diag
    7      0.141D-04      0.113D-05       -76.38023087     93.218542    0.00252   -0.70943   -0.00408    6      2.3     22.5     diag
    8      0.473D-06      0.955D-07       -76.38023087     93.218641    0.00252   -0.70945   -0.00408    0      2.1     24.6     orth

 Final occupancy:   5

 !RKS STATE  1.1 Energy               -76.380230869365
 Nuclear energy                         9.15605699
 One-electron energy                 -122.91319937
 Two-electron energy                   46.60932072
 Density functional                    -9.23240921     PBEX=-8.90784804 PBEC=-0.32456117
 Virial quotient                       -1.00552960
 !RKS STATE  1.1 Dipole moment          0.00252125    -0.70944839    -0.00408425
 Dipole moment /Debye                   0.00640796    -1.80311983    -0.01038045

 Orbital energies:

         1.1          2.1          3.1          4.1          5.1          6.1          7.1
    -18.760338    -0.931720    -0.483393    -0.343694    -0.266190    -0.034614     0.016982


 HOMO      5.1    -0.266190 =      -7.2434eV
 LUMO      6.1    -0.034614 =      -0.9419eV
 LUMO-HOMO         0.231576 =       6.3015eV


 **********************************************************************************************************************************
 DATASETS  * FILE   NREC   LENGTH (MB)   RECORD NAMES
              1      19       31.30       500      610      700      900      950      970     1000      129      960     1100   
                                          VAR    BASINP    GEOM    SYMINP    ZMAT    AOBASIS   BASIS     P2S    ABASIS      S 
                                         1400     1410     1200     1210     1080     1600     1650     1700     1800   
                                           T        V       H0       H01     AOSYM     SMH    MOLCAS    OPER     GRID   

              2       6        7.39       700     1000      520     1800     2101     2201   
                                         GEOM     BASIS   MCVARS    GRID      RKS      RKS  

 PROGRAMS   *        TOTAL   RKS-SCF       INT   RKS-SCF       INT
 CPU TIMES  *        51.52     24.85      0.05     26.12      0.31
 REAL TIME  *        55.11 SEC
 DISK USED  *        40.80 MB (local),      163.22 MB (total)
 SF USED    *         0.41 MB
 GA USED    *         1.99 MB       (max)       1.99 MB       (current)
 **********************************************************************************************************************************
 SETTING EA_PBE         =       -76.38023087  AU                              

 Dummy atoms: H1  H2  O1


 Recomputing one-electron integrals since nuclear charges changed


 PROGRAM * SEWARD (Integral evaluation for generally contracted gaussian basis sets)     Author: Roland Lindh, 1990

 Geometry written to block  1 of record 700


 Point group  C1  



 ATOMIC COORDINATES

 NR  ATOM    CHARGE       X              Y              Z

   1  H1      0.00    0.033273831    1.210301855   -1.438746007
   2  H2      0.00   -0.025280454    1.193613952    1.425893811
   3  H3      1.00    0.045516310    7.042848736    0.002440884
   4  H4      1.00    1.860994761    9.259331679   -0.030871736
   5  O1      0.00    0.000000000    2.319083238    0.000000000
   6  O2      8.00    0.089274323    8.859046167    0.004787478

 Bond lengths in Bohr (Angstrom)

 1-5  1.816726005  2-5  1.816726005  3-6  1.816726005  4-6  1.816726006
     ( 0.961370000)     ( 0.961370000)     ( 0.961370001)     ( 0.961370001)

 Bond angles

  1-5-2  104.10700004   3-6-4  104.10699993

 NUCLEAR CHARGE:                   10
 NUMBER OF PRIMITIVE AOS:         242
 NUMBER OF SYMMETRY AOS:          216
 NUMBER OF CONTRACTIONS:          184   (  184A   )
 NUMBER OF CORE ORBITALS:           1   (    1A   )
 NUMBER OF VALENCE ORBITALS:        6   (    6A   )

 MOLECULE CHANGED: INITIALIZING OCCUPATION AND DUMP RECORDS


 NUCLEAR REPULSION ENERGY    9.15605698


 Eigenvalues of metric

         1 0.260E-03 0.309E-03 0.313E-03 0.385E-03 0.858E-03 0.132E-02 0.154E-02 0.154E-02


 OPERATOR DM      FOR CENTER  0  COORDINATES:    0.000000    0.000000    0.000000


 **********************************************************************************************************************************
 DATASETS  * FILE   NREC   LENGTH (MB)   RECORD NAMES
              1      19       31.30       500      610      700      900      950      970     1000      129      960     1100   
                                          VAR    BASINP    GEOM    SYMINP    ZMAT    AOBASIS   BASIS     P2S    ABASIS      S 
                                         1400     1410     1200     1210     1080     1600     1650     1700     1800   
                                           T        V       H0       H01     AOSYM     SMH    MOLCAS    OPER     GRID   

              2       6        7.39       700     1000      520     1800     2101     2201   
                                         GEOM     BASIS   MCVARS    GRID      RKS      RKS  

 PROGRAMS   *        TOTAL       INT   RKS-SCF       INT   RKS-SCF       INT
 CPU TIMES  *        51.57      0.04     24.85      0.05     26.12      0.31
 REAL TIME  *        55.25 SEC
 DISK USED  *        40.80 MB (local),      163.22 MB (total)
 SF USED    *         0.41 MB
 GA USED    *         1.99 MB       (max)       1.99 MB       (current)
 **********************************************************************************************************************************

 Density functional group PBE=PBEX+PBEC
 Functional: PBEX(Automatically generated (new) PBEX)                          Gradient terms: 1
 Functional: PBEC(Automatically generated (new) PBEC)                          Gradient terms: 1
 Use libxcgrid:  F
 Use grid at  1800.2

 Functional: PBEX                      Factor:  1.0000
 Functional: PBEC                      Factor:  1.0000

  150340 words reserved for DFT integration

 PROGRAM * RKS-SCF (Restricted closed shell Kohn-Sham)     Authors: W. Meyer, H.-J. Werner, P.J. Knowles, 1993

 NUMBER OF ELECTRONS:       5+    5-    SPACE SYMMETRY=1    SPIN SYMMETRY: Singlet 
 CONVERGENCE THRESHOLDS:    1.00E-04 (Density)    1.00E-08 (Energy)
 INTEGRAL THRESHOLDS:       1.00E-11 (Initial)    1.00E-11 (Final)
 MAX. NUMBER OF ITERATIONS:       60
 INTERPOLATION TYPE:            DIIS
 INTERPOLATION STEPS:              2 (START)      1 (STEP)
 LEVEL SHIFTS:                  0.00 (CLOSED)  0.00 (OPEN) 



 Use fine grid record 1800.2 for energy threshold  1.0D-08
 Orbital guess generated from atomic densities. Full valence occupancy:    7

 Molecular orbital dump at record        2301.2

 Initial occupancy:   5

 Direct Fock-matrix evaluation.        Authors: Roland Lindh & Martin Schuetz (1993/96)

 Integral Threshold:                  0.1D-10
 Threshold for writing integrals:     0.1D-06
 Prescreening on density matrix:        ON 
 Calculation will be performed fully direct        

 ITERATION   DDIFF            GRAD            ENERGY        2-EL.EN.            DIPOLE MOMENTS         DIIS   CPU(IT)  CPU(TOT)
    1      0.000D+00      0.000D+00       -76.29637017     98.100148    0.84891   -0.69571   -0.01867    0      4.0      6.9     start
    2      0.000D+00      0.114D-01       -75.92434326     81.988195   -0.31502    0.27079    0.00705    1      2.9      9.8     diag
    3      0.151D-01      0.257D-01       -76.37984140     93.542452    0.56950   -0.46703   -0.01253    2      2.6     12.4     diag
    4      0.103D-01      0.650D-03       -76.38021755     93.158516    0.54837   -0.44945   -0.01206    3      2.8     15.2     diag
    5      0.352D-03      0.149D-03       -76.38023062     93.206898    0.54695   -0.44841   -0.01203    4      2.7     17.9     diag
    6      0.597D-04      0.347D-04       -76.38023146     93.218342    0.54874   -0.44984   -0.01207    5      2.5     20.4     diag
    7      0.144D-04      0.114D-05       -76.38023146     93.218592    0.54868   -0.44980   -0.01207    6      2.3     22.7     diag
    8      0.504D-06      0.104D-06       -76.38023146     93.218694    0.54870   -0.44981   -0.01207    0      2.1     24.8     orth

 Final occupancy:   5

 !RKS STATE  1.1 Energy               -76.380231461998
 Nuclear energy                         9.15605698
 One-electron energy                 -122.91319282
 Two-electron energy                   46.60934719
 Density functional                    -9.23244282     PBEX=-8.90788614 PBEC=-0.32455668
 Virial quotient                       -1.00551351
 !RKS STATE  1.1 Dipole moment          0.54869589    -0.44980573    -0.01206877
 Dipole moment /Debye                   1.39455449    -1.14321724    -0.03067374

 Orbital energies:

         1.1          2.1          3.1          4.1          5.1          6.1          7.1
    -18.760321    -0.931724    -0.483394    -0.343691    -0.266195    -0.034659     0.015310


 HOMO      5.1    -0.266195 =      -7.2435eV
 LUMO      6.1    -0.034659 =      -0.9431eV
 LUMO-HOMO         0.231536 =       6.3004eV


 **********************************************************************************************************************************
 DATASETS  * FILE   NREC   LENGTH (MB)   RECORD NAMES
              1      19       31.30       500      610      700      900      950      970     1000      129      960     1100   
                                          VAR    BASINP    GEOM    SYMINP    ZMAT    AOBASIS   BASIS     P2S    ABASIS      S 
                                         1400     1410     1200     1210     1080     1600     1650     1700     1800   
                                           T        V       H0       H01     AOSYM     SMH    MOLCAS    OPER     GRID   

              2       7       11.25       700     1000      520     1800     2101     2201     2301   
                                         GEOM     BASIS   MCVARS    GRID      RKS      RKS      RKS  

 PROGRAMS   *        TOTAL   RKS-SCF       INT   RKS-SCF       INT   RKS-SCF       INT
 CPU TIMES  *        76.44     24.87      0.04     24.85      0.05     26.12      0.31
 REAL TIME  *        80.69 SEC
 DISK USED  *        44.66 MB (local),      178.63 MB (total)
 SF USED    *         0.41 MB
 GA USED    *         1.99 MB       (max)       1.99 MB       (current)
 **********************************************************************************************************************************
 SETTING EB_PBE         =       -76.38023146  AU                              
 SETTING E_AB_INT       =        -0.00499156  AU                              

 *** results in hartree
 E_AB_INT         =        -0.00499156 AU
 Molecular orbitals read from record     2301.2  Type=RKS/CANONICAL (state 1.1)
 Occupation numbers read from record     2301.2  Type=RKS/RHF (state 1.1)
 Orbital energies read from record       2301.2  Type=RKS/CANONICAL (state 1.1)
 Redundancy group numbers read from rec  2301.2  Type=RKS/RHF (state 1.1)

 RPBE/aug-cc-pVTZ energy=    -76.380231461998

         RKS-SCF         RKS-SCF         RKS-SCF
    -76.38023146    -76.38023087   -152.76545389
 **********************************************************************************************************************************
 Molpro calculation terminated
