
 Primary working directories    : /scratch/sirous/460895/molpro.LwSkvQPa8p
 Secondary working directories  : /scratch/sirous/460895/molpro.LwSkvQPa8p
 Wavefunction directory         : /scratch/sirous/460895/
 Main file repository           : /scratch/sirous/460895/molpro.LwSkvQPa8p/

 id        : karlovklimes

 Nodes                      nprocs
 nc-05.cc.karlov.mff.cuni.cz    4

 Using customized tuning parameters: mindgm=1; mindgv=20; mindgc=4; mindgr=1; noblas=0; minvec=7
 default implementation of scratch files=sf  


 Variables initialized (934), CPU time= 0.00 sec
 ***,CH3C6H4CN+CF3CN+BF3
 memory,500,m
 gdirect
 gthresh,energy=1.d-8,twoint=1.d-19,oneint=1.d-19,zero=1.d-15,orbital=1.d-8,grid=1.d-8
 symmetry,nosym
 geomtyp=xyz
                                                                                 ! Geometry
 geometry={
 H1        0.0176077530000000    0.6404641599999999     -0.7613515990000000
 H2        -0.0133778400000000    0.6316333020000000     0.7545505100000000
 H3        0.0240861940000000    2.7269150510000002     0.0012916600000000
 H4        0.9847960170000000    3.8998273129999999     -0.0163366190000000
 O1        0.0000000000000000    1.2272060000000000     0.0000000000000000
 O2        0.0472419370000000    3.6880053419999999     0.0025334240000000
 }
 
 
 
 basis=avtz
 
 
 
                                                                                 ! Dimer Calculation
 {rks,pbe,accu=1.d-8;orbital,2101.2}
 eab_PBE=energy
 
 
                                                                                 !monomer A
 dummy,3,4,6;                                                                    ! NOW MONOMER B IS DUMMY
 {rks,pbe,accu=1.d-8;orbital,2201.2}
 ea_PBE=energy
                                                                                 !monomer B
 dummy,1,2,5;                                                                    !NOW MONOMER A IS DUMMY
 {rks,pbe,accu=1.d-8;orbital,2301.2}
 eb_PBE=energy
 
 E_AB_int=eab_PBE-ea_PBE-eb_PBE
 
 
 text,results in hartree
 show,E_AB_int
 
 Commands  initialized (763), CPU time= 0.01 sec, 617 directives.
 Default parameters read. Elapsed time= 0.22 sec

 Checking input...
 Passed
1


                                         ***  PROGRAM SYSTEM MOLPRO  ***
                                       Copyright, TTI GmbH Stuttgart, 2015
                                    Version 2019.2 linked Jun  8 2019 11:26:33


 **********************************************************************************************************************************
 LABEL *   CH3C6H4CN+CF3CN+BF3                                                           
  64 bit mpp version                                                                     DATE: 27-Mar-20          TIME: 14:29:35  
 **********************************************************************************************************************************

 SHA1:             8135a10abc80eafa5b3ae28ffc55be4890dc4c84
 **********************************************************************************************************************************

 THRESHOLDS:

 ZERO    =  1.00D-15  ONEINT  =  1.00D-19  TWOINT  =  1.00D-19  PREFAC  =  1.00D-14  XXXXXX  =  1.00D-09  EORDER  =  1.00D-04
 ENERGY  =  1.00D-08  ETEST   =  0.00D+00  EDENS   =  0.00D+00  THRDEDEF=  1.00D-06  GRADIENT=  1.00D-02  STEP    =  1.00D-03
 ORBITAL =  1.00D-08  CIVEC   =  1.00D-05  COEFF   =  1.00D-04  PRINTCI =  5.00D-02  PUNCHCI =  9.90D+01  OPTGRAD =  3.00D-04
 OPTENERG=  1.00D-06  OPTSTEP =  3.00D-04  THRGRAD =  1.00D-10  COMPRESS=  1.00D-11  VARMIN  =  1.00D-07  VARMAX  =  1.00D-03
 THRDOUB =  0.00D+00  THRDIV  =  1.00D-05  THRRED  =  1.00D-07  THRPSP  =  1.00D+00  THRDC   =  1.00D-10  THRCS   =  1.00D-10
 THRNRM  =  1.00D-08  THREQ   =  0.00D+00  THRDE   =  1.00D+00  THRREF  =  1.00D-05  SPARFAC =  1.00D+00  THRDLP  =  1.00D-07
 THRDIA  =  1.00D-10  THRDLS  =  1.00D-07  THRGPS  =  0.00D+00  THRKEX  =  0.00D+00  THRDIS  =  2.00D-01  THRVAR  =  1.00D-10
 THRLOC  =  1.00D-06  THRGAP  =  1.00D-06  THRLOCT = -1.00D+00  THRGAPT = -1.00D+00  THRORB  =  1.00D-06  THRMLTP =  0.00D+00
 THRCPQCI=  1.00D-10  KEXTA   =  0.00D+00  THRCOARS=  0.00D+00  SYMTOL  =  1.00D-06  GRADTOL =  1.00D-06  THROVL  =  1.00D-08
 THRORTH =  1.00D-08  GRID    =  1.00D-08  GRIDMAX =  1.00D-03  DTMAX   =  0.00D+00  THROCCDE=  1.00D-01  THROCCDE=  1.00D-01
 THRPRINT=  2.50D-01


 Variable memory set to  500000000 words,  buffer space 

 SETTING GEOMTYP        =    XYZ
 ZSYMEL=NOSYM

 SETTING BASIS          =    AVTZ


 Recomputing integrals since basis changed


 Using spherical harmonics

 Library entry H      S aug-cc-pVTZ          selected for orbital group  1
 Library entry H      P aug-cc-pVTZ          selected for orbital group  1
 Library entry H      D aug-cc-pVTZ          selected for orbital group  1
 Library entry O      S aug-cc-pVTZ          selected for orbital group  2
 Library entry O      P aug-cc-pVTZ          selected for orbital group  2
 Library entry O      D aug-cc-pVTZ          selected for orbital group  2
 Library entry O      F aug-cc-pVTZ          selected for orbital group  2


 PROGRAM * SEWARD (Integral evaluation for generally contracted gaussian basis sets)     Author: Roland Lindh, 1990

 Geometry written to block  1 of record 700


 Point group  C1  



 ATOMIC COORDINATES

 NR  ATOM    CHARGE       X              Y              Z

   1  H1      1.00    0.033273831    1.210301855   -1.438746007
   2  H2      1.00   -0.025280454    1.193613952    1.425893811
   3  H3      1.00    0.045516310    5.153122611    0.002440884
   4  H4      1.00    1.860994761    7.369605555   -0.030871736
   5  O1      8.00    0.000000000    2.319083238    0.000000000
   6  O2      8.00    0.089274323    6.969320042    0.004787478

 Bond lengths in Bohr (Angstrom)

 1-5  1.816726005  2-5  1.816726005  3-6  1.816726005  4-6  1.816726006
     ( 0.961370000)     ( 0.961370000)     ( 0.961370001)     ( 0.961370001)

 Bond angles

  1-5-2  104.10700004   3-6-4  104.10699993

 NUCLEAR CHARGE:                   20
 NUMBER OF PRIMITIVE AOS:         242
 NUMBER OF SYMMETRY AOS:          216
 NUMBER OF CONTRACTIONS:          184   (  184A   )
 NUMBER OF CORE ORBITALS:           2   (    2A   )
 NUMBER OF VALENCE ORBITALS:       12   (   12A   )


 NUCLEAR REPULSION ENERGY   39.85212234


 Eigenvalues of metric

         1 0.165E-03 0.226E-03 0.278E-03 0.352E-03 0.425E-03 0.646E-03 0.123E-02 0.125E-02


 OPERATOR DM      FOR CENTER  0  COORDINATES:    0.000000    0.000000    0.000000


 **********************************************************************************************************************************
 DATASETS  * FILE   NREC   LENGTH (MB)   RECORD NAMES
              1      18       31.30       500      610      700      900      950      970     1000      129      960     1100   
                                          VAR    BASINP    GEOM    SYMINP    ZMAT    AOBASIS   BASIS     P2S    ABASIS      S 
                                         1400     1410     1200     1210     1080     1600     1650     1700   
                                           T        V       H0       H01     AOSYM     SMH    MOLCAS    OPER   

 PROGRAMS   *        TOTAL       INT
 CPU TIMES  *         0.48      0.31
 REAL TIME  *         1.69 SEC
 DISK USED  *        31.70 MB (local),      126.81 MB (total)
 GA USED    *         0.00 MB       (max)       0.00 MB       (current)
 **********************************************************************************************************************************

 Density functional group PBE=PBEX+PBEC
 Functional: PBEX(Automatically generated (new) PBEX)                          Gradient terms: 1
 Functional: PBEC(Automatically generated (new) PBEC)                          Gradient terms: 1
 Use libxcgrid:  F
 Use grid at  1800.2

 Functional: PBEX                      Factor:  1.0000
 Functional: PBEC                      Factor:  1.0000

 Generated new metagrid on record  1800.2 with target accuracy 1.0D-08 and 61036 points in CPU time    0.2
 Computed new grid on record 1800.1 in CPU time    0.2
  150340 words reserved for DFT integration

 PROGRAM * RKS-SCF (Restricted closed shell Kohn-Sham)     Authors: W. Meyer, H.-J. Werner, P.J. Knowles, 1993

 NUMBER OF ELECTRONS:      10+   10-    SPACE SYMMETRY=1    SPIN SYMMETRY: Singlet 
 CONVERGENCE THRESHOLDS:    1.00E-04 (Density)    1.00E-08 (Energy)
 INTEGRAL THRESHOLDS:       1.00E-11 (Initial)    1.00E-11 (Final)
 MAX. NUMBER OF ITERATIONS:       60
 INTERPOLATION TYPE:            DIIS
 INTERPOLATION STEPS:              2 (START)      1 (STEP)
 LEVEL SHIFTS:                  0.00 (CLOSED)  0.00 (OPEN) 



 Use fine grid record 1800.2 for energy threshold  1.0D-08
 Orbital guess generated from atomic densities. Full valence occupancy:   14

 Molecular orbital dump at record        2101.2

 Initial occupancy:  10

 Direct Fock-matrix evaluation.        Authors: Roland Lindh & Martin Schuetz (1993/96)

 Integral Threshold:                  0.1D-10
 Threshold for writing integrals:     0.1D-06
 Prescreening on density matrix:        ON 
 Calculation will be performed fully direct        

 ITERATION   DDIFF            GRAD            ENERGY        2-EL.EN.            DIPOLE MOMENTS         DIIS   CPU(IT)  CPU(TOT)
    1      0.000D+00      0.000D+00      -152.59955922    239.372003    0.84632   -2.14266   -0.02512    0      5.5      9.0     start
    2      0.000D+00      0.113D-01      -151.82577358    206.116035   -0.58413    0.43448    0.03393    1      3.6     12.6     diag
    3      0.218D-01      0.259D-01      -152.75476789    230.207445    0.57670   -1.66690   -0.01767    2      3.6     16.2     diag
    4      0.155D-01      0.178D-02      -152.75495491    229.913353    0.47644   -1.63040   -0.01483    3      3.5     19.7     diag
    5      0.211D-02      0.193D-02      -152.75912347    229.497893    0.50532   -1.60265   -0.01498    4      3.5     23.2     diag
    6      0.118D-02      0.165D-03      -152.75916266    229.607183    0.50920   -1.60739   -0.01531    5      3.4     26.6     diag
    7      0.118D-03      0.428D-04      -152.75916504    229.628603    0.50972   -1.60963   -0.01530    6      3.4     30.0     diag
    8      0.253D-04      0.369D-05      -152.75916506    229.630049    0.51009   -1.60956   -0.01530    7      3.2     33.2     diag
    9      0.248D-05      0.795D-06      -152.75916506    229.630498    0.50996   -1.60964   -0.01530    0      3.1     36.3     orth

 Final occupancy:  10

 !RKS STATE  1.1 Energy              -152.759165056727
 Nuclear energy                        39.85212234
 One-electron energy                 -288.91818032
 Two-electron energy                  114.81524917
 Density functional                   -18.50835624     PBEX=-17.85110246 PBEC= -0.65725378
 Virial quotient                       -1.00464174
 !RKS STATE  1.1 Dipole moment          0.50996255    -1.60964410    -0.01530004
 Dipole moment /Debye                   1.29611061    -4.09103924    -0.03888628

 Orbital energies:

         1.1          2.1          3.1          4.1          5.1          6.1          7.1          8.1          9.1         10.1
    -18.799519   -18.703975    -0.976898    -0.881980    -0.523200    -0.472342    -0.376073    -0.310422    -0.283100    -0.222408

        11.1         12.1
     -0.051317     0.002899


 HOMO     10.1    -0.222408 =      -6.0520eV
 LUMO     11.1    -0.051317 =      -1.3964eV
 LUMO-HOMO         0.171092 =       4.6556eV


 **********************************************************************************************************************************
 DATASETS  * FILE   NREC   LENGTH (MB)   RECORD NAMES
              1      19       31.30       500      610      700      900      950      970     1000      129      960     1100   
                                          VAR    BASINP    GEOM    SYMINP    ZMAT    AOBASIS   BASIS     P2S    ABASIS      S 
                                         1400     1410     1200     1210     1080     1600     1650     1700     1800   
                                           T        V       H0       H01     AOSYM     SMH    MOLCAS    OPER     GRID   

              2       5        3.54       700     1000      520     1800     2101   
                                         GEOM     BASIS   MCVARS    GRID      RKS  

 PROGRAMS   *        TOTAL   RKS-SCF       INT
 CPU TIMES  *        37.09     36.61      0.31
 REAL TIME  *        40.02 SEC
 DISK USED  *        37.09 MB (local),      148.35 MB (total)
 SF USED    *         0.41 MB
 GA USED    *         2.02 MB       (max)       2.02 MB       (current)
 **********************************************************************************************************************************
 SETTING EAB_PBE        =      -152.75916506  AU                              

 Dummy atoms: H3  H4  O2


 Recomputing one-electron integrals since nuclear charges changed


 PROGRAM * SEWARD (Integral evaluation for generally contracted gaussian basis sets)     Author: Roland Lindh, 1990

 Geometry written to block  1 of record 700


 Point group  C1  



 ATOMIC COORDINATES

 NR  ATOM    CHARGE       X              Y              Z

   1  H1      1.00    0.033273831    1.210301855   -1.438746007
   2  H2      1.00   -0.025280454    1.193613952    1.425893811
   3  H3      0.00    0.045516310    5.153122611    0.002440884
   4  H4      0.00    1.860994761    7.369605555   -0.030871736
   5  O1      8.00    0.000000000    2.319083238    0.000000000
   6  O2      0.00    0.089274323    6.969320042    0.004787478

 Bond lengths in Bohr (Angstrom)

 1-5  1.816726005  2-5  1.816726005  3-6  1.816726005  4-6  1.816726006
     ( 0.961370000)     ( 0.961370000)     ( 0.961370001)     ( 0.961370001)

 Bond angles

  1-5-2  104.10700004   3-6-4  104.10699993

 NUCLEAR CHARGE:                   10
 NUMBER OF PRIMITIVE AOS:         242
 NUMBER OF SYMMETRY AOS:          216
 NUMBER OF CONTRACTIONS:          184   (  184A   )
 NUMBER OF CORE ORBITALS:           1   (    1A   )
 NUMBER OF VALENCE ORBITALS:        6   (    6A   )

 MOLECULE CHANGED: INITIALIZING OCCUPATION AND DUMP RECORDS


 NUCLEAR REPULSION ENERGY    9.15605699


 Eigenvalues of metric

         1 0.165E-03 0.226E-03 0.278E-03 0.352E-03 0.425E-03 0.646E-03 0.123E-02 0.125E-02


 OPERATOR DM      FOR CENTER  0  COORDINATES:    0.000000    0.000000    0.000000


 **********************************************************************************************************************************
 DATASETS  * FILE   NREC   LENGTH (MB)   RECORD NAMES
              1      19       31.30       500      610      700      900      950      970     1000      129      960     1100   
                                          VAR    BASINP    GEOM    SYMINP    ZMAT    AOBASIS   BASIS     P2S    ABASIS      S 
                                         1400     1410     1200     1210     1080     1600     1650     1700     1800   
                                           T        V       H0       H01     AOSYM     SMH    MOLCAS    OPER     GRID   

              2       5        3.54       700     1000      520     1800     2101   
                                         GEOM     BASIS   MCVARS    GRID      RKS  

 PROGRAMS   *        TOTAL       INT   RKS-SCF       INT
 CPU TIMES  *        37.13      0.03     36.61      0.31
 REAL TIME  *        40.13 SEC
 DISK USED  *        37.09 MB (local),      148.35 MB (total)
 SF USED    *         0.41 MB
 GA USED    *         2.02 MB       (max)       2.02 MB       (current)
 **********************************************************************************************************************************

 Density functional group PBE=PBEX+PBEC
 Functional: PBEX(Automatically generated (new) PBEX)                          Gradient terms: 1
 Functional: PBEC(Automatically generated (new) PBEC)                          Gradient terms: 1
 Use libxcgrid:  F
 Use grid at  1800.2

 Functional: PBEX                      Factor:  1.0000
 Functional: PBEC                      Factor:  1.0000

 Generated new metagrid on record  1800.2 with target accuracy 1.0D-08 and 61036 points in CPU time    0.2
 Computed new grid on record 1800.1 in CPU time    0.2
  150340 words reserved for DFT integration

 PROGRAM * RKS-SCF (Restricted closed shell Kohn-Sham)     Authors: W. Meyer, H.-J. Werner, P.J. Knowles, 1993

 NUMBER OF ELECTRONS:       5+    5-    SPACE SYMMETRY=1    SPIN SYMMETRY: Singlet 
 CONVERGENCE THRESHOLDS:    1.00E-04 (Density)    1.00E-08 (Energy)
 INTEGRAL THRESHOLDS:       1.00E-11 (Initial)    1.00E-11 (Final)
 MAX. NUMBER OF ITERATIONS:       60
 INTERPOLATION TYPE:            DIIS
 INTERPOLATION STEPS:              2 (START)      1 (STEP)
 LEVEL SHIFTS:                  0.00 (CLOSED)  0.00 (OPEN) 



 Use fine grid record 1800.2 for energy threshold  1.0D-08
 Orbital guess generated from atomic densities. Full valence occupancy:    7

 Molecular orbital dump at record        2201.2

 Initial occupancy:   5

 Direct Fock-matrix evaluation.        Authors: Roland Lindh & Martin Schuetz (1993/96)

 Integral Threshold:                  0.1D-10
 Threshold for writing integrals:     0.1D-06
 Prescreening on density matrix:        ON 
 Calculation will be performed fully direct        

 ITERATION   DDIFF            GRAD            ENERGY        2-EL.EN.            DIPOLE MOMENTS         DIIS   CPU(IT)  CPU(TOT)
    1      0.000D+00      0.000D+00       -76.29637451     98.102919    0.00378   -1.09675   -0.00630    0      5.1      9.2     start
    2      0.000D+00      0.114D-01       -75.92317398     81.970126   -0.00207    0.41787    0.00254    1      3.1     12.4     diag
    3      0.154D-01      0.257D-01       -76.37988718     93.543875    0.00255   -0.73592   -0.00423    2      3.1     15.5     diag
    4      0.107D-01      0.651D-03       -76.38026505     93.158773    0.00244   -0.70816   -0.00406    3      3.2     18.7     diag
    5      0.359D-03      0.149D-03       -76.38027826     93.207625    0.00243   -0.70644   -0.00405    4      3.1     21.9     diag
    6      0.588D-04      0.348D-04       -76.38027910     93.219027    0.00244   -0.70873   -0.00407    5      3.0     24.9     diag
    7      0.144D-04      0.116D-05       -76.38027910     93.219293    0.00244   -0.70867   -0.00407    6      2.9     27.8     diag
    8      0.532D-06      0.976D-07       -76.38027910     93.219395    0.00244   -0.70868   -0.00407    0      2.7     30.5     orth

 Final occupancy:   5

 !RKS STATE  1.1 Energy               -76.380279103936
 Nuclear energy                         9.15605699
 One-electron energy                 -122.91348689
 Two-electron energy                   46.60969763
 Density functional                    -9.23254683     PBEX=-8.90797898 PBEC=-0.32456785
 Virial quotient                       -1.00547674
 !RKS STATE  1.1 Dipole moment          0.00243938    -0.70868352    -0.00406735
 Dipole moment /Debye                   0.00619988    -1.80117587    -0.01033750

 Orbital energies:

         1.1          2.1          3.1          4.1          5.1          6.1          7.1
    -18.760229    -0.931708    -0.483384    -0.343694    -0.266179    -0.034718     0.016887


 HOMO      5.1    -0.266179 =      -7.2431eV
 LUMO      6.1    -0.034718 =      -0.9447eV
 LUMO-HOMO         0.231461 =       6.2984eV


 **********************************************************************************************************************************
 DATASETS  * FILE   NREC   LENGTH (MB)   RECORD NAMES
              1      19       31.30       500      610      700      900      950      970     1000      129      960     1100   
                                          VAR    BASINP    GEOM    SYMINP    ZMAT    AOBASIS   BASIS     P2S    ABASIS      S 
                                         1400     1410     1200     1210     1080     1600     1650     1700     1800   
                                           T        V       H0       H01     AOSYM     SMH    MOLCAS    OPER     GRID   

              2       6        7.39       700     1000      520     1800     2101     2201   
                                         GEOM     BASIS   MCVARS    GRID      RKS      RKS  

 PROGRAMS   *        TOTAL   RKS-SCF       INT   RKS-SCF       INT
 CPU TIMES  *        67.91     30.77      0.03     36.61      0.31
 REAL TIME  *        71.49 SEC
 DISK USED  *        40.80 MB (local),      163.22 MB (total)
 SF USED    *         0.41 MB
 GA USED    *         2.02 MB       (max)       2.02 MB       (current)
 **********************************************************************************************************************************
 SETTING EA_PBE         =       -76.38027910  AU                              

 Dummy atoms: H1  H2  O1


 Recomputing one-electron integrals since nuclear charges changed


 PROGRAM * SEWARD (Integral evaluation for generally contracted gaussian basis sets)     Author: Roland Lindh, 1990

 Geometry written to block  1 of record 700


 Point group  C1  



 ATOMIC COORDINATES

 NR  ATOM    CHARGE       X              Y              Z

   1  H1      0.00    0.033273831    1.210301855   -1.438746007
   2  H2      0.00   -0.025280454    1.193613952    1.425893811
   3  H3      1.00    0.045516310    5.153122611    0.002440884
   4  H4      1.00    1.860994761    7.369605555   -0.030871736
   5  O1      0.00    0.000000000    2.319083238    0.000000000
   6  O2      8.00    0.089274323    6.969320042    0.004787478

 Bond lengths in Bohr (Angstrom)

 1-5  1.816726005  2-5  1.816726005  3-6  1.816726005  4-6  1.816726006
     ( 0.961370000)     ( 0.961370000)     ( 0.961370001)     ( 0.961370001)

 Bond angles

  1-5-2  104.10700004   3-6-4  104.10699993

 NUCLEAR CHARGE:                   10
 NUMBER OF PRIMITIVE AOS:         242
 NUMBER OF SYMMETRY AOS:          216
 NUMBER OF CONTRACTIONS:          184   (  184A   )
 NUMBER OF CORE ORBITALS:           1   (    1A   )
 NUMBER OF VALENCE ORBITALS:        6   (    6A   )

 MOLECULE CHANGED: INITIALIZING OCCUPATION AND DUMP RECORDS


 NUCLEAR REPULSION ENERGY    9.15605698


 Eigenvalues of metric

         1 0.165E-03 0.226E-03 0.278E-03 0.352E-03 0.425E-03 0.646E-03 0.123E-02 0.125E-02


 OPERATOR DM      FOR CENTER  0  COORDINATES:    0.000000    0.000000    0.000000


 **********************************************************************************************************************************
 DATASETS  * FILE   NREC   LENGTH (MB)   RECORD NAMES
              1      19       31.30       500      610      700      900      950      970     1000      129      960     1100   
                                          VAR    BASINP    GEOM    SYMINP    ZMAT    AOBASIS   BASIS     P2S    ABASIS      S 
                                         1400     1410     1200     1210     1080     1600     1650     1700     1800   
                                           T        V       H0       H01     AOSYM     SMH    MOLCAS    OPER     GRID   

              2       6        7.39       700     1000      520     1800     2101     2201   
                                         GEOM     BASIS   MCVARS    GRID      RKS      RKS  

 PROGRAMS   *        TOTAL       INT   RKS-SCF       INT   RKS-SCF       INT
 CPU TIMES  *        67.97      0.05     30.77      0.03     36.61      0.31
 REAL TIME  *        71.60 SEC
 DISK USED  *        40.80 MB (local),      163.22 MB (total)
 SF USED    *         0.41 MB
 GA USED    *         2.02 MB       (max)       2.02 MB       (current)
 **********************************************************************************************************************************

 Density functional group PBE=PBEX+PBEC
 Functional: PBEX(Automatically generated (new) PBEX)                          Gradient terms: 1
 Functional: PBEC(Automatically generated (new) PBEC)                          Gradient terms: 1
 Use libxcgrid:  F
 Use grid at  1800.2

 Functional: PBEX                      Factor:  1.0000
 Functional: PBEC                      Factor:  1.0000

  150340 words reserved for DFT integration

 PROGRAM * RKS-SCF (Restricted closed shell Kohn-Sham)     Authors: W. Meyer, H.-J. Werner, P.J. Knowles, 1993

 NUMBER OF ELECTRONS:       5+    5-    SPACE SYMMETRY=1    SPIN SYMMETRY: Singlet 
 CONVERGENCE THRESHOLDS:    1.00E-04 (Density)    1.00E-08 (Energy)
 INTEGRAL THRESHOLDS:       1.00E-11 (Initial)    1.00E-11 (Final)
 MAX. NUMBER OF ITERATIONS:       60
 INTERPOLATION TYPE:            DIIS
 INTERPOLATION STEPS:              2 (START)      1 (STEP)
 LEVEL SHIFTS:                  0.00 (CLOSED)  0.00 (OPEN) 



 Use fine grid record 1800.2 for energy threshold  1.0D-08
 Orbital guess generated from atomic densities. Full valence occupancy:    7

 Molecular orbital dump at record        2301.2

 Initial occupancy:   5

 Direct Fock-matrix evaluation.        Authors: Roland Lindh & Martin Schuetz (1993/96)

 Integral Threshold:                  0.1D-10
 Threshold for writing integrals:     0.1D-06
 Prescreening on density matrix:        ON 
 Calculation will be performed fully direct        

 ITERATION   DDIFF            GRAD            ENERGY        2-EL.EN.            DIPOLE MOMENTS         DIIS   CPU(IT)  CPU(TOT)
    1      0.000D+00      0.000D+00       -76.29641132     98.102366    0.84877   -0.69576   -0.01867    0      4.9      8.9     start
    2      0.000D+00      0.114D-01       -75.92292841     81.965092   -0.32103    0.27947    0.00716    1      2.9     11.9     diag
    3      0.151D-01      0.257D-01       -76.37990262     93.544915    0.56947   -0.46733   -0.01253    2      2.9     14.8     diag
    4      0.104D-01      0.653D-03       -76.38028202     93.159206    0.54821   -0.44947   -0.01206    3      2.9     17.7     diag
    5      0.355D-03      0.150D-03       -76.38029529     93.208181    0.54677   -0.44850   -0.01203    4      2.9     20.6     diag
    6      0.569D-04      0.348D-04       -76.38029613     93.219562    0.54859   -0.44992   -0.01207    5      2.8     23.4     diag
    7      0.142D-04      0.115D-05       -76.38029614     93.219799    0.54852   -0.44989   -0.01207    6      2.7     26.1     diag
    8      0.567D-06      0.115D-06       -76.38029614     93.219900    0.54854   -0.44989   -0.01207    0      2.5     28.6     orth

 Final occupancy:   5

 !RKS STATE  1.1 Energy               -76.380296135505
 Nuclear energy                         9.15605698
 One-electron energy                 -122.91371079
 Two-electron energy                   46.60995004
 Density functional                    -9.23259236     PBEX=-8.90802361 PBEC=-0.32456875
 Virial quotient                       -1.00547729
 !RKS STATE  1.1 Dipole moment          0.54854221    -0.44989455    -0.01207110
 Dipole moment /Debye                   1.39416392    -1.14344298    -0.03067966

 Orbital energies:

         1.1          2.1          3.1          4.1          5.1          6.1          7.1
    -18.760204    -0.931680    -0.483360    -0.343664    -0.266175    -0.034682     0.015850


 HOMO      5.1    -0.266175 =      -7.2430eV
 LUMO      6.1    -0.034682 =      -0.9438eV
 LUMO-HOMO         0.231492 =       6.2992eV


 **********************************************************************************************************************************
 DATASETS  * FILE   NREC   LENGTH (MB)   RECORD NAMES
              1      19       31.30       500      610      700      900      950      970     1000      129      960     1100   
                                          VAR    BASINP    GEOM    SYMINP    ZMAT    AOBASIS   BASIS     P2S    ABASIS      S 
                                         1400     1410     1200     1210     1080     1600     1650     1700     1800   
                                           T        V       H0       H01     AOSYM     SMH    MOLCAS    OPER     GRID   

              2       7       11.25       700     1000      520     1800     2101     2201     2301   
                                         GEOM     BASIS   MCVARS    GRID      RKS      RKS      RKS  

 PROGRAMS   *        TOTAL   RKS-SCF       INT   RKS-SCF       INT   RKS-SCF       INT
 CPU TIMES  *        96.60     28.62      0.05     30.77      0.03     36.61      0.31
 REAL TIME  *       100.66 SEC
 DISK USED  *        44.66 MB (local),      178.63 MB (total)
 SF USED    *         0.41 MB
 GA USED    *         2.02 MB       (max)       2.02 MB       (current)
 **********************************************************************************************************************************
 SETTING EB_PBE         =       -76.38029614  AU                              
 SETTING E_AB_INT       =         0.00141018  AU                              

 *** results in hartree
 E_AB_INT         =         0.00141018 AU
 Molecular orbitals read from record     2301.2  Type=RKS/CANONICAL (state 1.1)
 Occupation numbers read from record     2301.2  Type=RKS/RHF (state 1.1)
 Orbital energies read from record       2301.2  Type=RKS/CANONICAL (state 1.1)
 Redundancy group numbers read from rec  2301.2  Type=RKS/RHF (state 1.1)

 RPBE/aug-cc-pVTZ energy=    -76.380296135505

         RKS-SCF         RKS-SCF         RKS-SCF
    -76.38029614    -76.38027910   -152.75916506
 **********************************************************************************************************************************
 Molpro calculation terminated
