 vasp.6.1.2 22Jul20 (build Jan  6 2021 09:55:43) gamma-only                      
 executed on             LinuxPGI date 2023.10.20  10:36:54
 running on   32 total cores
 distrk:  each k-point on   32 cores,    1 groups
 distr:  one band on NCORE=   1 cores,   32 groups


--------------------------------------------------------------------------------------------------------


 INCAR:
 POTCAR:    PAW_PBE O_h 06Feb2004                 
 POTCAR:    PAW_PBE H_h 06Feb2004                 
 -----------------------------------------------------------------------------
|                                                                             |
|           W    W    AA    RRRRR   N    N  II  N    N   GGGG   !!!           |
|           W    W   A  A   R    R  NN   N  II  NN   N  G    G  !!!           |
|           W    W  A    A  R    R  N N  N  II  N N  N  G       !!!           |
|           W WW W  AAAAAA  RRRRR   N  N N  II  N  N N  G  GGG   !            |
|           WW  WW  A    A  R   R   N   NN  II  N   NN  G    G                |
|           W    W  A    A  R    R  N    N  II  N    N   GGGG   !!!           |
|                                                                             |
|     For optimal performance we recommend to set                             |
|       NCORE = 4 - approx SQRT(number of cores).                             |
|     NCORE specifies how many cores store one orbital (NPAR=cpu/NCORE).      |
|     This setting can greatly improve the performance of VASP for DFT.       |
|     The default, NCORE=1 might be grossly inefficient on modern             |
|     multi-core architectures or massively parallel machines. Do your        |
|     own testing!!!!                                                         |
|     Unfortunately you need to use the default for GW and RPA                |
|     calculations (for HF NCORE is supported but not extensively tested      |
|     yet).                                                                   |
|                                                                             |
 -----------------------------------------------------------------------------

 POTCAR:    PAW_PBE O_h 06Feb2004                 
   VRHFIN =O: s2p4                                                                                  
   LEXCH  = PE                                                                                      
   EATOM  =   432.3788 eV,   31.7789 Ry                                                             
                                                                                                    
   TITEL  = PAW_PBE O_h 06Feb2004                                                                   
   LULTRA =        F    use ultrasoft PP ?                                                          
   IUNSCR =        1    unscreen: 0-lin 1-nonlin 2-no                                               
   RPACOR =    0.800    partial core radius                                                         
   POMASS =   16.000; ZVAL   =    6.000    mass and valenz                                          
   RCORE  =    1.100    outmost cutoff radius                                                       
   RWIGS  =    1.400; RWIGS  =    0.741    wigner-seitz radius (au A)                               
   ENMAX  =  700.000; ENMIN  =  500.000 eV                                                          
   ICORE  =        2    local potential                                                             
   LCOR   =        T    correct aug charges                                                         
   LPAW   =        T    paw PP                                                                      
   EAUG   =  888.804                                                                                
   DEXC   =    0.000                                                                                
   RMAX   =    1.128    core radius for proj-oper                                                   
   RAUG   =    1.300    factor for augmentation sphere                                              
   RDEP   =    1.125    radius for radial grids                                                     
   RDEPT  =    1.088    core radius for aug-charge                                                  
                                                                                                    
   Atomic configuration                                                                             
    4 entries                                                                                       
     n  l   j            E        occ.                                                              
     1  0  0.50      -514.6923   2.0000                                                             
     2  0  0.50       -23.9615   2.0000                                                             
     2  1  0.50        -9.0305   4.0000                                                             
     3  2  1.50        -9.5241   0.0000                                                             
   Description                                                                                      
     l       E           TYP  RCUT    TYP  RCUT                                                     
     0    -23.9615319     23  1.100                                                                 
     0    -25.3221145     23  1.100                                                                 
     1     -9.0304911     23  1.100                                                                 
     1     -5.4802209     23  1.100                                                                 
     2     -9.5240782      7  1.100                                                                 
  local pseudopotential read in
  partial core-charges read in
  partial kinetic energy density read in
  atomic valenz-charges read in
  non local Contribution for L=            0  read in
    real space projection operators read in
  non local Contribution for L=            0  read in
    real space projection operators read in
  non local Contribution for L=            1  read in
    real space projection operators read in
  non local Contribution for L=            1  read in
    real space projection operators read in
    PAW grid and wavefunctions read in
 
   number of l-projection  operators is LMAX  =            4
   number of lm-projection operators is LMMAX =            8
 
 POTCAR:    PAW_PBE H_h 06Feb2004                 
   VRHFIN =H: ultrasoft test                                                                        
   LEXCH  = PE                                                                                      
   EATOM  =    12.4884 eV,    0.9179 Ry                                                             
                                                                                                    
   TITEL  = PAW_PBE H_h 06Feb2004                                                                   
   LULTRA =        F    use ultrasoft PP ?                                                          
   IUNSCR =        0    unscreen: 0-lin 1-nonlin 2-no                                               
   RPACOR =    0.000    partial core radius                                                         
   POMASS =    1.000; ZVAL   =    1.000    mass and valenz                                          
   RCORE  =    0.800    outmost cutoff radius                                                       
   RWIGS  =    0.700; RWIGS  =    0.370    wigner-seitz radius (au A)                               
   ENMAX  =  700.000; ENMIN  =  350.000 eV                                                          
   RCLOC  =    0.701    cutoff for local pot                                                        
   LCOR   =        T    correct aug charges                                                         
   LPAW   =        T    paw PP                                                                      
   EAUG   = 1000.000                                                                                
   RMAX   =    0.819    core radius for proj-oper                                                   
   RAUG   =    1.000    factor for augmentation sphere                                              
   RDEP   =    0.817    radius for radial grids                                                     
   RDEPT  =    0.817    core radius for aug-charge                                                  
                                                                                                    
   Atomic configuration                                                                             
    2 entries                                                                                       
     n  l   j            E        occ.                                                              
     1  0  0.50        -6.4927   1.0000                                                             
     2  1  0.50        -3.4015   0.0000                                                             
   Description                                                                                      
     l       E           TYP  RCUT    TYP  RCUT                                                     
     0     -6.4927493     23  0.800                                                                 
     0      6.8029130     23  0.800                                                                 
     1     -6.8029130     23  0.800                                                                 
  local pseudopotential read in
  atomic valenz-charges read in
  non local Contribution for L=            0  read in
    real space projection operators read in
  non local Contribution for L=            0  read in
    real space projection operators read in
  non local Contribution for L=            1  read in
    real space projection operators read in
    PAW grid and wavefunctions read in
 
   number of l-projection  operators is LMAX  =            3
   number of lm-projection operators is LMMAX =            5
 
  PAW_PBE O_h 06Feb2004                 :
 energy of atom  1       EATOM= -432.3788
 kinetic energy error for atom=    0.0171 (will be added to EATOM!!)
  PAW_PBE H_h 06Feb2004                 :
 energy of atom  2       EATOM=  -12.4884
 kinetic energy error for atom=    0.0006 (will be added to EATOM!!)
 
 
 POSCAR:  O  H
  positions in cartesian coordinates
  No initial velocities read in
 exchange correlation table for  LEXCH =        8
   RHO(1)=    0.500       N(1)  =     2000
   RHO(2)=  100.500       N(2)  =     4000
 


--------------------------------------------------------------------------------------------------------


 ion  position               nearest neighbor table
   1  0.000  0.078  0.000-   3 0.96   2 0.96
   2  0.001  0.094  0.978-   1 0.96
   3  0.000  0.096  0.021-   1 0.96
 
  LATTYP: Found a simple cubic cell.
 ALAT       =    35.0000000000
  
  Lattice vectors:
  
 A1 = (  35.0000000000,   0.0000000000,   0.0000000000)
 A2 = (   0.0000000000,  35.0000000000,   0.0000000000)
 A3 = (   0.0000000000,   0.0000000000,  35.0000000000)


Analysis of symmetry for initial positions (statically):
=====================================================================
 Subroutine PRICEL returns:
 Original cell was already a primitive cell.
 

 Routine SETGRP: Setting up the symmetry group for a 
 simple cubic supercell.


 Subroutine GETGRP returns: Found  1 space group operations
 (whereof  1 operations were pure point group operations)
 out of a pool of 48 trial point group operations.


The static configuration has the point symmetry C_1 .


Analysis of symmetry for dynamics (positions and initial velocities):
=====================================================================
 Subroutine PRICEL returns:
 Original cell was already a primitive cell.
 

 Routine SETGRP: Setting up the symmetry group for a 
 simple cubic supercell.


 Subroutine GETGRP returns: Found  1 space group operations
 (whereof  1 operations were pure point group operations)
 out of a pool of 48 trial point group operations.


The dynamic configuration has the point symmetry C_1 .


 Subroutine INISYM returns: Found  1 space group operations
 (whereof  1 operations are pure point group operations),
 and found     1 'primitive' translations


----------------------------------------------------------------------------------------

                                     Primitive cell                                     

  volume of cell :   42875.0000

  direct lattice vectors                    reciprocal lattice vectors
    35.000000000  0.000000000  0.000000000     0.028571429  0.000000000  0.000000000
     0.000000000 35.000000000  0.000000000     0.000000000  0.028571429  0.000000000
     0.000000000  0.000000000 35.000000000     0.000000000  0.000000000  0.028571429

  length of vectors
    35.000000000 35.000000000 35.000000000     0.028571429  0.028571429  0.028571429

  position of ions in fractional coordinates (direct lattice)
     0.000000000  0.077920171  0.000000000
     0.000848682  0.093753642  0.977571084
     0.000390051  0.095807815  0.020841195

  ion indices of the primitive-cell ions
   primitive index   ion index
                 1           1
                 2           2
                 3           3

----------------------------------------------------------------------------------------

 
 
 KPOINTS: g                                       

Automatic generation of k-mesh.
Space group operators:
 irot       det(A)        alpha          n_x          n_y          n_z        tau_x        tau_y        tau_z
    1     1.000000     0.000000     1.000000     0.000000     0.000000     0.000000     0.000000     0.000000
 
 Subroutine IBZKPT returns following result:
 ===========================================
 
 Found      1 irreducible k-points:
 
 Following reciprocal coordinates:
            Coordinates               Weight
  0.000000  0.000000  0.000000      1.000000
 
 Following cartesian coordinates:
            Coordinates               Weight
  0.000000  0.000000  0.000000      1.000000
 


--------------------------------------------------------------------------------------------------------




 Dimension of arrays:
   k-points           NKPTS =      1   k-points in BZ     NKDIM =      1   number of bands    NBANDS=     32
   number of dos      NEDOS =    301   number of ions     NIONS =      3
   non local maximal  LDIM  =      4   non local SUM 2l+1 LMDIM =      8
   total plane-waves  NPLWV = ******
   max r-space proj   IRMAX =      1   max aug-charges    IRDMAX=   9386
   dimension x,y,z NGX =   378 NGY =  378 NGZ =  378
   dimension x,y,z NGXF=   756 NGYF=  756 NGZF=  756
   support grid    NGXF=   756 NGYF=  756 NGZF=  756
   ions per type =               1   2
   NGX,Y,Z   is equivalent  to a cutoff of  17.95, 17.95, 17.95 a.u.
   NGXF,Y,Z  is equivalent  to a cutoff of  35.91, 35.91, 35.91 a.u.

 SYSTEM =  C                                       
 POSCAR =   O  H                                   

 Startparameter for this run:
   NWRITE =      2    write-flag & timer
   PREC   = acc       normal or accurate (medium, high low for compatibility)
   ISTART =      0    job   : 0-new  1-cont  2-samecut
   ICHARG =      2    charge: 1-file 2-atom 10-const
   ISPIN  =      1    spin polarized calculation?
   LNONCOLLINEAR =      F non collinear calculations
   LSORBIT =      F    spin-orbit coupling
   INIWAV =      1    electr: 0-lowe 1-rand  2-diag
   LASPH  =      T    aspherical Exc in radial PAW
   METAGGA=      F    non-selfconsistent MetaGGA calc.

 Electronic Relaxation 1
   ENCUT  = 1000.0 eV  73.50 Ry    8.57 a.u.  90.25 90.25 90.25*2*pi/ulx,y,z
   ENINI  = 1000.0     initial cutoff
   ENAUG  = 1000.0 eV  augmentation charge cutoff
   NELM   =     60;   NELMIN=  2; NELMDL= -5     # of ELM steps 
   EDIFF  = 0.1E-06   stopping-criterion for ELM
   LREAL  =      F    real-space projection
   NLSPLINE    = F    spline interpolate recip. space projectors
   LCOMPAT=      F    compatible to vasp.4.4
   GGA_COMPAT  = T    GGA compatible to vasp.4.4-vasp.4.6
   LMAXPAW     = -100 max onsite density
   LMAXMIX     =    2 max onsite mixed and CHGCAR
   VOSKOWN=      0    Vosko Wilk Nusair interpolation
   ROPT   =    0.00000   0.00000
 Ionic relaxation
   EDIFFG = 0.1E-05   stopping-criterion for IOM
   NSW    =      0    number of steps for IOM
   NBLOCK =      1;   KBLOCK =      1    inner block; outer block 
   IBRION =     -1    ionic relax: 0-MD 1-quasi-New 2-CG
   NFREE  =      0    steps in history (QN), initial steepest desc. (CG)
   ISIF   =      2    stress and relaxation
   IWAVPR =     10    prediction:  0-non 1-charg 2-wave 3-comb
   ISYM   =      2    0-nonsym 1-usesym 2-fastsym
   LCORR  =      T    Harris-Foulkes like correction to forces

   POTIM  = 0.5000    time-step for ionic-motion
   TEIN   =    0.0    initial temperature
   TEBEG  =    0.0;   TEEND  =   0.0 temperature during run
   SMASS  =  -3.00    Nose mass-parameter (am)
   estimated Nose-frequenzy (Omega)   =  0.10E-29 period in steps = 0.13E+47 mass=  -0.280E-25a.u.
   SCALEE = 1.0000    scale energy and forces
   NPACO  =    256;   APACO  = 16.0  distance and # of slots for P.C.
   PSTRESS=    0.0 pullay stress

  Mass of Ions in am
   POMASS =  16.00  1.00
  Ionic Valenz
   ZVAL   =   6.00  1.00
  Atomic Wigner-Seitz radii
   RWIGS  =  -1.00 -1.00
  virtual crystal weights 
   VCA    =   1.00  1.00
   NELECT =       8.0000    total number of electrons
   NUPDOWN=      -1.0000    fix difference up-down

 DOS related values:
   EMIN   =  10.00;   EMAX   =-10.00  energy-range for DOS
   EFERMI =   0.00
   ISMEAR =     0;   SIGMA  =   0.01  broadening in eV -4-tet -1-fermi 0-gaus

 Electronic relaxation 2 (details)
   IALGO  =     38    algorithm
   LDIAG  =      T    sub-space diagonalisation (order eigenvalues)
   LSUBROT=      F    optimize rotation matrix (better conditioning)
   TURBO    =      0    0=normal 1=particle mesh
   IRESTART =      0    0=no restart 2=restart with 2 vectors
   NREBOOT  =      0    no. of reboots
   NMIN     =      0    reboot dimension
   EREF     =   0.00    reference energy to select bands
   IMIX   =      4    mixing-type and parameters
     AMIX     =   0.40;   BMIX     =  1.00
     AMIX_MAG =   1.60;   BMIX_MAG =  1.00
     AMIN     =   0.10
     WC   =   100.;   INIMIX=   1;  MIXPRE=   1;  MAXMIX= -45

 Intra band minimization:
   WEIMIN = 0.0000     energy-eigenvalue tresh-hold
   EBREAK =  0.78E-09  absolut break condition
   DEPER  =   0.30     relativ break condition  

   TIME   =   0.40     timestep for ELM

  volume/ion in A,a.u.               =   14291.67     96444.93
  Fermi-wavevector in a.u.,A,eV,Ry     =   0.093548  0.176781  0.119069  0.008751
  Thomas-Fermi vector in A             =   0.652187
 
 Write flags
   LWAVE        =      T    write WAVECAR
   LDOWNSAMPLE  =      F    k-point downsampling of WAVECAR
   LCHARG       =      T    write CHGCAR
   LVTOT        =      F    write LOCPOT, total local potential
   LVHAR        =      F    write LOCPOT, Hartree potential only
   LELF         =      F    write electronic localiz. function (ELF)
   LORBIT       =      0    0 simple, 1 ext, 2 COOP (PROOUT), +10 PAW based schemes


 Dipole corrections
   LMONO  =      F    monopole corrections only (constant potential shift)
   LDIPOL =      F    correct potential (dipole corrections)
   IDIPOL =      4    1-x, 2-y, 3-z, 4-all directions 
   EPSILON=  1.0000000 bulk dielectric constant

 Exchange correlation treatment:
   GGA     =    --    GGA type
   LEXCH   =     8    internal setting for exchange type
   VOSKOWN=      0    Vosko Wilk Nusair interpolation
   LHFCALC =     F    Hartree Fock is set to
   LHFONE  =     F    Hartree Fock one center treatment
   AEXX    =    0.0000 exact exchange contribution

 Linear response parameters
   LEPSILON=     F    determine dielectric tensor
   LRPA    =     F    only Hartree local field effects (RPA)
   LNABLA  =     F    use nabla operator in PAW spheres
   LVEL    =     F    velocity operator in full k-point grid
   LINTERFAST=   F  fast interpolation
   KINTER  =     0    interpolate to denser k-point grid
   CSHIFT  =0.1000    complex shift for real part using Kramers Kronig
   OMEGAMAX=  -1.0    maximum frequency
   DEG_THRESHOLD= 0.2000000E-02 threshold for treating states as degnerate
   RTIME   =   -0.100 relaxation time in fs
  (WPLASMAI=    0.000 imaginary part of plasma frequency in eV, 0.658/RTIME)
   DFIELD  = 0.0000000 0.0000000 0.0000000 field for delta impulse in time
 
 Orbital magnetization related:
   ORBITALMAG=     F  switch on orbital magnetization
   LCHIMAG   =     F  perturbation theory with respect to B field
   DQ        =  0.001000  dq finite difference perturbation B field
   LLRAUG    =     F  two centre corrections for induced B field



--------------------------------------------------------------------------------------------------------


 Static calculation
 charge density and potential will be updated during run
 non-spin polarized calculation
 Variant of blocked Davidson
 Davidson routine will perform the subspace rotation
 perform sub-space diagonalisation
    after iterative eigenvector-optimisation
 modified Broyden-mixing scheme, WC =      100.0
 initial mixing is a Kerker type mixing with AMIX =  0.4000 and BMIX =      1.0000
 Hartree-type preconditioning will be used
 using additional bands            28
 reciprocal scheme for non local part
 use partial core corrections
 calculate Harris-corrections to forces 
   (improved forces if not selfconsistent)
 use gradient corrections 
 use of overlap-Matrix (Vanderbilt PP)
 Gauss-broadening in eV      SIGMA  =   0.01


--------------------------------------------------------------------------------------------------------


  energy-cutoff  :     1000.00
  volume of cell :    42875.00
      direct lattice vectors                 reciprocal lattice vectors
    35.000000000  0.000000000  0.000000000     0.028571429  0.000000000  0.000000000
     0.000000000 35.000000000  0.000000000     0.000000000  0.028571429  0.000000000
     0.000000000  0.000000000 35.000000000     0.000000000  0.000000000  0.028571429

  length of vectors
    35.000000000 35.000000000 35.000000000     0.028571429  0.028571429  0.028571429


 
 k-points in units of 2pi/SCALE and weight: g                                       
   0.00000000  0.00000000  0.00000000       1.000
 
 k-points in reciprocal lattice and weights: g                                       
   0.00000000  0.00000000  0.00000000       1.000
 
 position of ions in fractional coordinates (direct lattice) 
   0.00000000  0.07792017  0.00000000
   0.00084868  0.09375364  0.97757108
   0.00039005  0.09580781  0.02084119
 
 position of ions in cartesian coordinates  (Angst):
   0.00000000  2.72720600  0.00000000
   0.02970387  3.28137746 34.21498793
   0.01365177  3.35327352  0.72944182
 


--------------------------------------------------------------------------------------------------------


 use serial FFT for orbitals x direction half grid
 k-point   1 :   0.0000 0.0000 0.0000  plane waves: 1539209

 maximum and minimum number of plane-waves per node :   1539209  1539209

 maximum number of plane-waves:   1539209
 maximum index in each direction: 
   IXMAX=   90   IYMAX=   90   IZMAX=   90
   IXMIN=    0   IYMIN=  -90   IZMIN=  -90


 serial   3D FFT for wavefunctions
 parallel 3D FFT for charge:
    minimum data exchange during FFTs selected (reduces bandwidth)


 total amount of memory used by VASP MPI-rank0  3934008. kBytes
=======================================================================

   base      :      30000. kBytes
   nonl-proj :     270904. kBytes
   fftplans  :     676185. kBytes
   grid      :    2932288. kBytes
   one-center:          4. kBytes
   wavefun   :      24627. kBytes
 
     INWAV:  cpu time    0.0000: real time    0.0000
 Broyden mixing: mesh for mixing (old mesh)
   NGX =181   NGY =181   NGZ =181
  (NGX  =756   NGY  =756   NGZ  =756)
  gives a total of ****** points

 initial charge density was supplied:
 charge density of overlapping atoms calculated
 number of electron       8.0000000 magnetization 
 keeping initial charge density in first step


--------------------------------------------------------------------------------------------------------


 Maximum index for augmentation-charges           513 (set IRDMAX)


--------------------------------------------------------------------------------------------------------


 First call to EWALD:  gamma=   0.051
 Maximum number of real-space cells 3x 3x 3
 Maximum number of reciprocal cells 3x 3x 3

    FEWALD:  cpu time    0.0009: real time    0.0009


--------------------------------------- Iteration      1(   1)  ---------------------------------------


    POTLOK:  cpu time   12.8044: real time   12.8272
    SETDIJ:  cpu time    0.0395: real time    0.0401
     EDDAV:  cpu time   14.0914: real time   14.1298
       DOS:  cpu time    0.0098: real time    0.0098
    --------------------------------------------
      LOOP:  cpu time   26.9451: real time   27.0068

 eigenvalue-minimisations  :    96
 total energy-change (2. order) : 0.7752576E+02  (-0.1108095E+03)
 number of electron       8.0000000 magnetization 
 augmentation part        8.0000000 magnetization 

 Free energy of the ion-electron system (eV)
  ---------------------------------------------------
  alpha Z        PSCENC =         0.00380616
  Ewald energy   TEWEN  =       151.89276684
  -Hartree energ DENC   =      -508.44242148
  -exchange      EXHF   =         0.00000000
  -V(xc)+E(xc)   XCENC  =        30.52746196
  PAW double counting   =       348.70817470     -349.92881487
  entropy T*S    EENTRO =        -0.00002598
  eigenvalues    EBANDS =       -52.57244936
  atomic energy  EATOM  =       457.33726018
  Solvation  Ediel_sol  =         0.00000000
  ---------------------------------------------------
  free energy    TOTEN  =        77.52575814 eV

  energy without entropy =       77.52578413  energy(sigma->0) =       77.52577113


--------------------------------------------------------------------------------------------------------




--------------------------------------- Iteration      1(   2)  ---------------------------------------


     EDDAV:  cpu time   17.4720: real time   17.5115
       DOS:  cpu time    0.0193: real time    0.0193
    --------------------------------------------
      LOOP:  cpu time   17.4912: real time   17.5307

 eigenvalue-minimisations  :   128
 total energy-change (2. order) :-0.5551154E+02  (-0.5551075E+02)
 number of electron       8.0000000 magnetization 
 augmentation part        8.0000000 magnetization 

 Free energy of the ion-electron system (eV)
  ---------------------------------------------------
  alpha Z        PSCENC =         0.00380616
  Ewald energy   TEWEN  =       151.89276684
  -Hartree energ DENC   =      -508.44242148
  -exchange      EXHF   =         0.00000000
  -V(xc)+E(xc)   XCENC  =        30.52746196
  PAW double counting   =       348.70817470     -349.92881487
  entropy T*S    EENTRO =        -0.00000000
  eigenvalues    EBANDS =      -108.08401183
  atomic energy  EATOM  =       457.33726018
  Solvation  Ediel_sol  =         0.00000000
  ---------------------------------------------------
  free energy    TOTEN  =        22.01422166 eV

  energy without entropy =       22.01422166  energy(sigma->0) =       22.01422166


--------------------------------------------------------------------------------------------------------




--------------------------------------- Iteration      1(   3)  ---------------------------------------


     EDDAV:  cpu time   14.1507: real time   14.1793
       DOS:  cpu time    0.0207: real time    0.0207
    --------------------------------------------
      LOOP:  cpu time   14.1714: real time   14.2000

 eigenvalue-minimisations  :    96
 total energy-change (2. order) :-0.3578496E+02  (-0.3578496E+02)
 number of electron       8.0000000 magnetization 
 augmentation part        8.0000000 magnetization 

 Free energy of the ion-electron system (eV)
  ---------------------------------------------------
  alpha Z        PSCENC =         0.00380616
  Ewald energy   TEWEN  =       151.89276684
  -Hartree energ DENC   =      -508.44242148
  -exchange      EXHF   =         0.00000000
  -V(xc)+E(xc)   XCENC  =        30.52746196
  PAW double counting   =       348.70817470     -349.92881487
  entropy T*S    EENTRO =        -0.00000000
  eigenvalues    EBANDS =      -143.86897039
  atomic energy  EATOM  =       457.33726018
  Solvation  Ediel_sol  =         0.00000000
  ---------------------------------------------------
  free energy    TOTEN  =       -13.77073690 eV

  energy without entropy =      -13.77073690  energy(sigma->0) =      -13.77073690


--------------------------------------------------------------------------------------------------------




--------------------------------------- Iteration      1(   4)  ---------------------------------------


     EDDAV:  cpu time   10.7076: real time   10.7319
       DOS:  cpu time    0.0105: real time    0.0105
    --------------------------------------------
      LOOP:  cpu time   10.7180: real time   10.7424

 eigenvalue-minimisations  :    64
 total energy-change (2. order) :-0.2540070E+01  (-0.2540070E+01)
 number of electron       8.0000000 magnetization 
 augmentation part        8.0000000 magnetization 

 Free energy of the ion-electron system (eV)
  ---------------------------------------------------
  alpha Z        PSCENC =         0.00380616
  Ewald energy   TEWEN  =       151.89276684
  -Hartree energ DENC   =      -508.44242148
  -exchange      EXHF   =         0.00000000
  -V(xc)+E(xc)   XCENC  =        30.52746196
  PAW double counting   =       348.70817470     -349.92881487
  entropy T*S    EENTRO =        -0.00000000
  eigenvalues    EBANDS =      -146.40904027
  atomic energy  EATOM  =       457.33726018
  Solvation  Ediel_sol  =         0.00000000
  ---------------------------------------------------
  free energy    TOTEN  =       -16.31080678 eV

  energy without entropy =      -16.31080678  energy(sigma->0) =      -16.31080678


--------------------------------------------------------------------------------------------------------




--------------------------------------- Iteration      1(   5)  ---------------------------------------


     EDDAV:  cpu time   17.4840: real time   17.5277
       DOS:  cpu time    0.0089: real time    0.0089
    CHARGE:  cpu time    5.1411: real time    5.1548
    MIXING:  cpu time    0.2382: real time    0.2387
    --------------------------------------------
      LOOP:  cpu time   22.8723: real time   22.9301

 eigenvalue-minimisations  :   128
 total energy-change (2. order) :-0.5166718E-01  (-0.5166717E-01)
 number of electron       8.0000000 magnetization 
 augmentation part        0.1133797 magnetization 

 Broyden mixing:
  rms(total) = 0.13944E+01    rms(broyden)= 0.13943E+01
  rms(prec ) = 0.14096E+01
  weight for this iteration     100.00

 Free energy of the ion-electron system (eV)
  ---------------------------------------------------
  alpha Z        PSCENC =         0.00380616
  Ewald energy   TEWEN  =       151.89276684
  -Hartree energ DENC   =      -508.44242148
  -exchange      EXHF   =         0.00000000
  -V(xc)+E(xc)   XCENC  =        30.52746196
  PAW double counting   =       348.70817470     -349.92881487
  entropy T*S    EENTRO =        -0.00000000
  eigenvalues    EBANDS =      -146.46070745
  atomic energy  EATOM  =       457.33726018
  Solvation  Ediel_sol  =         0.00000000
  ---------------------------------------------------
  free energy    TOTEN  =       -16.36247396 eV

  energy without entropy =      -16.36247396  energy(sigma->0) =      -16.36247396


--------------------------------------------------------------------------------------------------------




--------------------------------------- Iteration      1(   6)  ---------------------------------------


    POTLOK:  cpu time   12.6581: real time   12.6797
    SETDIJ:  cpu time    0.0388: real time    0.0389
     EDDAV:  cpu time   10.7099: real time   10.7428
       DOS:  cpu time    0.0102: real time    0.0102
    CHARGE:  cpu time    5.0791: real time    5.0884
    MIXING:  cpu time    0.2563: real time    0.2593
    --------------------------------------------
      LOOP:  cpu time   28.7525: real time   28.8193

 eigenvalue-minimisations  :    64
 total energy-change (2. order) : 0.1905272E+01  (-0.9556551E+00)
 number of electron       8.0000000 magnetization 
 augmentation part        0.0656770 magnetization 

 Broyden mixing:
  rms(total) = 0.15200E+01    rms(broyden)= 0.15200E+01
  rms(prec ) = 0.15212E+01
  weight for this iteration     100.00

 eigenvalues of (default mixing * dielectric matrix)
  average eigenvalue GAMMA=   0.2458
  0.2458

 Free energy of the ion-electron system (eV)
  ---------------------------------------------------
  alpha Z        PSCENC =         0.00380616
  Ewald energy   TEWEN  =       151.89276684
  -Hartree energ DENC   =      -532.93297313
  -exchange      EXHF   =         0.00000000
  -V(xc)+E(xc)   XCENC  =        31.86542825
  PAW double counting   =       791.70718601     -793.26371349
  entropy T*S    EENTRO =        -0.00000000
  eigenvalues    EBANDS =      -121.06696252
  atomic energy  EATOM  =       457.33726018
  Solvation  Ediel_sol  =         0.00000000
  ---------------------------------------------------
  free energy    TOTEN  =       -14.45720170 eV

  energy without entropy =      -14.45720170  energy(sigma->0) =      -14.45720170


--------------------------------------------------------------------------------------------------------




--------------------------------------- Iteration      1(   7)  ---------------------------------------


    POTLOK:  cpu time   12.6532: real time   12.6828
    SETDIJ:  cpu time    0.0389: real time    0.0389
     EDDAV:  cpu time   10.6877: real time   10.7202
       DOS:  cpu time    0.0097: real time    0.0097
    CHARGE:  cpu time    5.0503: real time    5.0568
    MIXING:  cpu time    0.2401: real time    0.2415
    --------------------------------------------
      LOOP:  cpu time   28.6800: real time   28.7500

 eigenvalue-minimisations  :    64
 total energy-change (2. order) : 0.2924271E-01  (-0.1458310E-01)
 number of electron       8.0000000 magnetization 
 augmentation part        0.0665754 magnetization 

 Broyden mixing:
  rms(total) = 0.14123E+01    rms(broyden)= 0.14123E+01
  rms(prec ) = 0.14133E+01
  weight for this iteration     100.00

 eigenvalues of (default mixing * dielectric matrix)
  average eigenvalue GAMMA=   1.3971
  1.3971  1.3971

 Free energy of the ion-electron system (eV)
  ---------------------------------------------------
  alpha Z        PSCENC =         0.00380616
  Ewald energy   TEWEN  =       151.89276684
  -Hartree energ DENC   =      -534.16843995
  -exchange      EXHF   =         0.00000000
  -V(xc)+E(xc)   XCENC  =        31.93252777
  PAW double counting   =      1025.28800755    -1026.83948794
  entropy T*S    EENTRO =        -0.00000000
  eigenvalues    EBANDS =      -119.87439960
  atomic energy  EATOM  =       457.33726018
  Solvation  Ediel_sol  =         0.00000000
  ---------------------------------------------------
  free energy    TOTEN  =       -14.42795899 eV

  energy without entropy =      -14.42795899  energy(sigma->0) =      -14.42795899


--------------------------------------------------------------------------------------------------------




--------------------------------------- Iteration      1(   8)  ---------------------------------------


    POTLOK:  cpu time   12.6749: real time   12.6970
    SETDIJ:  cpu time    0.0390: real time    0.0391
     EDDAV:  cpu time   17.5393: real time   17.5775
       DOS:  cpu time    0.0004: real time    0.0003
    CHARGE:  cpu time    5.1224: real time    5.1293
    MIXING:  cpu time    0.2348: real time    0.2354
    --------------------------------------------
      LOOP:  cpu time   35.6108: real time   35.6785

 eigenvalue-minimisations  :   128
 total energy-change (2. order) : 0.1339228E+00  (-0.9640231E-02)
 number of electron       8.0000000 magnetization 
 augmentation part        0.0658654 magnetization 

 Broyden mixing:
  rms(total) = 0.20820E+00    rms(broyden)= 0.20820E+00
  rms(prec ) = 0.20918E+00
  weight for this iteration     100.00

 eigenvalues of (default mixing * dielectric matrix)
  average eigenvalue GAMMA=   1.3318
  2.1506  1.0403  0.8045

 Free energy of the ion-electron system (eV)
  ---------------------------------------------------
  alpha Z        PSCENC =         0.00380616
  Ewald energy   TEWEN  =       151.89276684
  -Hartree energ DENC   =      -540.11233178
  -exchange      EXHF   =         0.00000000
  -V(xc)+E(xc)   XCENC  =        32.27769937
  PAW double counting   =      3139.40372705    -3140.93888885
  entropy T*S    EENTRO =        -0.00000000
  eigenvalues    EBANDS =      -114.15807512
  atomic energy  EATOM  =       457.33726018
  Solvation  Ediel_sol  =         0.00000000
  ---------------------------------------------------
  free energy    TOTEN  =       -14.29403616 eV

  energy without entropy =      -14.29403616  energy(sigma->0) =      -14.29403616


--------------------------------------------------------------------------------------------------------




--------------------------------------- Iteration      1(   9)  ---------------------------------------


    POTLOK:  cpu time   12.6567: real time   12.6788
    SETDIJ:  cpu time    0.0389: real time    0.0389
     EDDAV:  cpu time   14.1090: real time   14.1437
       DOS:  cpu time    0.0183: real time    0.0183
    CHARGE:  cpu time    5.0346: real time    5.0452
    MIXING:  cpu time    0.2487: real time    0.2491
    --------------------------------------------
      LOOP:  cpu time   32.1061: real time   32.1741

 eigenvalue-minimisations  :    96
 total energy-change (2. order) : 0.1644078E-01  (-0.7973659E-03)
 number of electron       8.0000000 magnetization 
 augmentation part        0.0656080 magnetization 

 Broyden mixing:
  rms(total) = 0.25178E+00    rms(broyden)= 0.25178E+00
  rms(prec ) = 0.25209E+00
  weight for this iteration     100.00

 eigenvalues of (default mixing * dielectric matrix)
  average eigenvalue GAMMA=   1.8016
  2.6795  2.4146  1.1144  0.9978

 Free energy of the ion-electron system (eV)
  ---------------------------------------------------
  alpha Z        PSCENC =         0.00380616
  Ewald energy   TEWEN  =       151.89276684
  -Hartree energ DENC   =      -541.96801815
  -exchange      EXHF   =         0.00000000
  -V(xc)+E(xc)   XCENC  =        32.38149525
  PAW double counting   =      3565.16544976    -3566.69100572
  entropy T*S    EENTRO =        -0.00000000
  eigenvalues    EBANDS =      -112.39934969
  atomic energy  EATOM  =       457.33726018
  Solvation  Ediel_sol  =         0.00000000
  ---------------------------------------------------
  free energy    TOTEN  =       -14.27759538 eV

  energy without entropy =      -14.27759538  energy(sigma->0) =      -14.27759538


--------------------------------------------------------------------------------------------------------




--------------------------------------- Iteration      1(  10)  ---------------------------------------


    POTLOK:  cpu time   12.6623: real time   12.6842
    SETDIJ:  cpu time    0.0390: real time    0.0390
     EDDAV:  cpu time   10.6984: real time   10.7246
       DOS:  cpu time    0.0221: real time    0.0221
    CHARGE:  cpu time    5.0594: real time    5.0661
    MIXING:  cpu time    0.2699: real time    0.2719
    --------------------------------------------
      LOOP:  cpu time   28.7511: real time   28.8080

 eigenvalue-minimisations  :    64
 total energy-change (2. order) : 0.2504504E-02  (-0.7640696E-03)
 number of electron       8.0000000 magnetization 
 augmentation part        0.0649977 magnetization 

 Broyden mixing:
  rms(total) = 0.77125E-01    rms(broyden)= 0.77125E-01
  rms(prec ) = 0.77351E-01
  weight for this iteration     100.00

 eigenvalues of (default mixing * dielectric matrix)
  average eigenvalue GAMMA=   1.7771
  3.5990  2.3099  0.9951  0.9951  0.9865

 Free energy of the ion-electron system (eV)
  ---------------------------------------------------
  alpha Z        PSCENC =         0.00380616
  Ewald energy   TEWEN  =       151.89276684
  -Hartree energ DENC   =      -543.53735322
  -exchange      EXHF   =         0.00000000
  -V(xc)+E(xc)   XCENC  =        32.43267071
  PAW double counting   =      3024.01974200    -3025.52863068
  entropy T*S    EENTRO =        -0.00000000
  eigenvalues    EBANDS =      -110.89535286
  atomic energy  EATOM  =       457.33726018
  Solvation  Ediel_sol  =         0.00000000
  ---------------------------------------------------
  free energy    TOTEN  =       -14.27509087 eV

  energy without entropy =      -14.27509087  energy(sigma->0) =      -14.27509087


--------------------------------------------------------------------------------------------------------




--------------------------------------- Iteration      1(  11)  ---------------------------------------


    POTLOK:  cpu time   12.6671: real time   12.6895
    SETDIJ:  cpu time    0.0389: real time    0.0389
     EDDAV:  cpu time   10.7291: real time   10.7532
       DOS:  cpu time    0.0078: real time    0.0078
    CHARGE:  cpu time    5.0295: real time    5.0364
    MIXING:  cpu time    0.2923: real time    0.2928
    --------------------------------------------
      LOOP:  cpu time   28.7646: real time   28.8187

 eigenvalue-minimisations  :    64
 total energy-change (2. order) :-0.2175994E-02  (-0.7795415E-04)
 number of electron       8.0000000 magnetization 
 augmentation part        0.0650903 magnetization 

 Broyden mixing:
  rms(total) = 0.99337E-01    rms(broyden)= 0.99337E-01
  rms(prec ) = 0.99428E-01
  weight for this iteration     100.00

 eigenvalues of (default mixing * dielectric matrix)
  average eigenvalue GAMMA=   1.7150
  3.5116  2.3698  1.2716  1.2716  1.0329  0.8327

 Free energy of the ion-electron system (eV)
  ---------------------------------------------------
  alpha Z        PSCENC =         0.00380616
  Ewald energy   TEWEN  =       151.89276684
  -Hartree energ DENC   =      -543.87978131
  -exchange      EXHF   =         0.00000000
  -V(xc)+E(xc)   XCENC  =        32.43860879
  PAW double counting   =      2956.18514102    -2957.68964310
  entropy T*S    EENTRO =        -0.00000000
  eigenvalues    EBANDS =      -110.56542544
  atomic energy  EATOM  =       457.33726018
  Solvation  Ediel_sol  =         0.00000000
  ---------------------------------------------------
  free energy    TOTEN  =       -14.27726687 eV

  energy without entropy =      -14.27726687  energy(sigma->0) =      -14.27726687


--------------------------------------------------------------------------------------------------------




--------------------------------------- Iteration      1(  12)  ---------------------------------------


    POTLOK:  cpu time   12.6721: real time   12.6942
    SETDIJ:  cpu time    0.0389: real time    0.0389
     EDDAV:  cpu time   17.5023: real time   17.5382
       DOS:  cpu time    0.0152: real time    0.0152
    CHARGE:  cpu time    5.0162: real time    5.0234
    MIXING:  cpu time    0.2783: real time    0.2788
    --------------------------------------------
      LOOP:  cpu time   35.5231: real time   35.5886

 eigenvalue-minimisations  :   128
 total energy-change (2. order) :-0.3160751E-02  (-0.3486284E-04)
 number of electron       8.0000000 magnetization 
 augmentation part        0.0651117 magnetization 

 Broyden mixing:
  rms(total) = 0.30207E-01    rms(broyden)= 0.30207E-01
  rms(prec ) = 0.30400E-01
  weight for this iteration     100.00

 eigenvalues of (default mixing * dielectric matrix)
  average eigenvalue GAMMA=   1.6479
  2.8029  2.8029  1.8536  1.1898  0.9883  0.9490  0.9490

 Free energy of the ion-electron system (eV)
  ---------------------------------------------------
  alpha Z        PSCENC =         0.00380616
  Ewald energy   TEWEN  =       151.89276684
  -Hartree energ DENC   =      -543.88911633
  -exchange      EXHF   =         0.00000000
  -V(xc)+E(xc)   XCENC  =        32.43387969
  PAW double counting   =      3047.55525069    -3049.06229912
  entropy T*S    EENTRO =        -0.00000000
  eigenvalues    EBANDS =      -110.55197573
  atomic energy  EATOM  =       457.33726018
  Solvation  Ediel_sol  =         0.00000000
  ---------------------------------------------------
  free energy    TOTEN  =       -14.28042762 eV

  energy without entropy =      -14.28042762  energy(sigma->0) =      -14.28042762


--------------------------------------------------------------------------------------------------------




--------------------------------------- Iteration      1(  13)  ---------------------------------------


    POTLOK:  cpu time   12.6835: real time   12.7054
    SETDIJ:  cpu time    0.0388: real time    0.0388
     EDDAV:  cpu time   10.7293: real time   10.7591
       DOS:  cpu time    0.0202: real time    0.0202
    CHARGE:  cpu time    5.1273: real time    5.1344
    MIXING:  cpu time    0.2918: real time    0.2923
    --------------------------------------------
      LOOP:  cpu time   28.8910: real time   28.9503

 eigenvalue-minimisations  :    64
 total energy-change (2. order) :-0.2767613E-02  (-0.1892326E-04)
 number of electron       8.0000000 magnetization 
 augmentation part        0.0650844 magnetization 

 Broyden mixing:
  rms(total) = 0.15366E-01    rms(broyden)= 0.15366E-01
  rms(prec ) = 0.15607E-01
  weight for this iteration     100.00

 eigenvalues of (default mixing * dielectric matrix)
  average eigenvalue GAMMA=   1.9840
  4.9003  3.1928  2.4074  1.2368  1.2368  0.9414  0.9414  1.0152

 Free energy of the ion-electron system (eV)
  ---------------------------------------------------
  alpha Z        PSCENC =         0.00380616
  Ewald energy   TEWEN  =       151.89276684
  -Hartree energ DENC   =      -543.92161097
  -exchange      EXHF   =         0.00000000
  -V(xc)+E(xc)   XCENC  =        32.43044480
  PAW double counting   =      3116.03522069    -3117.54427922
  entropy T*S    EENTRO =        -0.00000000
  eigenvalues    EBANDS =      -110.51680371
  atomic energy  EATOM  =       457.33726018
  Solvation  Ediel_sol  =         0.00000000
  ---------------------------------------------------
  free energy    TOTEN  =       -14.28319523 eV

  energy without entropy =      -14.28319523  energy(sigma->0) =      -14.28319523


--------------------------------------------------------------------------------------------------------




--------------------------------------- Iteration      1(  14)  ---------------------------------------


    POTLOK:  cpu time   12.7164: real time   12.7390
    SETDIJ:  cpu time    0.0389: real time    0.0389
     EDDAV:  cpu time   10.7129: real time   10.7343
       DOS:  cpu time    0.0223: real time    0.0223
    CHARGE:  cpu time    5.0374: real time    5.0492
    MIXING:  cpu time    0.2981: real time    0.2988
    --------------------------------------------
      LOOP:  cpu time   28.8260: real time   28.8824

 eigenvalue-minimisations  :    64
 total energy-change (2. order) :-0.3696456E-02  (-0.8833594E-04)
 number of electron       8.0000000 magnetization 
 augmentation part        0.0650360 magnetization 

 Broyden mixing:
  rms(total) = 0.30059E-01    rms(broyden)= 0.30059E-01
  rms(prec ) = 0.30083E-01
  weight for this iteration     100.00

 eigenvalues of (default mixing * dielectric matrix)
  average eigenvalue GAMMA=   2.0323
  5.6648  2.9076  2.4198  1.5975  1.5975  1.1295  1.1295  0.8742  0.9703

 Free energy of the ion-electron system (eV)
  ---------------------------------------------------
  alpha Z        PSCENC =         0.00380616
  Ewald energy   TEWEN  =       151.89276684
  -Hartree energ DENC   =      -544.17879876
  -exchange      EXHF   =         0.00000000
  -V(xc)+E(xc)   XCENC  =        32.43156823
  PAW double counting   =      3138.97303498    -3140.48213066
  entropy T*S    EENTRO =        -0.00000000
  eigenvalues    EBANDS =      -110.26439865
  atomic energy  EATOM  =       457.33726018
  Solvation  Ediel_sol  =         0.00000000
  ---------------------------------------------------
  free energy    TOTEN  =       -14.28689168 eV

  energy without entropy =      -14.28689168  energy(sigma->0) =      -14.28689168


--------------------------------------------------------------------------------------------------------




--------------------------------------- Iteration      1(  15)  ---------------------------------------


    POTLOK:  cpu time   12.6768: real time   12.6994
    SETDIJ:  cpu time    0.0389: real time    0.0389
     EDDAV:  cpu time   17.6040: real time   17.6390
       DOS:  cpu time    0.0099: real time    0.0099
    CHARGE:  cpu time    5.1115: real time    5.1184
    MIXING:  cpu time    0.3030: real time    0.3036
    --------------------------------------------
      LOOP:  cpu time   35.7441: real time   35.8093

 eigenvalue-minimisations  :   128
 total energy-change (2. order) :-0.9028198E-03  (-0.1432529E-04)
 number of electron       8.0000000 magnetization 
 augmentation part        0.0649123 magnetization 

 Broyden mixing:
  rms(total) = 0.11599E-01    rms(broyden)= 0.11599E-01
  rms(prec ) = 0.11627E-01
  weight for this iteration     100.00

 eigenvalues of (default mixing * dielectric matrix)
  average eigenvalue GAMMA=   1.9797
  6.1741  2.9715  2.2713  2.2713  1.2218  1.2218  1.1910  1.0127  0.8537  0.6081

 Free energy of the ion-electron system (eV)
  ---------------------------------------------------
  alpha Z        PSCENC =         0.00380616
  Ewald energy   TEWEN  =       151.89276684
  -Hartree energ DENC   =      -544.25278556
  -exchange      EXHF   =         0.00000000
  -V(xc)+E(xc)   XCENC  =        32.43188344
  PAW double counting   =      3112.27202106    -3113.78033238
  entropy T*S    EENTRO =        -0.00000000
  eigenvalues    EBANDS =      -110.19241423
  atomic energy  EATOM  =       457.33726018
  Solvation  Ediel_sol  =         0.00000000
  ---------------------------------------------------
  free energy    TOTEN  =       -14.28779450 eV

  energy without entropy =      -14.28779450  energy(sigma->0) =      -14.28779450


--------------------------------------------------------------------------------------------------------




--------------------------------------- Iteration      1(  16)  ---------------------------------------


    POTLOK:  cpu time   12.6899: real time   12.7156
    SETDIJ:  cpu time    0.0389: real time    0.0389
     EDDAV:  cpu time   10.6861: real time   10.7120
       DOS:  cpu time    0.0148: real time    0.0148
    CHARGE:  cpu time    5.0070: real time    5.0173
    MIXING:  cpu time    0.3653: real time    0.3660
    --------------------------------------------
      LOOP:  cpu time   28.8021: real time   28.8646

 eigenvalue-minimisations  :    64
 total energy-change (2. order) :-0.1017070E-02  (-0.6329786E-05)
 number of electron       8.0000000 magnetization 
 augmentation part        0.0649600 magnetization 

 Broyden mixing:
  rms(total) = 0.13279E-02    rms(broyden)= 0.13279E-02
  rms(prec ) = 0.14143E-02
  weight for this iteration     100.00

 eigenvalues of (default mixing * dielectric matrix)
  average eigenvalue GAMMA=   2.0856
  7.0126  3.0997  3.0997  2.4331  1.3067  1.3067  1.0857  0.9227  0.9227  0.8759
  0.8759

 Free energy of the ion-electron system (eV)
  ---------------------------------------------------
  alpha Z        PSCENC =         0.00380616
  Ewald energy   TEWEN  =       151.89276684
  -Hartree energ DENC   =      -544.23256354
  -exchange      EXHF   =         0.00000000
  -V(xc)+E(xc)   XCENC  =        32.42835384
  PAW double counting   =      3093.44073619    -3094.94778680
  entropy T*S    EENTRO =        -0.00000000
  eigenvalues    EBANDS =      -110.21138444
  atomic energy  EATOM  =       457.33726018
  Solvation  Ediel_sol  =         0.00000000
  ---------------------------------------------------
  free energy    TOTEN  =       -14.28881157 eV

  energy without entropy =      -14.28881157  energy(sigma->0) =      -14.28881157


--------------------------------------------------------------------------------------------------------




--------------------------------------- Iteration      1(  17)  ---------------------------------------


    POTLOK:  cpu time   12.6631: real time   12.6852
    SETDIJ:  cpu time    0.0389: real time    0.0389
     EDDAV:  cpu time   17.5700: real time   17.6038
       DOS:  cpu time    0.0095: real time    0.0095
    CHARGE:  cpu time    5.0416: real time    5.0523
    MIXING:  cpu time    0.3437: real time    0.3443
    --------------------------------------------
      LOOP:  cpu time   35.6667: real time   35.7340

 eigenvalue-minimisations  :   128
 total energy-change (2. order) :-0.5917263E-03  (-0.3551856E-05)
 number of electron       8.0000000 magnetization 
 augmentation part        0.0649349 magnetization 

 Broyden mixing:
  rms(total) = 0.89842E-02    rms(broyden)= 0.89842E-02
  rms(prec ) = 0.89891E-02
  weight for this iteration     100.00

 eigenvalues of (default mixing * dielectric matrix)
  average eigenvalue GAMMA=   2.2330
  8.0262  4.3820  2.5711  2.5711  1.8726  1.2514  1.2514  1.2423  0.9019  0.9019
  0.9489  0.8757

 Free energy of the ion-electron system (eV)
  ---------------------------------------------------
  alpha Z        PSCENC =         0.00380616
  Ewald energy   TEWEN  =       151.89276684
  -Hartree energ DENC   =      -544.24196286
  -exchange      EXHF   =         0.00000000
  -V(xc)+E(xc)   XCENC  =        32.42775807
  PAW double counting   =      3081.67870379    -3083.18548550
  entropy T*S    EENTRO =        -0.00000000
  eigenvalues    EBANDS =      -110.20224998
  atomic energy  EATOM  =       457.33726018
  Solvation  Ediel_sol  =         0.00000000
  ---------------------------------------------------
  free energy    TOTEN  =       -14.28940330 eV

  energy without entropy =      -14.28940330  energy(sigma->0) =      -14.28940330


--------------------------------------------------------------------------------------------------------




--------------------------------------- Iteration      1(  18)  ---------------------------------------


    POTLOK:  cpu time   12.7236: real time   12.7460
    SETDIJ:  cpu time    0.0389: real time    0.0389
     EDDAV:  cpu time   10.7274: real time   10.7479
       DOS:  cpu time    0.0134: real time    0.0134
    CHARGE:  cpu time    5.0907: real time    5.0983
    MIXING:  cpu time    0.3436: real time    0.3442
    --------------------------------------------
      LOOP:  cpu time   28.9376: real time   28.9888

 eigenvalue-minimisations  :    64
 total energy-change (2. order) :-0.3204995E-03  (-0.1060353E-05)
 number of electron       8.0000000 magnetization 
 augmentation part        0.0649216 magnetization 

 Broyden mixing:
  rms(total) = 0.24094E-02    rms(broyden)= 0.24094E-02
  rms(prec ) = 0.24143E-02
  weight for this iteration     100.00

 eigenvalues of (default mixing * dielectric matrix)
  average eigenvalue GAMMA=   2.2728
  8.2382  4.8222  2.7633  2.7633  2.4078  1.4323  1.2445  1.2445  1.0122  1.0122
  0.9333  0.8364  0.8364

 Free energy of the ion-electron system (eV)
  ---------------------------------------------------
  alpha Z        PSCENC =         0.00380616
  Ewald energy   TEWEN  =       151.89276684
  -Hartree energ DENC   =      -544.23579048
  -exchange      EXHF   =         0.00000000
  -V(xc)+E(xc)   XCENC  =        32.42726568
  PAW double counting   =      3091.10833684    -3092.61559735
  entropy T*S    EENTRO =        -0.00000000
  eigenvalues    EBANDS =      -110.20777167
  atomic energy  EATOM  =       457.33726018
  Solvation  Ediel_sol  =         0.00000000
  ---------------------------------------------------
  free energy    TOTEN  =       -14.28972380 eV

  energy without entropy =      -14.28972380  energy(sigma->0) =      -14.28972380


--------------------------------------------------------------------------------------------------------




--------------------------------------- Iteration      1(  19)  ---------------------------------------


    POTLOK:  cpu time   12.7047: real time   12.7269
    SETDIJ:  cpu time    0.0388: real time    0.0389
     EDDAV:  cpu time   17.5450: real time   17.5922
       DOS:  cpu time    0.0071: real time    0.0071
    CHARGE:  cpu time    5.0441: real time    5.0511
    MIXING:  cpu time    0.3631: real time    0.3638
    --------------------------------------------
      LOOP:  cpu time   35.7028: real time   35.7799

 eigenvalue-minimisations  :   128
 total energy-change (2. order) :-0.1470788E-03  (-0.2562057E-06)
 number of electron       8.0000000 magnetization 
 augmentation part        0.0649341 magnetization 

 Broyden mixing:
  rms(total) = 0.62495E-03    rms(broyden)= 0.62494E-03
  rms(prec ) = 0.63172E-03
  weight for this iteration     100.00

 eigenvalues of (default mixing * dielectric matrix)
  average eigenvalue GAMMA=   2.2780
  8.6698  5.0708  3.1457  2.3571  2.3571  2.0824  1.2888  1.2888  1.1779  0.9554
  0.9554  0.9156  0.8135  0.8135

 Free energy of the ion-electron system (eV)
  ---------------------------------------------------
  alpha Z        PSCENC =         0.00380616
  Ewald energy   TEWEN  =       151.89276684
  -Hartree energ DENC   =      -544.23057618
  -exchange      EXHF   =         0.00000000
  -V(xc)+E(xc)   XCENC  =        32.42691142
  PAW double counting   =      3095.43537970    -3096.94275823
  entropy T*S    EENTRO =        -0.00000000
  eigenvalues    EBANDS =      -110.21266078
  atomic energy  EATOM  =       457.33726018
  Solvation  Ediel_sol  =         0.00000000
  ---------------------------------------------------
  free energy    TOTEN  =       -14.28987088 eV

  energy without entropy =      -14.28987088  energy(sigma->0) =      -14.28987088


--------------------------------------------------------------------------------------------------------




--------------------------------------- Iteration      1(  20)  ---------------------------------------


    POTLOK:  cpu time   12.6590: real time   12.6810
    SETDIJ:  cpu time    0.0389: real time    0.0389
     EDDAV:  cpu time   10.6809: real time   10.7050
       DOS:  cpu time    0.0103: real time    0.0103
    CHARGE:  cpu time    5.0433: real time    5.0551
    MIXING:  cpu time    0.3743: real time    0.3751
    --------------------------------------------
      LOOP:  cpu time   28.8069: real time   28.8654

 eigenvalue-minimisations  :    64
 total energy-change (2. order) :-0.8034963E-04  (-0.9126659E-07)
 number of electron       8.0000000 magnetization 
 augmentation part        0.0649361 magnetization 

 Broyden mixing:
  rms(total) = 0.31487E-03    rms(broyden)= 0.31487E-03
  rms(prec ) = 0.32008E-03
  weight for this iteration     100.00

 eigenvalues of (default mixing * dielectric matrix)
  average eigenvalue GAMMA=   2.2898
  8.8699  5.4108  3.5682  2.5666  2.5666  1.7474  1.7474  1.1654  1.1654  0.9964
  0.9964  0.8494  0.8494  0.9241  0.9241

 Free energy of the ion-electron system (eV)
  ---------------------------------------------------
  alpha Z        PSCENC =         0.00380616
  Ewald energy   TEWEN  =       151.89276684
  -Hartree energ DENC   =      -544.23000176
  -exchange      EXHF   =         0.00000000
  -V(xc)+E(xc)   XCENC  =        32.42675765
  PAW double counting   =      3094.79264291    -3096.29998052
  entropy T*S    EENTRO =        -0.00000000
  eigenvalues    EBANDS =      -110.21320269
  atomic energy  EATOM  =       457.33726018
  Solvation  Ediel_sol  =         0.00000000
  ---------------------------------------------------
  free energy    TOTEN  =       -14.28995123 eV

  energy without entropy =      -14.28995123  energy(sigma->0) =      -14.28995123


--------------------------------------------------------------------------------------------------------




--------------------------------------- Iteration      1(  21)  ---------------------------------------


    POTLOK:  cpu time   12.6434: real time   12.6651
    SETDIJ:  cpu time    0.0389: real time    0.0390
     EDDAV:  cpu time   17.5295: real time   17.5639
       DOS:  cpu time    0.0100: real time    0.0100
    CHARGE:  cpu time    5.0849: real time    5.0918
    MIXING:  cpu time    0.3903: real time    0.3911
    --------------------------------------------
      LOOP:  cpu time   35.6971: real time   35.7608

 eigenvalue-minimisations  :   128
 total energy-change (2. order) :-0.4529782E-04  (-0.2983734E-07)
 number of electron       8.0000000 magnetization 
 augmentation part        0.0649331 magnetization 

 Broyden mixing:
  rms(total) = 0.68655E-03    rms(broyden)= 0.68655E-03
  rms(prec ) = 0.68738E-03
  weight for this iteration     100.00

 eigenvalues of (default mixing * dielectric matrix)
  average eigenvalue GAMMA=   2.3317
  9.2958  5.9283  3.8894  2.8522  2.2412  2.0771  1.8742  1.2609  1.2609  1.1327
  0.9560  0.9560  0.9327  0.9327  0.8582  0.8582

 Free energy of the ion-electron system (eV)
  ---------------------------------------------------
  alpha Z        PSCENC =         0.00380616
  Ewald energy   TEWEN  =       151.89276684
  -Hartree energ DENC   =      -544.23264285
  -exchange      EXHF   =         0.00000000
  -V(xc)+E(xc)   XCENC  =        32.42683064
  PAW double counting   =      3095.48323767    -3096.99060710
  entropy T*S    EENTRO =        -0.00000000
  eigenvalues    EBANDS =      -110.21064807
  atomic energy  EATOM  =       457.33726018
  Solvation  Ediel_sol  =         0.00000000
  ---------------------------------------------------
  free energy    TOTEN  =       -14.28999653 eV

  energy without entropy =      -14.28999653  energy(sigma->0) =      -14.28999653


--------------------------------------------------------------------------------------------------------




--------------------------------------- Iteration      1(  22)  ---------------------------------------


    POTLOK:  cpu time   12.6455: real time   12.6678
    SETDIJ:  cpu time    0.0389: real time    0.0389
     EDDAV:  cpu time   17.5410: real time   17.5784
       DOS:  cpu time    0.0057: real time    0.0057
    CHARGE:  cpu time    5.0875: real time    5.1017
    MIXING:  cpu time    0.3901: real time    0.3909
    --------------------------------------------
      LOOP:  cpu time   35.7087: real time   35.7835

 eigenvalue-minimisations  :   128
 total energy-change (2. order) :-0.2868957E-04  (-0.2591849E-07)
 number of electron       8.0000000 magnetization 
 augmentation part        0.0649303 magnetization 

 Broyden mixing:
  rms(total) = 0.18869E-03    rms(broyden)= 0.18869E-03
  rms(prec ) = 0.18950E-03
  weight for this iteration     100.00

 eigenvalues of (default mixing * dielectric matrix)
  average eigenvalue GAMMA=   2.4286
  9.4667  6.3387  4.3132  2.9552  2.6355  2.6355  2.0388  1.9583  1.1998  1.1998
  0.9950  0.9950  0.9512  0.9532  0.9532  0.8486  0.8486

 Free energy of the ion-electron system (eV)
  ---------------------------------------------------
  alpha Z        PSCENC =         0.00380616
  Ewald energy   TEWEN  =       151.89276684
  -Hartree energ DENC   =      -544.23404034
  -exchange      EXHF   =         0.00000000
  -V(xc)+E(xc)   XCENC  =        32.42683486
  PAW double counting   =      3094.82836999    -3096.33573345
  entropy T*S    EENTRO =        -0.00000000
  eigenvalues    EBANDS =      -110.20928945
  atomic energy  EATOM  =       457.33726018
  Solvation  Ediel_sol  =         0.00000000
  ---------------------------------------------------
  free energy    TOTEN  =       -14.29002522 eV

  energy without entropy =      -14.29002522  energy(sigma->0) =      -14.29002522


--------------------------------------------------------------------------------------------------------




--------------------------------------- Iteration      1(  23)  ---------------------------------------


    POTLOK:  cpu time   12.6746: real time   12.6966
    SETDIJ:  cpu time    0.0389: real time    0.0389
     EDDAV:  cpu time   17.5131: real time   17.5552
       DOS:  cpu time    0.0092: real time    0.0092
    CHARGE:  cpu time    5.0680: real time    5.0747
    MIXING:  cpu time    0.4192: real time    0.4200
    --------------------------------------------
      LOOP:  cpu time   35.7230: real time   35.7946

 eigenvalue-minimisations  :   128
 total energy-change (2. order) :-0.1114221E-04  (-0.7207102E-08)
 number of electron       8.0000000 magnetization 
 augmentation part        0.0649318 magnetization 

 Broyden mixing:
  rms(total) = 0.33118E-04    rms(broyden)= 0.33118E-04
  rms(prec ) = 0.34704E-04
  weight for this iteration     100.00

 eigenvalues of (default mixing * dielectric matrix)
  average eigenvalue GAMMA=   2.3789
  9.5185  6.5446  4.6281  2.9883  2.9883  2.3818  1.7942  1.7942  1.2206  1.2206
  1.2885  0.9977  0.9977  0.8382  0.8382  0.9530  0.9530  0.8752

 Free energy of the ion-electron system (eV)
  ---------------------------------------------------
  alpha Z        PSCENC =         0.00380616
  Ewald energy   TEWEN  =       151.89276684
  -Hartree energ DENC   =      -544.23376195
  -exchange      EXHF   =         0.00000000
  -V(xc)+E(xc)   XCENC  =        32.42679896
  PAW double counting   =      3094.51647528    -3096.02381906
  entropy T*S    EENTRO =        -0.00000000
  eigenvalues    EBANDS =      -110.20956278
  atomic energy  EATOM  =       457.33726018
  Solvation  Ediel_sol  =         0.00000000
  ---------------------------------------------------
  free energy    TOTEN  =       -14.29003636 eV

  energy without entropy =      -14.29003636  energy(sigma->0) =      -14.29003636


--------------------------------------------------------------------------------------------------------




--------------------------------------- Iteration      1(  24)  ---------------------------------------


    POTLOK:  cpu time   12.6329: real time   12.6570
    SETDIJ:  cpu time    0.0389: real time    0.0389
     EDDAV:  cpu time   10.7523: real time   10.7749
       DOS:  cpu time    0.0160: real time    0.0160
    CHARGE:  cpu time    5.1117: real time    5.1187
    MIXING:  cpu time    0.4466: real time    0.4475
    --------------------------------------------
      LOOP:  cpu time   28.9983: real time   29.0528

 eigenvalue-minimisations  :    64
 total energy-change (2. order) :-0.7432157E-05  (-0.5581219E-08)
 number of electron       8.0000000 magnetization 
 augmentation part        0.0649318 magnetization 

 Broyden mixing:
  rms(total) = 0.10543E-03    rms(broyden)= 0.10543E-03
  rms(prec ) = 0.10557E-03
  weight for this iteration     100.00

 eigenvalues of (default mixing * dielectric matrix)
  average eigenvalue GAMMA=   2.4105
  9.6323  6.8406  4.9966  3.4369  2.7427  2.4006  2.0683  1.9356  1.9356  1.1818
  1.1818  0.9997  0.9997  0.8442  0.8442  0.9763  0.9763  0.9033  0.9033

 Free energy of the ion-electron system (eV)
  ---------------------------------------------------
  alpha Z        PSCENC =         0.00380616
  Ewald energy   TEWEN  =       151.89276684
  -Hartree energ DENC   =      -544.23420895
  -exchange      EXHF   =         0.00000000
  -V(xc)+E(xc)   XCENC  =        32.42681076
  PAW double counting   =      3094.41574893    -3095.92308640
  entropy T*S    EENTRO =        -0.00000000
  eigenvalues    EBANDS =      -110.20914131
  atomic energy  EATOM  =       457.33726018
  Solvation  Ediel_sol  =         0.00000000
  ---------------------------------------------------
  free energy    TOTEN  =       -14.29004379 eV

  energy without entropy =      -14.29004379  energy(sigma->0) =      -14.29004379


--------------------------------------------------------------------------------------------------------




--------------------------------------- Iteration      1(  25)  ---------------------------------------


    POTLOK:  cpu time   12.6680: real time   12.6929
    SETDIJ:  cpu time    0.0389: real time    0.0389
     EDDAV:  cpu time   17.5372: real time   17.5719
       DOS:  cpu time    0.0078: real time    0.0078
    CHARGE:  cpu time    5.0556: real time    5.0624
    MIXING:  cpu time    0.4567: real time    0.4577
    --------------------------------------------
      LOOP:  cpu time   35.7643: real time   35.8316

 eigenvalue-minimisations  :   128
 total energy-change (2. order) :-0.3203182E-05  (-0.4240972E-08)
 number of electron       8.0000000 magnetization 
 augmentation part        0.0649319 magnetization 

 Broyden mixing:
  rms(total) = 0.19085E-04    rms(broyden)= 0.19085E-04
  rms(prec ) = 0.19303E-04
  weight for this iteration     100.00

 eigenvalues of (default mixing * dielectric matrix)
  average eigenvalue GAMMA=   2.4761
  9.7111  7.1679  5.2888  3.9154  2.8634  2.8634  2.5827  2.2191  1.5134  1.5134
  1.1759  1.1759  0.9958  0.9958  0.8449  0.8449  1.0300  0.9322  0.9322  0.9565

 Free energy of the ion-electron system (eV)
  ---------------------------------------------------
  alpha Z        PSCENC =         0.00380616
  Ewald energy   TEWEN  =       151.89276684
  -Hartree energ DENC   =      -544.23405072
  -exchange      EXHF   =         0.00000000
  -V(xc)+E(xc)   XCENC  =        32.42680095
  PAW double counting   =      3094.52354446    -3096.03088518
  entropy T*S    EENTRO =        -0.00000000
  eigenvalues    EBANDS =      -110.20928970
  atomic energy  EATOM  =       457.33726018
  Solvation  Ediel_sol  =         0.00000000
  ---------------------------------------------------
  free energy    TOTEN  =       -14.29004699 eV

  energy without entropy =      -14.29004699  energy(sigma->0) =      -14.29004699


--------------------------------------------------------------------------------------------------------




--------------------------------------- Iteration      1(  26)  ---------------------------------------


    POTLOK:  cpu time   12.6500: real time   12.6722
    SETDIJ:  cpu time    0.0389: real time    0.0389
     EDDAV:  cpu time   10.7203: real time   10.7412
       DOS:  cpu time    0.0084: real time    0.0084
    CHARGE:  cpu time    5.0726: real time    5.0793
    MIXING:  cpu time    0.4790: real time    0.4800
    --------------------------------------------
      LOOP:  cpu time   28.9692: real time   29.0200

 eigenvalue-minimisations  :    64
 total energy-change (2. order) :-0.1462415E-05  (-0.2981601E-08)
 number of electron       8.0000000 magnetization 
 augmentation part        0.0649319 magnetization 

 Broyden mixing:
  rms(total) = 0.19791E-04    rms(broyden)= 0.19791E-04
  rms(prec ) = 0.19857E-04
  weight for this iteration     100.00

 eigenvalues of (default mixing * dielectric matrix)
  average eigenvalue GAMMA=   2.4421
  9.7366  7.3982  5.3953  4.2644  2.8264  2.8264  2.4818  2.1437  1.7601  1.7601
  1.1831  1.1831  0.9926  0.9926  0.8447  0.8447  0.9902  0.9902  0.9239  0.9239
  0.8219

 Free energy of the ion-electron system (eV)
  ---------------------------------------------------
  alpha Z        PSCENC =         0.00380616
  Ewald energy   TEWEN  =       151.89276684
  -Hartree energ DENC   =      -544.23399879
  -exchange      EXHF   =         0.00000000
  -V(xc)+E(xc)   XCENC  =        32.42679777
  PAW double counting   =      3094.58100857    -3096.08835191
  entropy T*S    EENTRO =        -0.00000000
  eigenvalues    EBANDS =      -110.20933728
  atomic energy  EATOM  =       457.33726018
  Solvation  Ediel_sol  =         0.00000000
  ---------------------------------------------------
  free energy    TOTEN  =       -14.29004846 eV

  energy without entropy =      -14.29004846  energy(sigma->0) =      -14.29004846


--------------------------------------------------------------------------------------------------------




--------------------------------------- Iteration      1(  27)  ---------------------------------------


    POTLOK:  cpu time   12.6030: real time   12.6258
    SETDIJ:  cpu time    0.0389: real time    0.0389
     EDDAV:  cpu time   14.0981: real time   14.1251
       DOS:  cpu time    0.0179: real time    0.0179
    CHARGE:  cpu time    5.0704: real time    5.0770
    MIXING:  cpu time    0.5116: real time    0.5127
    --------------------------------------------
      LOOP:  cpu time   32.3399: real time   32.3975

 eigenvalue-minimisations  :    96
 total energy-change (2. order) :-0.5595928E-06  (-0.2606107E-08)
 number of electron       8.0000000 magnetization 
 augmentation part        0.0649318 magnetization 

 Broyden mixing:
  rms(total) = 0.87293E-05    rms(broyden)= 0.87292E-05
  rms(prec ) = 0.87770E-05
  weight for this iteration     100.00

 eigenvalues of (default mixing * dielectric matrix)
  average eigenvalue GAMMA=   2.4632
  9.7742  7.5364  5.6576  4.3552  3.0281  2.9065  2.3887  2.1468  2.1468  1.6795
  1.6795  1.1824  1.1824  1.0006  1.0006  0.8448  0.8448  1.0409  0.9743  0.9743
  0.9084  0.9378

 Free energy of the ion-electron system (eV)
  ---------------------------------------------------
  alpha Z        PSCENC =         0.00380616
  Ewald energy   TEWEN  =       151.89276684
  -Hartree energ DENC   =      -544.23402879
  -exchange      EXHF   =         0.00000000
  -V(xc)+E(xc)   XCENC  =        32.42679912
  PAW double counting   =      3094.56664571    -3096.07399008
  entropy T*S    EENTRO =        -0.00000000
  eigenvalues    EBANDS =      -110.20930815
  atomic energy  EATOM  =       457.33726018
  Solvation  Ediel_sol  =         0.00000000
  ---------------------------------------------------
  free energy    TOTEN  =       -14.29004902 eV

  energy without entropy =      -14.29004902  energy(sigma->0) =      -14.29004902


--------------------------------------------------------------------------------------------------------




--------------------------------------- Iteration      1(  28)  ---------------------------------------


    POTLOK:  cpu time   12.6498: real time   12.6715
    SETDIJ:  cpu time    0.0389: real time    0.0389
     EDDAV:  cpu time   14.1638: real time   14.1912
       DOS:  cpu time    0.0112: real time    0.0112
    CHARGE:  cpu time    5.0740: real time    5.0886
    MIXING:  cpu time    0.5411: real time    0.5423
    --------------------------------------------
      LOOP:  cpu time   32.4789: real time   32.5437

 eigenvalue-minimisations  :    96
 total energy-change (2. order) :-0.2914406E-06  (-0.2114763E-08)
 number of electron       8.0000000 magnetization 
 augmentation part        0.0649318 magnetization 

 Broyden mixing:
  rms(total) = 0.64118E-05    rms(broyden)= 0.64118E-05
  rms(prec ) = 0.64328E-05
  weight for this iteration     100.00

 eigenvalues of (default mixing * dielectric matrix)
  average eigenvalue GAMMA=   2.4754
  9.7866  7.8357  5.9778  4.5807  3.6295  2.5639  2.5639  2.5628  2.2033  1.7130
  1.7130  1.1880  1.1880  0.9973  0.9973  1.0577  0.8438  0.8438  0.9515  0.9515
  0.9618  0.9116  0.9116

 Free energy of the ion-electron system (eV)
  ---------------------------------------------------
  alpha Z        PSCENC =         0.00380616
  Ewald energy   TEWEN  =       151.89276684
  -Hartree energ DENC   =      -544.23400185
  -exchange      EXHF   =         0.00000000
  -V(xc)+E(xc)   XCENC  =        32.42679738
  PAW double counting   =      3094.56213541    -3096.06947907
  entropy T*S    EENTRO =        -0.00000000
  eigenvalues    EBANDS =      -110.20933435
  atomic energy  EATOM  =       457.33726018
  Solvation  Ediel_sol  =         0.00000000
  ---------------------------------------------------
  free energy    TOTEN  =       -14.29004931 eV

  energy without entropy =      -14.29004931  energy(sigma->0) =      -14.29004931


--------------------------------------------------------------------------------------------------------




--------------------------------------- Iteration      1(  29)  ---------------------------------------


    POTLOK:  cpu time   12.6442: real time   12.6661
    SETDIJ:  cpu time    0.0391: real time    0.0391
     EDDAV:  cpu time   10.6838: real time   10.7161
       DOS:  cpu time    0.0096: real time    0.0097
    CHARGE:  cpu time    5.0393: real time    5.0502
    MIXING:  cpu time    0.5434: real time    0.5446
    --------------------------------------------
      LOOP:  cpu time   28.9595: real time   29.0257

 eigenvalue-minimisations  :    64
 total energy-change (2. order) :-0.1499322E-06  (-0.1664450E-08)
 number of electron       8.0000000 magnetization 
 augmentation part        0.0649318 magnetization 

 Broyden mixing:
  rms(total) = 0.39817E-05    rms(broyden)= 0.39817E-05
  rms(prec ) = 0.39907E-05
  weight for this iteration     100.00

 eigenvalues of (default mixing * dielectric matrix)
  average eigenvalue GAMMA=   2.5464
  9.7959  8.0964  6.2118  5.0019  3.6804  3.5302  2.7902  2.3594  2.1620  2.1620
  1.7031  1.7031  1.1893  1.1893  1.0001  1.0001  1.1209  0.8440  0.8440  0.9761
  0.9761  0.8940  0.9421  0.9421

 Free energy of the ion-electron system (eV)
  ---------------------------------------------------
  alpha Z        PSCENC =         0.00380616
  Ewald energy   TEWEN  =       151.89276684
  -Hartree energ DENC   =      -544.23401139
  -exchange      EXHF   =         0.00000000
  -V(xc)+E(xc)   XCENC  =        32.42679731
  PAW double counting   =      3094.54927608    -3096.05661898
  entropy T*S    EENTRO =        -0.00000000
  eigenvalues    EBANDS =      -110.20932566
  atomic energy  EATOM  =       457.33726018
  Solvation  Ediel_sol  =         0.00000000
  ---------------------------------------------------
  free energy    TOTEN  =       -14.29004946 eV

  energy without entropy =      -14.29004946  energy(sigma->0) =      -14.29004946


--------------------------------------------------------------------------------------------------------




--------------------------------------- Iteration      1(  30)  ---------------------------------------


    POTLOK:  cpu time   12.6162: real time   12.6383
    SETDIJ:  cpu time    0.0388: real time    0.0388
     EDDAV:  cpu time   14.0739: real time   14.1082
       DOS:  cpu time    0.0197: real time    0.0197
    --------------------------------------------
      LOOP:  cpu time   26.7486: real time   26.8050

 eigenvalue-minimisations  :    96
 total energy-change (2. order) :-0.5920447E-07  (-0.1413884E-08)
 number of electron       8.0000000 magnetization 
 augmentation part        0.0649318 magnetization 

 Free energy of the ion-electron system (eV)
  ---------------------------------------------------
  alpha Z        PSCENC =         0.00380616
  Ewald energy   TEWEN  =       151.89276684
  -Hartree energ DENC   =      -544.23401541
  -exchange      EXHF   =         0.00000000
  -V(xc)+E(xc)   XCENC  =        32.42679757
  PAW double counting   =      3094.55182570    -3096.05916883
  entropy T*S    EENTRO =        -0.00000000
  eigenvalues    EBANDS =      -110.20932172
  atomic energy  EATOM  =       457.33726018
  Solvation  Ediel_sol  =         0.00000000
  ---------------------------------------------------
  free energy    TOTEN  =       -14.29004952 eV

  energy without entropy =      -14.29004952  energy(sigma->0) =      -14.29004952


--------------------------------------------------------------------------------------------------------




 average (electrostatic) potential at core
  the test charge radii are     0.5955  0.4325
  (the norm of the test charge is              1.0000)
       1-119.6035       2 -47.6764       3 -47.6763
 
 
 
 E-fermi :  -7.1712     XC(G=0):  -0.0215     alpha+bet : -0.0032


 k-point     1 :       0.0000    0.0000    0.0000
  band No.  band energies     occupation 
      1     -25.3706      2.00000
      2     -13.1470      2.00000
      3      -9.3472      2.00000
      4      -7.2398      2.00000
      5      -0.9485      0.00000
      6      -0.0021      0.00000
      7       0.1041      0.00000
      8       0.1099      0.00000
      9       0.1121      0.00000
     10       0.1157      0.00000
     11       0.1183      0.00000
     12       0.1393      0.00000
     13       0.1987      0.00000
     14       0.2240      0.00000
     15       0.2262      0.00000
     16       0.2371      0.00000
     17       0.2374      0.00000
     18       0.2378      0.00000
     19       0.2381      0.00000
     20       0.2400      0.00000
     21       0.2418      0.00000
     22       0.2422      0.00000
     23       0.2430      0.00000
     24       0.2863      0.00000
     25       0.3247      0.00000
     26       0.3492      0.00000
     27       0.3538      0.00000
     28       0.3598      0.00000
     29       0.3613      0.00000
     30       0.3627      0.00000
     31       0.3633      0.00000
     32       0.3985      0.00000


--------------------------------------------------------------------------------------------------------


 soft charge-density along one line, spin component            1
         0         1         2         3         4         5         6         7         8         9
 total charge-density along one line
 
 pseudopotential strength for first ion, spin component:            1
 26.750  32.716   0.094  -0.004   0.003   0.123  -0.006   0.005
 32.716  40.013   0.114  -0.005   0.004   0.151  -0.007   0.006
  0.094   0.114  -9.416  -0.001  -0.001 -12.525  -0.001  -0.001
 -0.004  -0.005  -0.001  -9.429   0.000  -0.001 -12.542   0.000
  0.003   0.004  -0.001   0.000  -9.399  -0.001   0.000 -12.502
  0.123   0.151 -12.525  -0.001  -0.001 -16.649  -0.001  -0.001
 -0.006  -0.007  -0.001 -12.542   0.000  -0.001 -16.671   0.001
  0.005   0.006  -0.001   0.000 -12.502  -0.001   0.001 -16.617
 total augmentation occupancy for first ion, spin component:            1
 19.534 -17.673 -12.345   0.581  -0.453   5.722  -0.269   0.210
-17.673  17.048  10.577  -0.498   0.389  -5.170   0.243  -0.190
-12.345  10.577   8.163   0.146   0.151  -3.633  -0.093  -0.095
  0.581  -0.498   0.146  11.189  -0.084  -0.093  -5.561   0.053
 -0.453   0.389   0.151  -0.084   3.950  -0.095   0.053  -0.985
  5.722  -5.170  -3.633  -0.093  -0.095   1.682   0.052   0.051
 -0.269   0.243  -0.093  -5.561   0.053   0.052   2.764  -0.029
  0.210  -0.190  -0.095   0.053  -0.985   0.051  -0.029   0.246


------------------------ aborting loop because EDIFF is reached ----------------------------------------



 DIPCOR: dipole corrections for dipol
 direction  1 min pos   294, direction  2 min pos   371, direction  3 min pos   363,
 dipolmoment          -0.013738     -0.373987      0.017613 electrons x Angstroem
 Tr[quadrupol]         0.760428

 energy correction for charged system         0.000000 eV
 dipol+quadrupol energy correction            0.000099 eV
 added-field ion interaction          0.000000 eV  (added to PSCEN)

 
  *************** adding dipol energy to TOTEN NOW **************** 
    CHARGE:  cpu time    5.1117: real time    5.1186
    FORLOC:  cpu time    0.3269: real time    0.3274
    FORNL :  cpu time    0.2208: real time    0.2212
    STRESS:  cpu time    8.0399: real time    8.0544
    FORCOR:  cpu time   10.5457: real time   10.5649
    FORHAR:  cpu time    3.0940: real time    3.0996
    MIXING:  cpu time    0.5525: real time    0.5536
    OFIELD:  cpu time    0.0000: real time    0.0000

  Hirshfeld charges:
            ion         q(e)     
   ------------------------------
      1     O          -0.293
      2     H           0.146
      3     H           0.146

  Hirshfeld-I charges:
            ion         q(e)        dq(e)    
   ------------------------------------------
      1     O          -0.905     -0.371E-04
      2     H           0.452      0.186E-04
      3     H           0.452      0.186E-04

   Hirshfeld-I converged in  18 cycles. Convergence criterion |dq|< 0.500E-04 e

  Atomic reference data used in the T-S method for vdW correction:
            C6at              R0at           ALPHAat      REFSTATE
            (au)              (au)            (au)                
   ---------------------------------------------------------------
   O          15.600          3.194          5.400         0
   H           6.500          3.099          4.500         0

  Tkatchenko/Scheffler method for vdW energy calculation
  ---------------------------------------------------------------------------------------------

  Parameters of vdW forcefield:
            C6ts              R0ts           ALPHAts        RELVOL
            (au)              (au)            (au)                
   ---------------------------------------------------------------
   O          25.615          3.469          6.920          1.28139862
   H           0.589          2.077          1.355          0.30107467
   H           0.589          2.077          1.355          0.30107376

  vdW correction parametrized for the method pbe       

  IVDW =  21
  VDW_RADIUS =    50.000 A
  VDW_IDAMPF =  0
  VDW_S6 =     1.000
  VDW_SR =     0.950
  VDW_D =    20.000
  LVDW_ONECELL = F F F
  LVDW_SAMETYPE T T
  LVDW_EWALD = F

  Number of pair interactions contributing to vdW energy:     101
  Edisp (eV):   -0.00013
    FORVDW:  cpu time   48.1194: real time   48.1613

  FORCE on cell =-STRESS in cart. coord.  units (eV):
  Direction    XX          YY          ZZ          XY          YZ          ZX
  --------------------------------------------------------------------------------------
  Alpha Z     0.00381     0.00381     0.00381
  Ewald     -12.35134    55.54820   108.69565     2.42663     2.55434    -1.39927
  Hartree   170.29200   182.43480   191.50719     0.43404     0.43609    -0.24557
  E(xc)     -37.23630   -36.89685   -36.68106     0.01216     0.01040    -0.00647
  Local    -320.15096  -376.94117  -422.91644    -2.02832    -2.20846     1.18624
  n-local   -25.42508   -22.64911   -19.86302     0.09888     0.13364    -0.06372
  augment     1.14413     0.65691     0.37323    -0.01747    -0.01369     0.00901
  Kinetic   223.70855   198.09848   179.38662    -0.91627    -0.90031     0.51379
  Fock        0.00000     0.00000     0.00000     0.00000     0.00000     0.00000
  vdW         0.00000     0.00001     0.00102    -0.00000     0.00005    -0.00001
  -------------------------------------------------------------------------------------
  Total      -0.01520     0.25507     0.50700     0.00966     0.01206    -0.00600
  in kB      -0.00057     0.00953     0.01895     0.00036     0.00045    -0.00022
  external pressure =        0.01 kB  Pullay stress =        0.00 kB


 VOLUME and BASIS-vectors are now :
 -----------------------------------------------------------------------------
  energy-cutoff  :     1000.00
  volume of cell :    42875.00
      direct lattice vectors                 reciprocal lattice vectors
    35.000000000  0.000000000  0.000000000     0.028571429  0.000000000  0.000000000
     0.000000000 35.000000000  0.000000000     0.000000000  0.028571429  0.000000000
     0.000000000  0.000000000 35.000000000     0.000000000  0.000000000  0.028571429

  length of vectors
    35.000000000 35.000000000 35.000000000     0.028571429  0.028571429  0.028571429


 FORCES acting on ions
    electron-ion (+dipol)            ewald-force                    non-local-force                 convergence-correction
 -----------------------------------------------------------------------------------------------
   0.230E+01 0.626E+02 -.295E+01   -.422E+01 -.115E+03 0.540E+01   0.190E+01 0.517E+02 -.243E+01   -.151E-06 -.248E-05 0.100E-06
   -.268E+01 -.486E+02 0.750E+02   0.295E+01 0.536E+02 -.826E+02   -.260E+00 -.473E+01 0.718E+01   -.415E-07 -.658E-06 0.790E-06
   -.114E+01 -.555E+02 -.701E+02   0.126E+01 0.612E+02 0.772E+02   -.112E+00 -.539E+01 -.671E+01   -.248E-07 -.732E-06 -.726E-06
 -----------------------------------------------------------------------------------------------
   -.153E+01 -.415E+02 0.196E+01   -.222E-15 0.711E-14 0.000E+00   0.153E+01 0.415E+02 -.196E+01   -.217E-06 -.387E-05 0.164E-06
 
 
 POSITION                                       TOTAL-FORCE (eV/Angst)
 -----------------------------------------------------------------------------------
      0.00000      2.72721      0.00000        -0.016799     -0.457134      0.021521
      0.02970      3.28138     34.21499         0.012070      0.212235     -0.355064
      0.01365      3.35327      0.72944         0.004729      0.244899      0.333543
 -----------------------------------------------------------------------------------
    total drift:                                0.000020      0.000019      0.000002


--------------------------------------------------------------------------------------------------------



  FREE ENERGIE OF THE ION-ELECTRON SYSTEM (eV)
  ---------------------------------------------------
  free  energy   TOTEN  =       -14.29008277 eV

  energy  without entropy=      -14.29008277  energy(sigma->0) =      -14.29008277
 


--------------------------------------------------------------------------------------------------------


    POTLOK:  cpu time   13.0086: real time   13.0324


--------------------------------------------------------------------------------------------------------


 writing wavefunctions
     LOOP+:  cpu time 1253.1827: real time 1255.2114
    4ORBIT:  cpu time    0.0000: real time    0.0000

 total amount of memory used by VASP MPI-rank0  3934008. kBytes
=======================================================================

   base      :      30000. kBytes
   nonl-proj :     270904. kBytes
   fftplans  :     676185. kBytes
   grid      :    2932288. kBytes
   one-center:          4. kBytes
   wavefun   :      24627. kBytes
 
  
  
 General timing and accounting informations for this job:
 ========================================================
  
                  Total CPU time used (sec):     2337.508
                            User time (sec):     2184.491
                          System time (sec):      153.017
                         Elapsed time (sec):     2342.259
  
                   Maximum memory used (kb):     5323352.
                   Average memory used (kb):           0.
  
                          Minor page faults:     74209745
                          Major page faults:          846
                 Voluntary context switches:        14467
