 vasp.6.1.2 22Jul20 (build Jan  6 2021 09:55:43) gamma-only                      
 executed on             LinuxPGI date 2023.10.20  06:25:07
 running on   32 total cores
 distrk:  each k-point on   32 cores,    1 groups
 distr:  one band on NCORE=   1 cores,   32 groups


--------------------------------------------------------------------------------------------------------


 INCAR:
 POTCAR:    PAW_PBE H_h 06Feb2004                 
 POTCAR:    PAW_PBE C_h 06Feb2004                 
 POTCAR:    PAW_PBE O_h 06Feb2004                 
 -----------------------------------------------------------------------------
|                                                                             |
|           W    W    AA    RRRRR   N    N  II  N    N   GGGG   !!!           |
|           W    W   A  A   R    R  NN   N  II  NN   N  G    G  !!!           |
|           W    W  A    A  R    R  N N  N  II  N N  N  G       !!!           |
|           W WW W  AAAAAA  RRRRR   N  N N  II  N  N N  G  GGG   !            |
|           WW  WW  A    A  R   R   N   NN  II  N   NN  G    G                |
|           W    W  A    A  R    R  N    N  II  N    N   GGGG   !!!           |
|                                                                             |
|     For optimal performance we recommend to set                             |
|       NCORE = 4 - approx SQRT(number of cores).                             |
|     NCORE specifies how many cores store one orbital (NPAR=cpu/NCORE).      |
|     This setting can greatly improve the performance of VASP for DFT.       |
|     The default, NCORE=1 might be grossly inefficient on modern             |
|     multi-core architectures or massively parallel machines. Do your        |
|     own testing!!!!                                                         |
|     Unfortunately you need to use the default for GW and RPA                |
|     calculations (for HF NCORE is supported but not extensively tested      |
|     yet).                                                                   |
|                                                                             |
 -----------------------------------------------------------------------------

 POTCAR:    PAW_PBE H_h 06Feb2004                 
   VRHFIN =H: ultrasoft test                                                                        
   LEXCH  = PE                                                                                      
   EATOM  =    12.4884 eV,    0.9179 Ry                                                             
                                                                                                    
   TITEL  = PAW_PBE H_h 06Feb2004                                                                   
   LULTRA =        F    use ultrasoft PP ?                                                          
   IUNSCR =        0    unscreen: 0-lin 1-nonlin 2-no                                               
   RPACOR =    0.000    partial core radius                                                         
   POMASS =    1.000; ZVAL   =    1.000    mass and valenz                                          
   RCORE  =    0.800    outmost cutoff radius                                                       
   RWIGS  =    0.700; RWIGS  =    0.370    wigner-seitz radius (au A)                               
   ENMAX  =  700.000; ENMIN  =  350.000 eV                                                          
   RCLOC  =    0.701    cutoff for local pot                                                        
   LCOR   =        T    correct aug charges                                                         
   LPAW   =        T    paw PP                                                                      
   EAUG   = 1000.000                                                                                
   RMAX   =    0.819    core radius for proj-oper                                                   
   RAUG   =    1.000    factor for augmentation sphere                                              
   RDEP   =    0.817    radius for radial grids                                                     
   RDEPT  =    0.817    core radius for aug-charge                                                  
                                                                                                    
   Atomic configuration                                                                             
    2 entries                                                                                       
     n  l   j            E        occ.                                                              
     1  0  0.50        -6.4927   1.0000                                                             
     2  1  0.50        -3.4015   0.0000                                                             
   Description                                                                                      
     l       E           TYP  RCUT    TYP  RCUT                                                     
     0     -6.4927493     23  0.800                                                                 
     0      6.8029130     23  0.800                                                                 
     1     -6.8029130     23  0.800                                                                 
  local pseudopotential read in
  atomic valenz-charges read in
  non local Contribution for L=            0  read in
    real space projection operators read in
  non local Contribution for L=            0  read in
    real space projection operators read in
  non local Contribution for L=            1  read in
    real space projection operators read in
    PAW grid and wavefunctions read in
 
   number of l-projection  operators is LMAX  =            3
   number of lm-projection operators is LMMAX =            5
 
 POTCAR:    PAW_PBE C_h 06Feb2004                 
   VRHFIN =C: s2p2                                                                                  
   LEXCH  = PE                                                                                      
   EATOM  =   147.1560 eV,   10.8157 Ry                                                             
                                                                                                    
   TITEL  = PAW_PBE C_h 06Feb2004                                                                   
   LULTRA =        F    use ultrasoft PP ?                                                          
   IUNSCR =        1    unscreen: 0-lin 1-nonlin 2-no                                               
   RPACOR =    0.800    partial core radius                                                         
   POMASS =   12.011; ZVAL   =    4.000    mass and valenz                                          
   RCORE  =    1.100    outmost cutoff radius                                                       
   RWIGS  =    1.630; RWIGS  =    0.863    wigner-seitz radius (au A)                               
   ENMAX  =  700.000; ENMIN  =  500.000 eV                                                          
   ICORE  =        2    local potential                                                             
   LCOR   =        T    correct aug charges                                                         
   LPAW   =        T    paw PP                                                                      
   EAUG   =  946.768                                                                                
   DEXC   =    0.000                                                                                
   RMAX   =    1.128    core radius for proj-oper                                                   
   RAUG   =    1.300    factor for augmentation sphere                                              
   RDEP   =    1.162    radius for radial grids                                                     
   RDEPT  =    1.088    core radius for aug-charge                                                  
                                                                                                    
   Atomic configuration                                                                             
    4 entries                                                                                       
     n  l   j            E        occ.                                                              
     1  0  0.50      -273.3789   2.0000                                                             
     2  0  0.50       -13.7508   2.0000                                                             
     2  1  0.50        -5.2854   2.0000                                                             
     3  2  1.50        -5.4423   0.0000                                                             
   Description                                                                                      
     l       E           TYP  RCUT    TYP  RCUT                                                     
     0    -13.7508458     23  1.100                                                                 
     0     -8.2022199     23  1.100                                                                 
     1     -5.2854383     23  1.100                                                                 
     1      1.1560700     23  1.100                                                                 
     2     -5.4423304      7  1.100                                                                 
  local pseudopotential read in
  partial core-charges read in
  partial kinetic energy density read in
  atomic valenz-charges read in
  non local Contribution for L=            0  read in
    real space projection operators read in
  non local Contribution for L=            0  read in
    real space projection operators read in
  non local Contribution for L=            1  read in
    real space projection operators read in
  non local Contribution for L=            1  read in
    real space projection operators read in
    PAW grid and wavefunctions read in
 
   number of l-projection  operators is LMAX  =            4
   number of lm-projection operators is LMMAX =            8
 
 POTCAR:    PAW_PBE O_h 06Feb2004                 
   VRHFIN =O: s2p4                                                                                  
   LEXCH  = PE                                                                                      
   EATOM  =   432.3788 eV,   31.7789 Ry                                                             
                                                                                                    
   TITEL  = PAW_PBE O_h 06Feb2004                                                                   
   LULTRA =        F    use ultrasoft PP ?                                                          
   IUNSCR =        1    unscreen: 0-lin 1-nonlin 2-no                                               
   RPACOR =    0.800    partial core radius                                                         
   POMASS =   16.000; ZVAL   =    6.000    mass and valenz                                          
   RCORE  =    1.100    outmost cutoff radius                                                       
   RWIGS  =    1.400; RWIGS  =    0.741    wigner-seitz radius (au A)                               
   ENMAX  =  700.000; ENMIN  =  500.000 eV                                                          
   ICORE  =        2    local potential                                                             
   LCOR   =        T    correct aug charges                                                         
   LPAW   =        T    paw PP                                                                      
   EAUG   =  888.804                                                                                
   DEXC   =    0.000                                                                                
   RMAX   =    1.128    core radius for proj-oper                                                   
   RAUG   =    1.300    factor for augmentation sphere                                              
   RDEP   =    1.125    radius for radial grids                                                     
   RDEPT  =    1.088    core radius for aug-charge                                                  
                                                                                                    
   Atomic configuration                                                                             
    4 entries                                                                                       
     n  l   j            E        occ.                                                              
     1  0  0.50      -514.6923   2.0000                                                             
     2  0  0.50       -23.9615   2.0000                                                             
     2  1  0.50        -9.0305   4.0000                                                             
     3  2  1.50        -9.5241   0.0000                                                             
   Description                                                                                      
     l       E           TYP  RCUT    TYP  RCUT                                                     
     0    -23.9615319     23  1.100                                                                 
     0    -25.3221145     23  1.100                                                                 
     1     -9.0304911     23  1.100                                                                 
     1     -5.4802209     23  1.100                                                                 
     2     -9.5240782      7  1.100                                                                 
  local pseudopotential read in
  partial core-charges read in
  partial kinetic energy density read in
  atomic valenz-charges read in
  non local Contribution for L=            0  read in
    real space projection operators read in
  non local Contribution for L=            0  read in
    real space projection operators read in
  non local Contribution for L=            1  read in
    real space projection operators read in
  non local Contribution for L=            1  read in
    real space projection operators read in
    PAW grid and wavefunctions read in
 
   number of l-projection  operators is LMAX  =            4
   number of lm-projection operators is LMMAX =            8
 
  PAW_PBE H_h 06Feb2004                 :
 energy of atom  1       EATOM=  -12.4884
 kinetic energy error for atom=    0.0006 (will be added to EATOM!!)
  PAW_PBE C_h 06Feb2004                 :
 energy of atom  2       EATOM= -147.1560
 kinetic energy error for atom=    0.0031 (will be added to EATOM!!)
  PAW_PBE O_h 06Feb2004                 :
 energy of atom  3       EATOM= -432.3788
 kinetic energy error for atom=    0.0171 (will be added to EATOM!!)
 
 
 POSCAR:  H  C  O
  positions in cartesian coordinates
  No initial velocities read in
 exchange correlation table for  LEXCH =        8
   RHO(1)=    0.500       N(1)  =     2000
   RHO(2)=  100.500       N(2)  =     4000
 


--------------------------------------------------------------------------------------------------------


 ion  position               nearest neighbor table
   1  0.001  0.174  0.978-   5 0.96
   2  0.000  0.176  0.021-   5 0.96
   3  0.000  0.003  0.000-   4 1.14
   4  0.000  0.035  0.000-   3 1.14
   5  0.000  0.158  0.000-   2 0.96   1 0.96
 
  LATTYP: Found a simple cubic cell.
 ALAT       =    35.0000000000
  
  Lattice vectors:
  
 A1 = (  35.0000000000,   0.0000000000,   0.0000000000)
 A2 = (   0.0000000000,  35.0000000000,   0.0000000000)
 A3 = (   0.0000000000,   0.0000000000,  35.0000000000)


Analysis of symmetry for initial positions (statically):
=====================================================================
 Subroutine PRICEL returns:
 Original cell was already a primitive cell.
 

 Routine SETGRP: Setting up the symmetry group for a 
 simple cubic supercell.


 Subroutine GETGRP returns: Found  1 space group operations
 (whereof  1 operations were pure point group operations)
 out of a pool of 48 trial point group operations.


The static configuration has the point symmetry C_1 .


Analysis of symmetry for dynamics (positions and initial velocities):
=====================================================================
 Subroutine PRICEL returns:
 Original cell was already a primitive cell.
 

 Routine SETGRP: Setting up the symmetry group for a 
 simple cubic supercell.


 Subroutine GETGRP returns: Found  1 space group operations
 (whereof  1 operations were pure point group operations)
 out of a pool of 48 trial point group operations.


The dynamic configuration has the point symmetry C_1 .


 Subroutine INISYM returns: Found  1 space group operations
 (whereof  1 operations are pure point group operations),
 and found     1 'primitive' translations


----------------------------------------------------------------------------------------

                                     Primitive cell                                     

  volume of cell :   42875.0000

  direct lattice vectors                    reciprocal lattice vectors
    35.000000000  0.000000000  0.000000000     0.028571429  0.000000000  0.000000000
     0.000000000 35.000000000  0.000000000     0.000000000  0.028571429  0.000000000
     0.000000000  0.000000000 35.000000000     0.000000000  0.000000000  0.028571429

  length of vectors
    35.000000000 35.000000000 35.000000000     0.028571429  0.028571429  0.028571429

  position of ions in fractional coordinates (direct lattice)
     0.000848682  0.173753642  0.977571084
     0.000390051  0.175807815  0.020841195
     0.000000000  0.002521600  0.000000000
     0.000000000  0.035063029  0.000000000
     0.000000000  0.157920171  0.000000000

  ion indices of the primitive-cell ions
   primitive index   ion index
                 1           1
                 2           2
                 3           3
                 4           4
                 5           5

----------------------------------------------------------------------------------------

 
 
 KPOINTS: g                                       

Automatic generation of k-mesh.
Space group operators:
 irot       det(A)        alpha          n_x          n_y          n_z        tau_x        tau_y        tau_z
    1     1.000000     0.000000     1.000000     0.000000     0.000000     0.000000     0.000000     0.000000
 
 Subroutine IBZKPT returns following result:
 ===========================================
 
 Found      1 irreducible k-points:
 
 Following reciprocal coordinates:
            Coordinates               Weight
  0.000000  0.000000  0.000000      1.000000
 
 Following cartesian coordinates:
            Coordinates               Weight
  0.000000  0.000000  0.000000      1.000000
 


--------------------------------------------------------------------------------------------------------




 Dimension of arrays:
   k-points           NKPTS =      1   k-points in BZ     NKDIM =      1   number of bands    NBANDS=     32
   number of dos      NEDOS =    301   number of ions     NIONS =      5
   non local maximal  LDIM  =      4   non local SUM 2l+1 LMDIM =      8
   total plane-waves  NPLWV = ******
   max r-space proj   IRMAX =      1   max aug-charges    IRDMAX=   9386
   dimension x,y,z NGX =   378 NGY =  378 NGZ =  378
   dimension x,y,z NGXF=   756 NGYF=  756 NGZF=  756
   support grid    NGXF=   756 NGYF=  756 NGZF=  756
   ions per type =               2   1   2
   NGX,Y,Z   is equivalent  to a cutoff of  17.95, 17.95, 17.95 a.u.
   NGXF,Y,Z  is equivalent  to a cutoff of  35.91, 35.91, 35.91 a.u.

 SYSTEM =  C                                       
 POSCAR =   H  C  O                                

 Startparameter for this run:
   NWRITE =      2    write-flag & timer
   PREC   = acc       normal or accurate (medium, high low for compatibility)
   ISTART =      0    job   : 0-new  1-cont  2-samecut
   ICHARG =      2    charge: 1-file 2-atom 10-const
   ISPIN  =      1    spin polarized calculation?
   LNONCOLLINEAR =      F non collinear calculations
   LSORBIT =      F    spin-orbit coupling
   INIWAV =      1    electr: 0-lowe 1-rand  2-diag
   LASPH  =      T    aspherical Exc in radial PAW
   METAGGA=      F    non-selfconsistent MetaGGA calc.

 Electronic Relaxation 1
   ENCUT  = 1000.0 eV  73.50 Ry    8.57 a.u.  90.25 90.25 90.25*2*pi/ulx,y,z
   ENINI  = 1000.0     initial cutoff
   ENAUG  = 1000.0 eV  augmentation charge cutoff
   NELM   =     60;   NELMIN=  2; NELMDL= -5     # of ELM steps 
   EDIFF  = 0.1E-06   stopping-criterion for ELM
   LREAL  =      F    real-space projection
   NLSPLINE    = F    spline interpolate recip. space projectors
   LCOMPAT=      F    compatible to vasp.4.4
   GGA_COMPAT  = T    GGA compatible to vasp.4.4-vasp.4.6
   LMAXPAW     = -100 max onsite density
   LMAXMIX     =    2 max onsite mixed and CHGCAR
   VOSKOWN=      0    Vosko Wilk Nusair interpolation
   ROPT   =    0.00000   0.00000   0.00000
 Ionic relaxation
   EDIFFG = 0.1E-05   stopping-criterion for IOM
   NSW    =      0    number of steps for IOM
   NBLOCK =      1;   KBLOCK =      1    inner block; outer block 
   IBRION =     -1    ionic relax: 0-MD 1-quasi-New 2-CG
   NFREE  =      0    steps in history (QN), initial steepest desc. (CG)
   ISIF   =      2    stress and relaxation
   IWAVPR =     10    prediction:  0-non 1-charg 2-wave 3-comb
   ISYM   =      2    0-nonsym 1-usesym 2-fastsym
   LCORR  =      T    Harris-Foulkes like correction to forces

   POTIM  = 0.5000    time-step for ionic-motion
   TEIN   =    0.0    initial temperature
   TEBEG  =    0.0;   TEEND  =   0.0 temperature during run
   SMASS  =  -3.00    Nose mass-parameter (am)
   estimated Nose-frequenzy (Omega)   =  0.10E-29 period in steps = 0.13E+47 mass=  -0.280E-25a.u.
   SCALEE = 1.0000    scale energy and forces
   NPACO  =    256;   APACO  = 16.0  distance and # of slots for P.C.
   PSTRESS=    0.0 pullay stress

  Mass of Ions in am
   POMASS =   1.00 12.01 16.00
  Ionic Valenz
   ZVAL   =   1.00  4.00  6.00
  Atomic Wigner-Seitz radii
   RWIGS  =  -1.00 -1.00 -1.00
  virtual crystal weights 
   VCA    =   1.00  1.00  1.00
   NELECT =      18.0000    total number of electrons
   NUPDOWN=      -1.0000    fix difference up-down

 DOS related values:
   EMIN   =  10.00;   EMAX   =-10.00  energy-range for DOS
   EFERMI =   0.00
   ISMEAR =     0;   SIGMA  =   0.01  broadening in eV -4-tet -1-fermi 0-gaus

 Electronic relaxation 2 (details)
   IALGO  =     38    algorithm
   LDIAG  =      T    sub-space diagonalisation (order eigenvalues)
   LSUBROT=      F    optimize rotation matrix (better conditioning)
   TURBO    =      0    0=normal 1=particle mesh
   IRESTART =      0    0=no restart 2=restart with 2 vectors
   NREBOOT  =      0    no. of reboots
   NMIN     =      0    reboot dimension
   EREF     =   0.00    reference energy to select bands
   IMIX   =      4    mixing-type and parameters
     AMIX     =   0.40;   BMIX     =  1.00
     AMIX_MAG =   1.60;   BMIX_MAG =  1.00
     AMIN     =   0.10
     WC   =   100.;   INIMIX=   1;  MIXPRE=   1;  MAXMIX= -45

 Intra band minimization:
   WEIMIN = 0.0000     energy-eigenvalue tresh-hold
   EBREAK =  0.78E-09  absolut break condition
   DEPER  =   0.30     relativ break condition  

   TIME   =   0.40     timestep for ELM

  volume/ion in A,a.u.               =    8575.00     57866.96
  Fermi-wavevector in a.u.,A,eV,Ry     =   0.122583  0.231649  0.204450  0.015027
  Thomas-Fermi vector in A             =   0.746568
 
 Write flags
   LWAVE        =      T    write WAVECAR
   LDOWNSAMPLE  =      F    k-point downsampling of WAVECAR
   LCHARG       =      T    write CHGCAR
   LVTOT        =      F    write LOCPOT, total local potential
   LVHAR        =      F    write LOCPOT, Hartree potential only
   LELF         =      F    write electronic localiz. function (ELF)
   LORBIT       =      0    0 simple, 1 ext, 2 COOP (PROOUT), +10 PAW based schemes


 Dipole corrections
   LMONO  =      F    monopole corrections only (constant potential shift)
   LDIPOL =      F    correct potential (dipole corrections)
   IDIPOL =      4    1-x, 2-y, 3-z, 4-all directions 
   EPSILON=  1.0000000 bulk dielectric constant

 Exchange correlation treatment:
   GGA     =    --    GGA type
   LEXCH   =     8    internal setting for exchange type
   VOSKOWN=      0    Vosko Wilk Nusair interpolation
   LHFCALC =     F    Hartree Fock is set to
   LHFONE  =     F    Hartree Fock one center treatment
   AEXX    =    0.0000 exact exchange contribution

 Linear response parameters
   LEPSILON=     F    determine dielectric tensor
   LRPA    =     F    only Hartree local field effects (RPA)
   LNABLA  =     F    use nabla operator in PAW spheres
   LVEL    =     F    velocity operator in full k-point grid
   LINTERFAST=   F  fast interpolation
   KINTER  =     0    interpolate to denser k-point grid
   CSHIFT  =0.1000    complex shift for real part using Kramers Kronig
   OMEGAMAX=  -1.0    maximum frequency
   DEG_THRESHOLD= 0.2000000E-02 threshold for treating states as degnerate
   RTIME   =   -0.100 relaxation time in fs
  (WPLASMAI=    0.000 imaginary part of plasma frequency in eV, 0.658/RTIME)
   DFIELD  = 0.0000000 0.0000000 0.0000000 field for delta impulse in time
 
 Orbital magnetization related:
   ORBITALMAG=     F  switch on orbital magnetization
   LCHIMAG   =     F  perturbation theory with respect to B field
   DQ        =  0.001000  dq finite difference perturbation B field
   LLRAUG    =     F  two centre corrections for induced B field



--------------------------------------------------------------------------------------------------------


 Static calculation
 charge density and potential will be updated during run
 non-spin polarized calculation
 Variant of blocked Davidson
 Davidson routine will perform the subspace rotation
 perform sub-space diagonalisation
    after iterative eigenvector-optimisation
 modified Broyden-mixing scheme, WC =      100.0
 initial mixing is a Kerker type mixing with AMIX =  0.4000 and BMIX =      1.0000
 Hartree-type preconditioning will be used
 using additional bands            23
 reciprocal scheme for non local part
 use partial core corrections
 calculate Harris-corrections to forces 
   (improved forces if not selfconsistent)
 use gradient corrections 
 use of overlap-Matrix (Vanderbilt PP)
 Gauss-broadening in eV      SIGMA  =   0.01


--------------------------------------------------------------------------------------------------------


  energy-cutoff  :     1000.00
  volume of cell :    42875.00
      direct lattice vectors                 reciprocal lattice vectors
    35.000000000  0.000000000  0.000000000     0.028571429  0.000000000  0.000000000
     0.000000000 35.000000000  0.000000000     0.000000000  0.028571429  0.000000000
     0.000000000  0.000000000 35.000000000     0.000000000  0.000000000  0.028571429

  length of vectors
    35.000000000 35.000000000 35.000000000     0.028571429  0.028571429  0.028571429


 
 k-points in units of 2pi/SCALE and weight: g                                       
   0.00000000  0.00000000  0.00000000       1.000
 
 k-points in reciprocal lattice and weights: g                                       
   0.00000000  0.00000000  0.00000000       1.000
 
 position of ions in fractional coordinates (direct lattice) 
   0.00084868  0.17375364  0.97757108
   0.00039005  0.17580781  0.02084119
   0.00000000  0.00252160  0.00000000
   0.00000000  0.03506303  0.00000000
   0.00000000  0.15792017  0.00000000
 
 position of ions in cartesian coordinates  (Angst):
   0.02970387  6.08137746 34.21498793
   0.01365177  6.15327352  0.72944182
   0.00000000  0.08825600  0.00000000
   0.00000000  1.22720600  0.00000000
   0.00000000  5.52720600  0.00000000
 


--------------------------------------------------------------------------------------------------------


 use serial FFT for orbitals x direction half grid
 k-point   1 :   0.0000 0.0000 0.0000  plane waves: 1539209

 maximum and minimum number of plane-waves per node :   1539209  1539209

 maximum number of plane-waves:   1539209
 maximum index in each direction: 
   IXMAX=   90   IYMAX=   90   IZMAX=   90
   IXMIN=    0   IYMIN=  -90   IZMIN=  -90


 serial   3D FFT for wavefunctions
 parallel 3D FFT for charge:
    minimum data exchange during FFTs selected (reduces bandwidth)


 total amount of memory used by VASP MPI-rank0  4191804. kBytes
=======================================================================

   base      :      30000. kBytes
   nonl-proj :     418671. kBytes
   fftplans  :     676185. kBytes
   grid      :    3042313. kBytes
   one-center:          7. kBytes
   wavefun   :      24628. kBytes
 
     INWAV:  cpu time    0.0001: real time    0.0000
 Broyden mixing: mesh for mixing (old mesh)
   NGX =181   NGY =181   NGZ =181
  (NGX  =756   NGY  =756   NGZ  =756)
  gives a total of ****** points

 initial charge density was supplied:
 charge density of overlapping atoms calculated
 number of electron      18.0000000 magnetization 
 keeping initial charge density in first step


--------------------------------------------------------------------------------------------------------


 Maximum index for augmentation-charges           520 (set IRDMAX)


--------------------------------------------------------------------------------------------------------


 First call to EWALD:  gamma=   0.051
 Maximum number of real-space cells 3x 3x 3
 Maximum number of reciprocal cells 3x 3x 3

    FEWALD:  cpu time    0.0013: real time    0.0013


--------------------------------------- Iteration      1(   1)  ---------------------------------------


    POTLOK:  cpu time   13.0099: real time   13.0311
    SETDIJ:  cpu time    0.0405: real time    0.0409
     EDDAV:  cpu time   14.7878: real time   14.8322
       DOS:  cpu time    0.0073: real time    0.0074
    --------------------------------------------
      LOOP:  cpu time   27.8455: real time   27.9116

 eigenvalue-minimisations  :    96
 total energy-change (2. order) : 0.1662206E+03  (-0.2880998E+03)
 number of electron      18.0000000 magnetization 
 augmentation part       18.0000000 magnetization 

 Free energy of the ion-electron system (eV)
  ---------------------------------------------------
  alpha Z        PSCENC =         0.02084913
  Ewald energy   TEWEN  =       542.99519667
  -Hartree energ DENC   =     -1357.28729192
  -exchange      EXHF   =         0.00000000
  -V(xc)+E(xc)   XCENC  =        62.11655547
  PAW double counting   =       810.18903546     -807.36841507
  entropy T*S    EENTRO =        -0.00000466
  eigenvalues    EBANDS =      -121.29725514
  atomic energy  EATOM  =      1036.85193878
  Solvation  Ediel_sol  =         0.00000000
  ---------------------------------------------------
  free energy    TOTEN  =       166.22060871 eV

  energy without entropy =      166.22061337  energy(sigma->0) =      166.22061104


--------------------------------------------------------------------------------------------------------




--------------------------------------- Iteration      1(   2)  ---------------------------------------


     EDDAV:  cpu time   18.4311: real time   18.4824
       DOS:  cpu time    0.0076: real time    0.0076
    --------------------------------------------
      LOOP:  cpu time   18.4387: real time   18.4900

 eigenvalue-minimisations  :   128
 total energy-change (2. order) :-0.1129923E+03  (-0.1129922E+03)
 number of electron      18.0000000 magnetization 
 augmentation part       18.0000000 magnetization 

 Free energy of the ion-electron system (eV)
  ---------------------------------------------------
  alpha Z        PSCENC =         0.02084913
  Ewald energy   TEWEN  =       542.99519667
  -Hartree energ DENC   =     -1357.28729192
  -exchange      EXHF   =         0.00000000
  -V(xc)+E(xc)   XCENC  =        62.11655547
  PAW double counting   =       810.18903546     -807.36841507
  entropy T*S    EENTRO =        -0.00000000
  eigenvalues    EBANDS =      -234.28958044
  atomic energy  EATOM  =      1036.85193878
  Solvation  Ediel_sol  =         0.00000000
  ---------------------------------------------------
  free energy    TOTEN  =        53.22828808 eV

  energy without entropy =       53.22828808  energy(sigma->0) =       53.22828808


--------------------------------------------------------------------------------------------------------




--------------------------------------- Iteration      1(   3)  ---------------------------------------


     EDDAV:  cpu time   14.8024: real time   14.8369
       DOS:  cpu time    0.0197: real time    0.0198
    --------------------------------------------
      LOOP:  cpu time   14.8221: real time   14.8567

 eigenvalue-minimisations  :    96
 total energy-change (2. order) :-0.7465099E+02  (-0.7465099E+02)
 number of electron      18.0000000 magnetization 
 augmentation part       18.0000000 magnetization 

 Free energy of the ion-electron system (eV)
  ---------------------------------------------------
  alpha Z        PSCENC =         0.02084913
  Ewald energy   TEWEN  =       542.99519667
  -Hartree energ DENC   =     -1357.28729192
  -exchange      EXHF   =         0.00000000
  -V(xc)+E(xc)   XCENC  =        62.11655547
  PAW double counting   =       810.18903546     -807.36841507
  entropy T*S    EENTRO =        -0.00000000
  eigenvalues    EBANDS =      -308.94057222
  atomic energy  EATOM  =      1036.85193878
  Solvation  Ediel_sol  =         0.00000000
  ---------------------------------------------------
  free energy    TOTEN  =       -21.42270370 eV

  energy without entropy =      -21.42270370  energy(sigma->0) =      -21.42270370


--------------------------------------------------------------------------------------------------------




--------------------------------------- Iteration      1(   4)  ---------------------------------------


     EDDAV:  cpu time   18.4385: real time   18.4735
       DOS:  cpu time    0.0228: real time    0.0228
    --------------------------------------------
      LOOP:  cpu time   18.4613: real time   18.4963

 eigenvalue-minimisations  :   128
 total energy-change (2. order) :-0.1068653E+02  (-0.1068653E+02)
 number of electron      18.0000000 magnetization 
 augmentation part       18.0000000 magnetization 

 Free energy of the ion-electron system (eV)
  ---------------------------------------------------
  alpha Z        PSCENC =         0.02084913
  Ewald energy   TEWEN  =       542.99519667
  -Hartree energ DENC   =     -1357.28729192
  -exchange      EXHF   =         0.00000000
  -V(xc)+E(xc)   XCENC  =        62.11655547
  PAW double counting   =       810.18903546     -807.36841507
  entropy T*S    EENTRO =        -0.00000000
  eigenvalues    EBANDS =      -319.62709843
  atomic energy  EATOM  =      1036.85193878
  Solvation  Ediel_sol  =         0.00000000
  ---------------------------------------------------
  free energy    TOTEN  =       -32.10922991 eV

  energy without entropy =      -32.10922991  energy(sigma->0) =      -32.10922991


--------------------------------------------------------------------------------------------------------




--------------------------------------- Iteration      1(   5)  ---------------------------------------


     EDDAV:  cpu time   14.7405: real time   14.7722
       DOS:  cpu time    0.0157: real time    0.0157
    CHARGE:  cpu time    5.2985: real time    5.3055
    MIXING:  cpu time    0.2381: real time    0.2385
    --------------------------------------------
      LOOP:  cpu time   20.2929: real time   20.3319

 eigenvalue-minimisations  :    96
 total energy-change (2. order) :-0.6748686E-01  (-0.6748686E-01)
 number of electron      18.0000000 magnetization 
 augmentation part        0.1360617 magnetization 

 Broyden mixing:
  rms(total) = 0.29842E+01    rms(broyden)= 0.29841E+01
  rms(prec ) = 0.29942E+01
  weight for this iteration     100.00

 Free energy of the ion-electron system (eV)
  ---------------------------------------------------
  alpha Z        PSCENC =         0.02084913
  Ewald energy   TEWEN  =       542.99519667
  -Hartree energ DENC   =     -1357.28729192
  -exchange      EXHF   =         0.00000000
  -V(xc)+E(xc)   XCENC  =        62.11655547
  PAW double counting   =       810.18903546     -807.36841507
  entropy T*S    EENTRO =        -0.00000000
  eigenvalues    EBANDS =      -319.69458529
  atomic energy  EATOM  =      1036.85193878
  Solvation  Ediel_sol  =         0.00000000
  ---------------------------------------------------
  free energy    TOTEN  =       -32.17671677 eV

  energy without entropy =      -32.17671677  energy(sigma->0) =      -32.17671677


--------------------------------------------------------------------------------------------------------




--------------------------------------- Iteration      1(   6)  ---------------------------------------


    POTLOK:  cpu time   12.7671: real time   12.7879
    SETDIJ:  cpu time    0.0400: real time    0.0400
     EDDAV:  cpu time   11.2094: real time   11.2307
       DOS:  cpu time    0.0183: real time    0.0183
    CHARGE:  cpu time    5.1902: real time    5.1972
    MIXING:  cpu time    0.2460: real time    0.2491
    --------------------------------------------
      LOOP:  cpu time   29.4711: real time   29.5232

 eigenvalue-minimisations  :    64
 total energy-change (2. order) : 0.2589331E+01  (-0.1316821E+01)
 number of electron      18.0000000 magnetization 
 augmentation part        0.0606606 magnetization 

 Broyden mixing:
  rms(total) = 0.23402E+01    rms(broyden)= 0.23402E+01
  rms(prec ) = 0.23418E+01
  weight for this iteration     100.00

 eigenvalues of (default mixing * dielectric matrix)
  average eigenvalue GAMMA=   1.3764
  1.3764

 Free energy of the ion-electron system (eV)
  ---------------------------------------------------
  alpha Z        PSCENC =         0.02084913
  Ewald energy   TEWEN  =       542.99519667
  -Hartree energ DENC   =     -1396.49515924
  -exchange      EXHF   =         0.00000000
  -V(xc)+E(xc)   XCENC  =        64.26031475
  PAW double counting   =      2581.10957987    -2578.85339292
  entropy T*S    EENTRO =        -0.00000000
  eigenvalues    EBANDS =      -279.47671300
  atomic energy  EATOM  =      1036.85193878
  Solvation  Ediel_sol  =         0.00000000
  ---------------------------------------------------
  free energy    TOTEN  =       -29.58738596 eV

  energy without entropy =      -29.58738596  energy(sigma->0) =      -29.58738596


--------------------------------------------------------------------------------------------------------




--------------------------------------- Iteration      1(   7)  ---------------------------------------


    POTLOK:  cpu time   12.8646: real time   12.8856
    SETDIJ:  cpu time    0.0400: real time    0.0400
     EDDAV:  cpu time   14.7972: real time   14.8335
       DOS:  cpu time    0.0100: real time    0.0100
    CHARGE:  cpu time    5.1157: real time    5.1222
    MIXING:  cpu time    0.2780: real time    0.2794
    --------------------------------------------
      LOOP:  cpu time   33.1056: real time   33.1708

 eigenvalue-minimisations  :    96
 total energy-change (2. order) : 0.2698586E+00  (-0.1439067E+00)
 number of electron      18.0000000 magnetization 
 augmentation part        0.0720646 magnetization 

 Broyden mixing:
  rms(total) = 0.99547E+00    rms(broyden)= 0.99547E+00
  rms(prec ) = 0.99658E+00
  weight for this iteration     100.00

 eigenvalues of (default mixing * dielectric matrix)
  average eigenvalue GAMMA=   1.6432
  0.9619  2.3245

 Free energy of the ion-electron system (eV)
  ---------------------------------------------------
  alpha Z        PSCENC =         0.02084913
  Ewald energy   TEWEN  =       542.99519667
  -Hartree energ DENC   =     -1404.77849679
  -exchange      EXHF   =         0.00000000
  -V(xc)+E(xc)   XCENC  =        64.73982827
  PAW double counting   =      5931.89494556    -5929.63344157
  entropy T*S    EENTRO =        -0.00000000
  eigenvalues    EBANDS =      -271.40834743
  atomic energy  EATOM  =      1036.85193878
  Solvation  Ediel_sol  =         0.00000000
  ---------------------------------------------------
  free energy    TOTEN  =       -29.31752739 eV

  energy without entropy =      -29.31752739  energy(sigma->0) =      -29.31752739


--------------------------------------------------------------------------------------------------------




--------------------------------------- Iteration      1(   8)  ---------------------------------------


    POTLOK:  cpu time   12.8001: real time   12.8210
    SETDIJ:  cpu time    0.0401: real time    0.0401
     EDDAV:  cpu time   18.3626: real time   18.4086
       DOS:  cpu time    0.0058: real time    0.0058
    CHARGE:  cpu time    5.1989: real time    5.2101
    MIXING:  cpu time    0.2544: real time    0.2549
    --------------------------------------------
      LOOP:  cpu time   36.6618: real time   36.7404

 eigenvalue-minimisations  :   128
 total energy-change (2. order) : 0.9002738E-01  (-0.6033338E-01)
 number of electron      18.0000000 magnetization 
 augmentation part        0.0621823 magnetization 

 Broyden mixing:
  rms(total) = 0.22409E+00    rms(broyden)= 0.22408E+00
  rms(prec ) = 0.22527E+00
  weight for this iteration     100.00

 eigenvalues of (default mixing * dielectric matrix)
  average eigenvalue GAMMA=   1.3733
  2.5081  0.8799  0.7319

 Free energy of the ion-electron system (eV)
  ---------------------------------------------------
  alpha Z        PSCENC =         0.02084913
  Ewald energy   TEWEN  =       542.99519667
  -Hartree energ DENC   =     -1414.04740599
  -exchange      EXHF   =         0.00000000
  -V(xc)+E(xc)   XCENC  =        65.26347300
  PAW double counting   =      9330.83128621    -9328.59904989
  entropy T*S    EENTRO =        -0.00000000
  eigenvalues    EBANDS =      -262.54378790
  atomic energy  EATOM  =      1036.85193878
  Solvation  Ediel_sol  =         0.00000000
  ---------------------------------------------------
  free energy    TOTEN  =       -29.22750001 eV

  energy without entropy =      -29.22750001  energy(sigma->0) =      -29.22750001


--------------------------------------------------------------------------------------------------------




--------------------------------------- Iteration      1(   9)  ---------------------------------------


    POTLOK:  cpu time   12.8673: real time   12.8884
    SETDIJ:  cpu time    0.0400: real time    0.0400
     EDDAV:  cpu time   18.3341: real time   18.3771
       DOS:  cpu time    0.0091: real time    0.0091
    CHARGE:  cpu time    5.1980: real time    5.2077
    MIXING:  cpu time    0.2485: real time    0.2489
    --------------------------------------------
      LOOP:  cpu time   36.6970: real time   36.7712

 eigenvalue-minimisations  :   128
 total energy-change (2. order) : 0.1160980E-01  (-0.8309522E-02)
 number of electron      18.0000000 magnetization 
 augmentation part        0.0653123 magnetization 

 Broyden mixing:
  rms(total) = 0.12162E+00    rms(broyden)= 0.12162E+00
  rms(prec ) = 0.12222E+00
  weight for this iteration     100.00

 eigenvalues of (default mixing * dielectric matrix)
  average eigenvalue GAMMA=   1.4609
  2.5105  1.2747  1.2747  0.7837

 Free energy of the ion-electron system (eV)
  ---------------------------------------------------
  alpha Z        PSCENC =         0.02084913
  Ewald energy   TEWEN  =       542.99519667
  -Hartree energ DENC   =     -1413.94933666
  -exchange      EXHF   =         0.00000000
  -V(xc)+E(xc)   XCENC  =        65.24807902
  PAW double counting   =      9719.58712068    -9717.33366292
  entropy T*S    EENTRO =        -0.00000000
  eigenvalues    EBANDS =      -262.63607490
  atomic energy  EATOM  =      1036.85193878
  Solvation  Ediel_sol  =         0.00000000
  ---------------------------------------------------
  free energy    TOTEN  =       -29.21589021 eV

  energy without entropy =      -29.21589021  energy(sigma->0) =      -29.21589021


--------------------------------------------------------------------------------------------------------




--------------------------------------- Iteration      1(  10)  ---------------------------------------


    POTLOK:  cpu time   12.8484: real time   12.8711
    SETDIJ:  cpu time    0.0400: real time    0.0400
     EDDAV:  cpu time   11.2196: real time   11.2421
       DOS:  cpu time    0.0087: real time    0.0087
    CHARGE:  cpu time    5.1687: real time    5.1755
    MIXING:  cpu time    0.2680: real time    0.2685
    --------------------------------------------
      LOOP:  cpu time   29.5534: real time   29.6060

 eigenvalue-minimisations  :    64
 total energy-change (2. order) :-0.4087457E-02  (-0.5813192E-03)
 number of electron      18.0000000 magnetization 
 augmentation part        0.0654305 magnetization 

 Broyden mixing:
  rms(total) = 0.43863E-01    rms(broyden)= 0.43863E-01
  rms(prec ) = 0.44623E-01
  weight for this iteration     100.00

 eigenvalues of (default mixing * dielectric matrix)
  average eigenvalue GAMMA=   1.4894
  2.5458  2.1226  1.1385  0.8201  0.8201

 Free energy of the ion-electron system (eV)
  ---------------------------------------------------
  alpha Z        PSCENC =         0.02084913
  Ewald energy   TEWEN  =       542.99519667
  -Hartree energ DENC   =     -1414.35427415
  -exchange      EXHF   =         0.00000000
  -V(xc)+E(xc)   XCENC  =        65.23114320
  PAW double counting   =      9616.02606028    -9613.76135303
  entropy T*S    EENTRO =        -0.00000000
  eigenvalues    EBANDS =      -262.22953854
  atomic energy  EATOM  =      1036.85193878
  Solvation  Ediel_sol  =         0.00000000
  ---------------------------------------------------
  free energy    TOTEN  =       -29.21997767 eV

  energy without entropy =      -29.21997767  energy(sigma->0) =      -29.21997767


--------------------------------------------------------------------------------------------------------




--------------------------------------- Iteration      1(  11)  ---------------------------------------


    POTLOK:  cpu time   12.8472: real time   12.8694
    SETDIJ:  cpu time    0.0400: real time    0.0401
     EDDAV:  cpu time   14.7773: real time   14.8080
       DOS:  cpu time    0.0169: real time    0.0169
    CHARGE:  cpu time    5.1340: real time    5.1408
    MIXING:  cpu time    0.2736: real time    0.2741
    --------------------------------------------
      LOOP:  cpu time   33.0891: real time   33.1492

 eigenvalue-minimisations  :    96
 total energy-change (2. order) :-0.4128366E-02  (-0.1444868E-03)
 number of electron      18.0000000 magnetization 
 augmentation part        0.0654506 magnetization 

 Broyden mixing:
  rms(total) = 0.20259E-01    rms(broyden)= 0.20259E-01
  rms(prec ) = 0.21138E-01
  weight for this iteration     100.00

 eigenvalues of (default mixing * dielectric matrix)
  average eigenvalue GAMMA=   1.4530
  2.3475  2.3475  1.1297  1.1297  0.7765  0.9873

 Free energy of the ion-electron system (eV)
  ---------------------------------------------------
  alpha Z        PSCENC =         0.02084913
  Ewald energy   TEWEN  =       542.99519667
  -Hartree energ DENC   =     -1414.83233590
  -exchange      EXHF   =         0.00000000
  -V(xc)+E(xc)   XCENC  =        65.22736781
  PAW double counting   =      9552.37859936    -9550.10935010
  entropy T*S    EENTRO =        -0.00000000
  eigenvalues    EBANDS =      -261.75637176
  atomic energy  EATOM  =      1036.85193878
  Solvation  Ediel_sol  =         0.00000000
  ---------------------------------------------------
  free energy    TOTEN  =       -29.22410603 eV

  energy without entropy =      -29.22410603  energy(sigma->0) =      -29.22410603


--------------------------------------------------------------------------------------------------------




--------------------------------------- Iteration      1(  12)  ---------------------------------------


    POTLOK:  cpu time   12.8064: real time   12.8280
    SETDIJ:  cpu time    0.0400: real time    0.0400
     EDDAV:  cpu time   11.2063: real time   11.2356
       DOS:  cpu time    0.0019: real time    0.0019
    CHARGE:  cpu time    5.2053: real time    5.2121
    MIXING:  cpu time    0.2788: real time    0.2794
    --------------------------------------------
      LOOP:  cpu time   29.5387: real time   29.5970

 eigenvalue-minimisations  :    64
 total energy-change (2. order) :-0.2971428E-02  (-0.2241825E-04)
 number of electron      18.0000000 magnetization 
 augmentation part        0.0654074 magnetization 

 Broyden mixing:
  rms(total) = 0.87386E-02    rms(broyden)= 0.87386E-02
  rms(prec ) = 0.10173E-01
  weight for this iteration     100.00

 eigenvalues of (default mixing * dielectric matrix)
  average eigenvalue GAMMA=   1.5690
  2.9847  2.4821  1.4105  1.4105  1.0389  0.7840  0.8725

 Free energy of the ion-electron system (eV)
  ---------------------------------------------------
  alpha Z        PSCENC =         0.02084913
  Ewald energy   TEWEN  =       542.99519667
  -Hartree energ DENC   =     -1415.06735296
  -exchange      EXHF   =         0.00000000
  -V(xc)+E(xc)   XCENC  =        65.22534922
  PAW double counting   =      9470.56665180    -9468.29780607
  entropy T*S    EENTRO =        -0.00000000
  eigenvalues    EBANDS =      -261.52190403
  atomic energy  EATOM  =      1036.85193878
  Solvation  Ediel_sol  =         0.00000000
  ---------------------------------------------------
  free energy    TOTEN  =       -29.22707746 eV

  energy without entropy =      -29.22707746  energy(sigma->0) =      -29.22707746


--------------------------------------------------------------------------------------------------------




--------------------------------------- Iteration      1(  13)  ---------------------------------------


    POTLOK:  cpu time   12.8673: real time   12.8893
    SETDIJ:  cpu time    0.0400: real time    0.0400
     EDDAV:  cpu time   11.2242: real time   11.2554
       DOS:  cpu time    0.0116: real time    0.0116
    CHARGE:  cpu time    5.1567: real time    5.1709
    MIXING:  cpu time    0.2818: real time    0.2824
    --------------------------------------------
      LOOP:  cpu time   29.5817: real time   29.6496

 eigenvalue-minimisations  :    64
 total energy-change (2. order) :-0.4546103E-02  (-0.1005716E-03)
 number of electron      18.0000000 magnetization 
 augmentation part        0.0653368 magnetization 

 Broyden mixing:
  rms(total) = 0.32770E-02    rms(broyden)= 0.32769E-02
  rms(prec ) = 0.45955E-02
  weight for this iteration     100.00

 eigenvalues of (default mixing * dielectric matrix)
  average eigenvalue GAMMA=   1.5002
  3.1068  2.4046  1.4889  1.4889  1.0442  0.7744  0.8468  0.8468

 Free energy of the ion-electron system (eV)
  ---------------------------------------------------
  alpha Z        PSCENC =         0.02084913
  Ewald energy   TEWEN  =       542.99519667
  -Hartree energ DENC   =     -1415.85769340
  -exchange      EXHF   =         0.00000000
  -V(xc)+E(xc)   XCENC  =        65.23762435
  PAW double counting   =      9477.99532904    -9475.72566784
  entropy T*S    EENTRO =        -0.00000000
  eigenvalues    EBANDS =      -260.74920028
  atomic energy  EATOM  =      1036.85193878
  Solvation  Ediel_sol  =         0.00000000
  ---------------------------------------------------
  free energy    TOTEN  =       -29.23162356 eV

  energy without entropy =      -29.23162356  energy(sigma->0) =      -29.23162356


--------------------------------------------------------------------------------------------------------




--------------------------------------- Iteration      1(  14)  ---------------------------------------


    POTLOK:  cpu time   12.8054: real time   12.8322
    SETDIJ:  cpu time    0.0401: real time    0.0401
     EDDAV:  cpu time   14.7889: real time   14.8184
       DOS:  cpu time    0.0102: real time    0.0102
    CHARGE:  cpu time    5.1926: real time    5.2097
    MIXING:  cpu time    0.3093: real time    0.3099
    --------------------------------------------
      LOOP:  cpu time   33.1465: real time   33.2206

 eigenvalue-minimisations  :    96
 total energy-change (2. order) :-0.3334515E-02  (-0.5302268E-04)
 number of electron      18.0000000 magnetization 
 augmentation part        0.0651159 magnetization 

 Broyden mixing:
  rms(total) = 0.32470E-02    rms(broyden)= 0.32468E-02
  rms(prec ) = 0.39177E-02
  weight for this iteration     100.00

 eigenvalues of (default mixing * dielectric matrix)
  average eigenvalue GAMMA=   1.7698
  4.5791  2.5649  2.2997  1.6140  1.1999  1.1999  0.7787  0.8462  0.8462

 Free energy of the ion-electron system (eV)
  ---------------------------------------------------
  alpha Z        PSCENC =         0.02084913
  Ewald energy   TEWEN  =       542.99519667
  -Hartree energ DENC   =     -1416.27259093
  -exchange      EXHF   =         0.00000000
  -V(xc)+E(xc)   XCENC  =        65.24104547
  PAW double counting   =      9483.66886885    -9481.39915570
  entropy T*S    EENTRO =        -0.00000000
  eigenvalues    EBANDS =      -260.34111034
  atomic energy  EATOM  =      1036.85193878
  Solvation  Ediel_sol  =         0.00000000
  ---------------------------------------------------
  free energy    TOTEN  =       -29.23495808 eV

  energy without entropy =      -29.23495808  energy(sigma->0) =      -29.23495808


--------------------------------------------------------------------------------------------------------




--------------------------------------- Iteration      1(  15)  ---------------------------------------


    POTLOK:  cpu time   12.8780: real time   12.8993
    SETDIJ:  cpu time    0.0400: real time    0.0400
     EDDAV:  cpu time   11.2132: real time   11.2352
       DOS:  cpu time    0.0128: real time    0.0128
    CHARGE:  cpu time    5.1383: real time    5.1455
    MIXING:  cpu time    0.3149: real time    0.3183
    --------------------------------------------
      LOOP:  cpu time   29.5973: real time   29.6511

 eigenvalue-minimisations  :    64
 total energy-change (2. order) :-0.3141364E-02  (-0.5455123E-04)
 number of electron      18.0000000 magnetization 
 augmentation part        0.0651303 magnetization 

 Broyden mixing:
  rms(total) = 0.23242E-02    rms(broyden)= 0.23242E-02
  rms(prec ) = 0.25410E-02
  weight for this iteration     100.00

 eigenvalues of (default mixing * dielectric matrix)
  average eigenvalue GAMMA=   1.8153
  5.4633  2.7503  2.4033  1.5062  1.5062  0.7793  0.9696  0.9696  0.9026  0.9026

 Free energy of the ion-electron system (eV)
  ---------------------------------------------------
  alpha Z        PSCENC =         0.02084913
  Ewald energy   TEWEN  =       542.99519667
  -Hartree energ DENC   =     -1416.68043810
  -exchange      EXHF   =         0.00000000
  -V(xc)+E(xc)   XCENC  =        65.23961694
  PAW double counting   =      9477.23171188    -9474.96053815
  entropy T*S    EENTRO =        -0.00000000
  eigenvalues    EBANDS =      -259.93643659
  atomic energy  EATOM  =      1036.85193878
  Solvation  Ediel_sol  =         0.00000000
  ---------------------------------------------------
  free energy    TOTEN  =       -29.23809944 eV

  energy without entropy =      -29.23809944  energy(sigma->0) =      -29.23809944


--------------------------------------------------------------------------------------------------------




--------------------------------------- Iteration      1(  16)  ---------------------------------------


    POTLOK:  cpu time   12.8434: real time   12.8646
    SETDIJ:  cpu time    0.0414: real time    0.0415
     EDDAV:  cpu time   18.4613: real time   18.5038
       DOS:  cpu time    0.0089: real time    0.0089
    CHARGE:  cpu time    5.2023: real time    5.2091
    MIXING:  cpu time    0.3185: real time    0.3219
    --------------------------------------------
      LOOP:  cpu time   36.8759: real time   36.9498

 eigenvalue-minimisations  :   128
 total energy-change (2. order) :-0.1093569E-02  (-0.9593700E-05)
 number of electron      18.0000000 magnetization 
 augmentation part        0.0650473 magnetization 

 Broyden mixing:
  rms(total) = 0.13806E-02    rms(broyden)= 0.13805E-02
  rms(prec ) = 0.15632E-02
  weight for this iteration     100.00

 eigenvalues of (default mixing * dielectric matrix)
  average eigenvalue GAMMA=   1.8894
  5.9774  2.7721  2.3393  2.3393  1.6424  1.1771  1.1771  0.9783  0.8099  0.8099
  0.7600

 Free energy of the ion-electron system (eV)
  ---------------------------------------------------
  alpha Z        PSCENC =         0.02084913
  Ewald energy   TEWEN  =       542.99519667
  -Hartree energ DENC   =     -1416.80137892
  -exchange      EXHF   =         0.00000000
  -V(xc)+E(xc)   XCENC  =        65.24022327
  PAW double counting   =      9479.65444076    -9477.38334894
  entropy T*S    EENTRO =        -0.00000000
  eigenvalues    EBANDS =      -259.81711375
  atomic energy  EATOM  =      1036.85193878
  Solvation  Ediel_sol  =         0.00000000
  ---------------------------------------------------
  free energy    TOTEN  =       -29.23919301 eV

  energy without entropy =      -29.23919301  energy(sigma->0) =      -29.23919301


--------------------------------------------------------------------------------------------------------




--------------------------------------- Iteration      1(  17)  ---------------------------------------


    POTLOK:  cpu time   12.8674: real time   12.8891
    SETDIJ:  cpu time    0.0401: real time    0.0401
     EDDAV:  cpu time   11.1957: real time   11.2278
       DOS:  cpu time    0.0009: real time    0.0009
    CHARGE:  cpu time    5.1252: real time    5.1400
    MIXING:  cpu time    0.3421: real time    0.3427
    --------------------------------------------
      LOOP:  cpu time   29.5713: real time   29.6406

 eigenvalue-minimisations  :    64
 total energy-change (2. order) :-0.1276547E-02  (-0.7132421E-05)
 number of electron      18.0000000 magnetization 
 augmentation part        0.0650519 magnetization 

 Broyden mixing:
  rms(total) = 0.12076E-02    rms(broyden)= 0.12076E-02
  rms(prec ) = 0.12709E-02
  weight for this iteration     100.00

 eigenvalues of (default mixing * dielectric matrix)
  average eigenvalue GAMMA=   2.0028
  7.1218  3.5119  2.4950  2.4950  1.4788  1.4788  1.0350  1.0350  0.9763  0.7704
  0.8179  0.8179

 Free energy of the ion-electron system (eV)
  ---------------------------------------------------
  alpha Z        PSCENC =         0.02084913
  Ewald energy   TEWEN  =       542.99519667
  -Hartree energ DENC   =     -1416.86014167
  -exchange      EXHF   =         0.00000000
  -V(xc)+E(xc)   XCENC  =        65.23818086
  PAW double counting   =      9478.10532591    -9475.83381953
  entropy T*S    EENTRO =        -0.00000000
  eigenvalues    EBANDS =      -259.75799970
  atomic energy  EATOM  =      1036.85193878
  Solvation  Ediel_sol  =         0.00000000
  ---------------------------------------------------
  free energy    TOTEN  =       -29.24046956 eV

  energy without entropy =      -29.24046956  energy(sigma->0) =      -29.24046956


--------------------------------------------------------------------------------------------------------




--------------------------------------- Iteration      1(  18)  ---------------------------------------


    POTLOK:  cpu time   12.8193: real time   12.8403
    SETDIJ:  cpu time    0.0402: real time    0.0402
     EDDAV:  cpu time   18.3819: real time   18.4205
       DOS:  cpu time    0.0096: real time    0.0096
    CHARGE:  cpu time    5.2284: real time    5.2352
    MIXING:  cpu time    0.3500: real time    0.3506
    --------------------------------------------
      LOOP:  cpu time   36.8293: real time   36.8963

 eigenvalue-minimisations  :   128
 total energy-change (2. order) :-0.5380913E-03  (-0.3318130E-05)
 number of electron      18.0000000 magnetization 
 augmentation part        0.0650672 magnetization 

 Broyden mixing:
  rms(total) = 0.83921E-03    rms(broyden)= 0.83920E-03
  rms(prec ) = 0.86806E-03
  weight for this iteration     100.00

 eigenvalues of (default mixing * dielectric matrix)
  average eigenvalue GAMMA=   2.1103
  7.9840  4.1835  2.5578  2.5578  1.7637  1.7637  1.1400  1.1400  1.0763  0.8949
  0.7751  0.7987  0.7987

 Free energy of the ion-electron system (eV)
  ---------------------------------------------------
  alpha Z        PSCENC =         0.02084913
  Ewald energy   TEWEN  =       542.99519667
  -Hartree energ DENC   =     -1416.88423460
  -exchange      EXHF   =         0.00000000
  -V(xc)+E(xc)   XCENC  =        65.23690061
  PAW double counting   =      9478.45073446    -9476.17897571
  entropy T*S    EENTRO =        -0.00000000
  eigenvalues    EBANDS =      -259.73341698
  atomic energy  EATOM  =      1036.85193878
  Solvation  Ediel_sol  =         0.00000000
  ---------------------------------------------------
  free energy    TOTEN  =       -29.24100765 eV

  energy without entropy =      -29.24100765  energy(sigma->0) =      -29.24100765


--------------------------------------------------------------------------------------------------------




--------------------------------------- Iteration      1(  19)  ---------------------------------------


    POTLOK:  cpu time   12.8733: real time   12.8941
    SETDIJ:  cpu time    0.0403: real time    0.0403
     EDDAV:  cpu time   18.3874: real time   18.4260
       DOS:  cpu time    0.0050: real time    0.0050
    CHARGE:  cpu time    5.1118: real time    5.1272
    MIXING:  cpu time    0.3639: real time    0.3646
    --------------------------------------------
      LOOP:  cpu time   36.7817: real time   36.8572

 eigenvalue-minimisations  :   128
 total energy-change (2. order) :-0.3410784E-03  (-0.1285749E-05)
 number of electron      18.0000000 magnetization 
 augmentation part        0.0650720 magnetization 

 Broyden mixing:
  rms(total) = 0.46617E-03    rms(broyden)= 0.46616E-03
  rms(prec ) = 0.48027E-03
  weight for this iteration     100.00

 eigenvalues of (default mixing * dielectric matrix)
  average eigenvalue GAMMA=   2.1566
  8.3107  4.8325  2.7028  2.4744  2.4744  1.5013  1.5013  1.0580  1.0580  0.9594
  0.7698  0.8217  0.8217  0.9058

 Free energy of the ion-electron system (eV)
  ---------------------------------------------------
  alpha Z        PSCENC =         0.02084913
  Ewald energy   TEWEN  =       542.99519667
  -Hartree energ DENC   =     -1416.88776259
  -exchange      EXHF   =         0.00000000
  -V(xc)+E(xc)   XCENC  =        65.23577373
  PAW double counting   =      9475.58865384    -9473.31688748
  entropy T*S    EENTRO =        -0.00000000
  eigenvalues    EBANDS =      -259.72911079
  atomic energy  EATOM  =      1036.85193878
  Solvation  Ediel_sol  =         0.00000000
  ---------------------------------------------------
  free energy    TOTEN  =       -29.24134873 eV

  energy without entropy =      -29.24134873  energy(sigma->0) =      -29.24134873


--------------------------------------------------------------------------------------------------------




--------------------------------------- Iteration      1(  20)  ---------------------------------------


    POTLOK:  cpu time   12.8174: real time   12.8393
    SETDIJ:  cpu time    0.0400: real time    0.0400
     EDDAV:  cpu time   18.4060: real time   18.4461
       DOS:  cpu time    0.0037: real time    0.0037
    CHARGE:  cpu time    5.2010: real time    5.2096
    MIXING:  cpu time    0.3790: real time    0.3797
    --------------------------------------------
      LOOP:  cpu time   36.8471: real time   36.9183

 eigenvalue-minimisations  :   128
 total energy-change (2. order) :-0.1219965E-03  (-0.2565135E-06)
 number of electron      18.0000000 magnetization 
 augmentation part        0.0650638 magnetization 

 Broyden mixing:
  rms(total) = 0.40728E-03    rms(broyden)= 0.40728E-03
  rms(prec ) = 0.41252E-03
  weight for this iteration     100.00

 eigenvalues of (default mixing * dielectric matrix)
  average eigenvalue GAMMA=   2.2431
  8.7998  5.3251  3.1738  2.5366  2.5366  2.0341  1.5909  1.2134  1.1038  1.1038
  0.9168  0.9168  0.7716  0.8115  0.8115

 Free energy of the ion-electron system (eV)
  ---------------------------------------------------
  alpha Z        PSCENC =         0.02084913
  Ewald energy   TEWEN  =       542.99519667
  -Hartree energ DENC   =     -1416.89461053
  -exchange      EXHF   =         0.00000000
  -V(xc)+E(xc)   XCENC  =        65.23581250
  PAW double counting   =      9475.98001859    -9473.70836214
  entropy T*S    EENTRO =        -0.00000000
  eigenvalues    EBANDS =      -259.72231371
  atomic energy  EATOM  =      1036.85193878
  Solvation  Ediel_sol  =         0.00000000
  ---------------------------------------------------
  free energy    TOTEN  =       -29.24147072 eV

  energy without entropy =      -29.24147072  energy(sigma->0) =      -29.24147072


--------------------------------------------------------------------------------------------------------




--------------------------------------- Iteration      1(  21)  ---------------------------------------


    POTLOK:  cpu time   12.8807: real time   12.9144
    SETDIJ:  cpu time    0.0400: real time    0.0400
     EDDAV:  cpu time   18.4028: real time   18.4405
       DOS:  cpu time    0.0110: real time    0.0110
    CHARGE:  cpu time    5.1325: real time    5.1409
    MIXING:  cpu time    0.4074: real time    0.4083
    --------------------------------------------
      LOOP:  cpu time   36.8744: real time   36.9551

 eigenvalue-minimisations  :   128
 total energy-change (2. order) :-0.7596239E-04  (-0.1006943E-06)
 number of electron      18.0000000 magnetization 
 augmentation part        0.0650605 magnetization 

 Broyden mixing:
  rms(total) = 0.79852E-04    rms(broyden)= 0.79845E-04
  rms(prec ) = 0.85903E-04
  weight for this iteration     100.00

 eigenvalues of (default mixing * dielectric matrix)
  average eigenvalue GAMMA=   2.2371
  8.9428  5.6045  3.5451  2.4508  2.4508  2.1263  1.6087  1.6087  1.0868  1.0868
  1.0525  0.9221  0.9221  0.8066  0.8066  0.7720

 Free energy of the ion-electron system (eV)
  ---------------------------------------------------
  alpha Z        PSCENC =         0.02084913
  Ewald energy   TEWEN  =       542.99519667
  -Hartree energ DENC   =     -1416.89991256
  -exchange      EXHF   =         0.00000000
  -V(xc)+E(xc)   XCENC  =        65.23585087
  PAW double counting   =      9476.99050720    -9474.71887709
  entropy T*S    EENTRO =        -0.00000000
  eigenvalues    EBANDS =      -259.71709969
  atomic energy  EATOM  =      1036.85193878
  Solvation  Ediel_sol  =         0.00000000
  ---------------------------------------------------
  free energy    TOTEN  =       -29.24154669 eV

  energy without entropy =      -29.24154669  energy(sigma->0) =      -29.24154669


--------------------------------------------------------------------------------------------------------




--------------------------------------- Iteration      1(  22)  ---------------------------------------


    POTLOK:  cpu time   12.7836: real time   12.8117
    SETDIJ:  cpu time    0.0401: real time    0.0401
     EDDAV:  cpu time   18.3865: real time   18.4255
       DOS:  cpu time    0.0095: real time    0.0095
    CHARGE:  cpu time    5.2123: real time    5.2194
    MIXING:  cpu time    0.3910: real time    0.3918
    --------------------------------------------
      LOOP:  cpu time   36.8229: real time   36.8979

 eigenvalue-minimisations  :   128
 total energy-change (2. order) :-0.2358591E-04  (-0.1741422E-07)
 number of electron      18.0000000 magnetization 
 augmentation part        0.0650617 magnetization 

 Broyden mixing:
  rms(total) = 0.87612E-04    rms(broyden)= 0.87612E-04
  rms(prec ) = 0.89830E-04
  weight for this iteration     100.00

 eigenvalues of (default mixing * dielectric matrix)
  average eigenvalue GAMMA=   2.3242
  9.2299  6.2040  4.1255  2.8207  2.3748  2.3748  2.1891  1.5683  1.2542  1.0959
  1.0959  0.9805  0.9023  0.9023  0.8111  0.8111  0.7716

 Free energy of the ion-electron system (eV)
  ---------------------------------------------------
  alpha Z        PSCENC =         0.02084913
  Ewald energy   TEWEN  =       542.99519667
  -Hartree energ DENC   =     -1416.90110891
  -exchange      EXHF   =         0.00000000
  -V(xc)+E(xc)   XCENC  =        65.23585592
  PAW double counting   =      9477.05243340    -9474.78079231
  entropy T*S    EENTRO =        -0.00000000
  eigenvalues    EBANDS =      -259.71594295
  atomic energy  EATOM  =      1036.85193878
  Solvation  Ediel_sol  =         0.00000000
  ---------------------------------------------------
  free energy    TOTEN  =       -29.24157027 eV

  energy without entropy =      -29.24157027  energy(sigma->0) =      -29.24157027


--------------------------------------------------------------------------------------------------------




--------------------------------------- Iteration      1(  23)  ---------------------------------------


    POTLOK:  cpu time   12.8586: real time   12.8896
    SETDIJ:  cpu time    0.0401: real time    0.0401
     EDDAV:  cpu time   18.4191: real time   18.4552
       DOS:  cpu time    0.0097: real time    0.0097
    CHARGE:  cpu time    5.1745: real time    5.1812
    MIXING:  cpu time    0.4372: real time    0.4380
    --------------------------------------------
      LOOP:  cpu time   36.9390: real time   37.0138

 eigenvalue-minimisations  :   128
 total energy-change (2. order) :-0.1820062E-04  (-0.1664064E-07)
 number of electron      18.0000000 magnetization 
 augmentation part        0.0650612 magnetization 

 Broyden mixing:
  rms(total) = 0.25537E-04    rms(broyden)= 0.25536E-04
  rms(prec ) = 0.27218E-04
  weight for this iteration     100.00

 eigenvalues of (default mixing * dielectric matrix)
  average eigenvalue GAMMA=   2.3241
  9.4272  6.3540  4.4766  2.8131  2.5198  2.5198  1.7781  1.7781  1.6359  1.0836
  1.0836  1.1325  1.0246  0.9083  0.9083  0.8093  0.8093  0.7719

 Free energy of the ion-electron system (eV)
  ---------------------------------------------------
  alpha Z        PSCENC =         0.02084913
  Ewald energy   TEWEN  =       542.99519667
  -Hartree energ DENC   =     -1416.90275651
  -exchange      EXHF   =         0.00000000
  -V(xc)+E(xc)   XCENC  =        65.23588468
  PAW double counting   =      9476.87118054    -9474.59954274
  entropy T*S    EENTRO =        -0.00000000
  eigenvalues    EBANDS =      -259.71433901
  atomic energy  EATOM  =      1036.85193878
  Solvation  Ediel_sol  =         0.00000000
  ---------------------------------------------------
  free energy    TOTEN  =       -29.24158847 eV

  energy without entropy =      -29.24158847  energy(sigma->0) =      -29.24158847


--------------------------------------------------------------------------------------------------------




--------------------------------------- Iteration      1(  24)  ---------------------------------------


    POTLOK:  cpu time   12.8089: real time   12.8370
    SETDIJ:  cpu time    0.0402: real time    0.0402
     EDDAV:  cpu time   18.4421: real time   18.4807
       DOS:  cpu time    0.0152: real time    0.0152
    CHARGE:  cpu time    5.1417: real time    5.1483
    MIXING:  cpu time    0.4419: real time    0.4428
    --------------------------------------------
      LOOP:  cpu time   36.8900: real time   36.9642

 eigenvalue-minimisations  :   128
 total energy-change (2. order) :-0.4531772E-05  (-0.6229799E-08)
 number of electron      18.0000000 magnetization 
 augmentation part        0.0650618 magnetization 

 Broyden mixing:
  rms(total) = 0.24560E-04    rms(broyden)= 0.24560E-04
  rms(prec ) = 0.25295E-04
  weight for this iteration     100.00

 eigenvalues of (default mixing * dielectric matrix)
  average eigenvalue GAMMA=   2.3667
  9.5362  6.6266  4.7499  3.3985  2.5360  2.4071  2.2220  2.2220  1.5714  1.2205
  1.0868  1.0868  1.1116  0.7719  0.8093  0.8093  0.9662  0.9174  0.9174

 Free energy of the ion-electron system (eV)
  ---------------------------------------------------
  alpha Z        PSCENC =         0.02084913
  Ewald energy   TEWEN  =       542.99519667
  -Hartree energ DENC   =     -1416.90265417
  -exchange      EXHF   =         0.00000000
  -V(xc)+E(xc)   XCENC  =        65.23586557
  PAW double counting   =      9476.92005745    -9474.64841223
  entropy T*S    EENTRO =        -0.00000000
  eigenvalues    EBANDS =      -259.71443420
  atomic energy  EATOM  =      1036.85193878
  Solvation  Ediel_sol  =         0.00000000
  ---------------------------------------------------
  free energy    TOTEN  =       -29.24159300 eV

  energy without entropy =      -29.24159300  energy(sigma->0) =      -29.24159300


--------------------------------------------------------------------------------------------------------




--------------------------------------- Iteration      1(  25)  ---------------------------------------


    POTLOK:  cpu time   12.7925: real time   12.8204
    SETDIJ:  cpu time    0.0400: real time    0.0401
     EDDAV:  cpu time   18.3981: real time   18.4485
       DOS:  cpu time    0.0076: real time    0.0076
    CHARGE:  cpu time    5.2298: real time    5.2367
    MIXING:  cpu time    0.4718: real time    0.4727
    --------------------------------------------
      LOOP:  cpu time   36.9398: real time   37.0258

 eigenvalue-minimisations  :   128
 total energy-change (2. order) :-0.4172643E-05  (-0.6254155E-08)
 number of electron      18.0000000 magnetization 
 augmentation part        0.0650622 magnetization 

 Broyden mixing:
  rms(total) = 0.12844E-04    rms(broyden)= 0.12844E-04
  rms(prec ) = 0.13143E-04
  weight for this iteration     100.00

 eigenvalues of (default mixing * dielectric matrix)
  average eigenvalue GAMMA=   2.3665
  9.5945  6.9752  5.0342  3.6716  2.5388  2.5388  2.5502  1.8817  1.5810  1.5810
  1.0887  1.0887  1.0811  1.0443  0.7717  0.8094  0.8094  0.9240  0.9240  0.8408

 Free energy of the ion-electron system (eV)
  ---------------------------------------------------
  alpha Z        PSCENC =         0.02084913
  Ewald energy   TEWEN  =       542.99519667
  -Hartree energ DENC   =     -1416.90233409
  -exchange      EXHF   =         0.00000000
  -V(xc)+E(xc)   XCENC  =        65.23583942
  PAW double counting   =      9476.89105328    -9474.61940319
  entropy T*S    EENTRO =        -0.00000000
  eigenvalues    EBANDS =      -259.71473717
  atomic energy  EATOM  =      1036.85193878
  Solvation  Ediel_sol  =         0.00000000
  ---------------------------------------------------
  free energy    TOTEN  =       -29.24159718 eV

  energy without entropy =      -29.24159718  energy(sigma->0) =      -29.24159718


--------------------------------------------------------------------------------------------------------




--------------------------------------- Iteration      1(  26)  ---------------------------------------


    POTLOK:  cpu time   12.8638: real time   12.8909
    SETDIJ:  cpu time    0.0400: real time    0.0400
     EDDAV:  cpu time   18.3767: real time   18.4251
       DOS:  cpu time    0.0064: real time    0.0064
    CHARGE:  cpu time    5.1797: real time    5.1864
    MIXING:  cpu time    0.4566: real time    0.4577
    --------------------------------------------
      LOOP:  cpu time   36.9233: real time   37.0065

 eigenvalue-minimisations  :   128
 total energy-change (2. order) :-0.9807129E-06  (-0.4779970E-08)
 number of electron      18.0000000 magnetization 
 augmentation part        0.0650622 magnetization 

 Broyden mixing:
  rms(total) = 0.13800E-04    rms(broyden)= 0.13799E-04
  rms(prec ) = 0.13937E-04
  weight for this iteration     100.00

 eigenvalues of (default mixing * dielectric matrix)
  average eigenvalue GAMMA=   2.4286
  9.6313  7.3286  5.3975  4.0181  2.8187  2.4031  2.4031  2.2920  2.2920  1.5864
  1.3128  1.1995  1.0915  1.0915  0.7718  0.8094  0.8094  1.0087  0.9097  0.9097
  0.9158

 Free energy of the ion-electron system (eV)
  ---------------------------------------------------
  alpha Z        PSCENC =         0.02084913
  Ewald energy   TEWEN  =       542.99519667
  -Hartree energ DENC   =     -1416.90220221
  -exchange      EXHF   =         0.00000000
  -V(xc)+E(xc)   XCENC  =        65.23583151
  PAW double counting   =      9476.84723230    -9474.57558329
  entropy T*S    EENTRO =        -0.00000000
  eigenvalues    EBANDS =      -259.71486103
  atomic energy  EATOM  =      1036.85193878
  Solvation  Ediel_sol  =         0.00000000
  ---------------------------------------------------
  free energy    TOTEN  =       -29.24159816 eV

  energy without entropy =      -29.24159816  energy(sigma->0) =      -29.24159816


--------------------------------------------------------------------------------------------------------




--------------------------------------- Iteration      1(  27)  ---------------------------------------


    POTLOK:  cpu time   12.8267: real time   12.8497
    SETDIJ:  cpu time    0.0400: real time    0.0400
     EDDAV:  cpu time   18.3954: real time   18.4314
       DOS:  cpu time    0.0100: real time    0.0100
    CHARGE:  cpu time    5.2570: real time    5.2639
    MIXING:  cpu time    0.4913: real time    0.4923
    --------------------------------------------
      LOOP:  cpu time   37.0204: real time   37.0873

 eigenvalue-minimisations  :   128
 total energy-change (2. order) :-0.7851120E-06  (-0.4184580E-08)
 number of electron      18.0000000 magnetization 
 augmentation part        0.0650620 magnetization 

 Broyden mixing:
  rms(total) = 0.37213E-05    rms(broyden)= 0.37211E-05
  rms(prec ) = 0.38220E-05
  weight for this iteration     100.00

 eigenvalues of (default mixing * dielectric matrix)
  average eigenvalue GAMMA=   2.4156
  9.6492  7.5112  5.5636  4.1687  3.1553  2.4721  2.4721  2.3951  2.0090  1.6695
  1.4955  1.0857  1.0857  1.1539  1.1539  0.7718  0.8095  0.8095  1.0105  0.9059
  0.9059  0.8897

 Free energy of the ion-electron system (eV)
  ---------------------------------------------------
  alpha Z        PSCENC =         0.02084913
  Ewald energy   TEWEN  =       542.99519667
  -Hartree energ DENC   =     -1416.90236019
  -exchange      EXHF   =         0.00000000
  -V(xc)+E(xc)   XCENC  =        65.23584109
  PAW double counting   =      9476.86401865    -9474.59237266
  entropy T*S    EENTRO =        -0.00000000
  eigenvalues    EBANDS =      -259.71471041
  atomic energy  EATOM  =      1036.85193878
  Solvation  Ediel_sol  =         0.00000000
  ---------------------------------------------------
  free energy    TOTEN  =       -29.24159894 eV

  energy without entropy =      -29.24159894  energy(sigma->0) =      -29.24159894


--------------------------------------------------------------------------------------------------------




--------------------------------------- Iteration      1(  28)  ---------------------------------------


    POTLOK:  cpu time   12.8177: real time   12.8557
    SETDIJ:  cpu time    0.0401: real time    0.0401
     EDDAV:  cpu time   18.3732: real time   18.4099
       DOS:  cpu time    0.0045: real time    0.0045
    CHARGE:  cpu time    5.2583: real time    5.2651
    MIXING:  cpu time    0.5176: real time    0.5186
    --------------------------------------------
      LOOP:  cpu time   37.0114: real time   37.0939

 eigenvalue-minimisations  :   128
 total energy-change (2. order) :-0.2413710E-06  (-0.3520825E-08)
 number of electron      18.0000000 magnetization 
 augmentation part        0.0650619 magnetization 

 Broyden mixing:
  rms(total) = 0.24298E-05    rms(broyden)= 0.24297E-05
  rms(prec ) = 0.25005E-05
  weight for this iteration     100.00

 eigenvalues of (default mixing * dielectric matrix)
  average eigenvalue GAMMA=   2.4557
  9.6938  7.7158  5.9177  4.5602  3.3600  2.7314  2.3221  2.3221  2.2113  2.2113
  1.6259  1.2477  1.2477  1.0911  1.0911  1.0658  0.7718  0.8094  0.8094  0.9671
  0.9132  0.9132  0.8810

 Free energy of the ion-electron system (eV)
  ---------------------------------------------------
  alpha Z        PSCENC =         0.02084913
  Ewald energy   TEWEN  =       542.99519667
  -Hartree energ DENC   =     -1416.90236719
  -exchange      EXHF   =         0.00000000
  -V(xc)+E(xc)   XCENC  =        65.23584111
  PAW double counting   =      9476.87681287    -9474.60516730
  entropy T*S    EENTRO =        -0.00000000
  eigenvalues    EBANDS =      -259.71470324
  atomic energy  EATOM  =      1036.85193878
  Solvation  Ediel_sol  =         0.00000000
  ---------------------------------------------------
  free energy    TOTEN  =       -29.24159918 eV

  energy without entropy =      -29.24159918  energy(sigma->0) =      -29.24159918


--------------------------------------------------------------------------------------------------------




--------------------------------------- Iteration      1(  29)  ---------------------------------------


    POTLOK:  cpu time   12.7752: real time   12.8067
    SETDIJ:  cpu time    0.0400: real time    0.0400
     EDDAV:  cpu time   18.3803: real time   18.4168
       DOS:  cpu time    0.0002: real time    0.0002
    CHARGE:  cpu time    5.2019: real time    5.2087
    MIXING:  cpu time    0.5270: real time    0.5281
    --------------------------------------------
      LOOP:  cpu time   36.9246: real time   37.0006

 eigenvalue-minimisations  :   128
 total energy-change (2. order) :-0.1699943E-06  (-0.2747083E-08)
 number of electron      18.0000000 magnetization 
 augmentation part        0.0650620 magnetization 

 Broyden mixing:
  rms(total) = 0.11378E-05    rms(broyden)= 0.11378E-05
  rms(prec ) = 0.11683E-05
  weight for this iteration     100.00

 eigenvalues of (default mixing * dielectric matrix)
  average eigenvalue GAMMA=   2.4471
  9.7072  7.9186  6.0841  4.7744  3.5454  2.6736  2.4149  2.4149  2.3065  2.0952
  1.6401  1.4691  1.1985  1.1985  1.0905  1.0905  0.7718  0.8094  0.8094  1.0397
  0.9158  0.9158  0.9230  0.9230

 Free energy of the ion-electron system (eV)
  ---------------------------------------------------
  alpha Z        PSCENC =         0.02084913
  Ewald energy   TEWEN  =       542.99519667
  -Hartree energ DENC   =     -1416.90232181
  -exchange      EXHF   =         0.00000000
  -V(xc)+E(xc)   XCENC  =        65.23583881
  PAW double counting   =      9476.87575360    -9474.60410757
  entropy T*S    EENTRO =        -0.00000000
  eigenvalues    EBANDS =      -259.71474695
  atomic energy  EATOM  =      1036.85193878
  Solvation  Ediel_sol  =         0.00000000
  ---------------------------------------------------
  free energy    TOTEN  =       -29.24159935 eV

  energy without entropy =      -29.24159935  energy(sigma->0) =      -29.24159935


--------------------------------------------------------------------------------------------------------




--------------------------------------- Iteration      1(  30)  ---------------------------------------


    POTLOK:  cpu time   12.7452: real time   12.7699
    SETDIJ:  cpu time    0.0400: real time    0.0400
     EDDAV:  cpu time   18.4248: real time   18.4632
       DOS:  cpu time    0.0090: real time    0.0090
    --------------------------------------------
      LOOP:  cpu time   31.2190: real time   31.2820

 eigenvalue-minimisations  :   128
 total energy-change (2. order) :-0.4913045E-07  (-0.2547713E-08)
 number of electron      18.0000000 magnetization 
 augmentation part        0.0650620 magnetization 

 Free energy of the ion-electron system (eV)
  ---------------------------------------------------
  alpha Z        PSCENC =         0.02084913
  Ewald energy   TEWEN  =       542.99519667
  -Hartree energ DENC   =     -1416.90231731
  -exchange      EXHF   =         0.00000000
  -V(xc)+E(xc)   XCENC  =        65.23583865
  PAW double counting   =      9476.87443127    -9474.60278507
  entropy T*S    EENTRO =        -0.00000000
  eigenvalues    EBANDS =      -259.71475152
  atomic energy  EATOM  =      1036.85193878
  Solvation  Ediel_sol  =         0.00000000
  ---------------------------------------------------
  free energy    TOTEN  =       -29.24159940 eV

  energy without entropy =      -29.24159940  energy(sigma->0) =      -29.24159940


--------------------------------------------------------------------------------------------------------




 average (electrostatic) potential at core
  the test charge radii are     0.4325  0.5770  0.5955
  (the norm of the test charge is              1.0000)
       1 -47.6672       2 -47.6672       3 -88.9214       4-122.3028       5-119.5939
 
 
 
 E-fermi :  -7.1802     XC(G=0):  -0.0347     alpha+bet : -0.0075


 k-point     1 :       0.0000    0.0000    0.0000
  band No.  band energies     occupation 
      1     -28.9717      2.00000
      2     -25.3608      2.00000
      3     -13.8805      2.00000
      4     -13.1374      2.00000
      5     -11.5382      2.00000
      6     -11.5371      2.00000
      7      -9.3351      2.00000
      8      -8.8669      2.00000
      9      -7.2297      2.00000
     10      -1.9034      0.00000
     11      -1.9022      0.00000
     12      -0.9565      0.00000
     13      -0.0035      0.00000
     14       0.0660      0.00000
     15       0.1026      0.00000
     16       0.1134      0.00000
     17       0.1170      0.00000
     18       0.1195      0.00000
     19       0.1306      0.00000
     20       0.1749      0.00000
     21       0.1946      0.00000
     22       0.2231      0.00000
     23       0.2382      0.00000
     24       0.2388      0.00000
     25       0.2397      0.00000
     26       0.2415      0.00000
     27       0.2424      0.00000
     28       0.2431      0.00000
     29       0.2440      0.00000
     30       0.2444      0.00000
     31       0.2724      0.00000
     32       0.3245      0.00000


--------------------------------------------------------------------------------------------------------


 soft charge-density along one line, spin component            1
         0         1         2         3         4         5         6         7         8         9
 total charge-density along one line
 
 pseudopotential strength for first ion, spin component:            1
 -2.535  -5.389   0.005  -0.009   0.000
 -5.389 -11.435   0.012  -0.019   0.001
  0.005   0.012  -1.382  -0.011   0.000
 -0.009  -0.019  -0.011  -1.372  -0.001
  0.000   0.001   0.000  -0.001  -1.390
 total augmentation occupancy for first ion, spin component:            1
  4.288  -0.812  -0.212   0.311  -0.011
 -0.812   0.182   0.042  -0.059   0.002
 -0.212   0.042   0.016  -0.012   0.000
  0.311  -0.059  -0.012   0.024  -0.001
 -0.011   0.002   0.000  -0.001   0.011


------------------------ aborting loop because EDIFF is reached ----------------------------------------



 DIPCOR: dipole corrections for dipol
 direction  1 min pos   461, direction  2 min pos   469, direction  3 min pos   413,
 dipolmoment          -0.013639     -0.426509      0.017293 electrons x Angstroem
 Tr[quadrupol]         8.397812

 energy correction for charged system         0.000000 eV
 dipol+quadrupol energy correction            0.000128 eV
 added-field ion interaction          0.000000 eV  (added to PSCEN)

 
  *************** adding dipol energy to TOTEN NOW **************** 
    CHARGE:  cpu time    5.2712: real time    5.2794
    FORLOC:  cpu time    0.4952: real time    0.4959
    FORNL :  cpu time    0.4264: real time    0.4271
    STRESS:  cpu time   11.5002: real time   11.5309
    FORCOR:  cpu time   10.6951: real time   10.7136
    FORHAR:  cpu time    3.2589: real time    3.2646
    MIXING:  cpu time    0.5477: real time    0.5489
    OFIELD:  cpu time    0.0000: real time    0.0000

  Hirshfeld charges:
            ion         q(e)     
   ------------------------------
      1     H           0.146
      2     H           0.146
      3     C           0.068
      4     O          -0.069
      5     O          -0.292

  Hirshfeld-I charges:
            ion         q(e)        dq(e)    
   ------------------------------------------
      1     H           0.452      0.191E-04
      2     H           0.452      0.191E-04
      3     C           0.131     -0.236E-06
      4     O          -0.130      0.350E-06
      5     O          -0.905     -0.383E-04

   Hirshfeld-I converged in  18 cycles. Convergence criterion |dq|< 0.500E-04 e

  Atomic reference data used in the T-S method for vdW correction:
            C6at              R0at           ALPHAat      REFSTATE
            (au)              (au)            (au)                
   ---------------------------------------------------------------
   H           6.500          3.099          4.500         0
   C          46.600          3.590         12.000         0
   O          15.600          3.194          5.400         0

  Tkatchenko/Scheffler method for vdW energy calculation
  ---------------------------------------------------------------------------------------------

  Parameters of vdW forcefield:
            C6ts              R0ts           ALPHAts        RELVOL
            (au)              (au)            (au)                
   ---------------------------------------------------------------
   H           0.595          2.080          1.361          0.30248177
   H           0.594          2.080          1.360          0.30231265
   C          28.946          3.317          9.458          0.78813062
   O          13.742          3.127          5.068          0.93856222
   O          26.028          3.478          6.975          1.29168998

  vdW correction parametrized for the method pbe       

  IVDW =  21
  VDW_RADIUS =    50.000 A
  VDW_IDAMPF =  0
  VDW_S6 =     1.000
  VDW_SR =     0.950
  VDW_D =    20.000
  LVDW_ONECELL = F F F
  LVDW_SAMETYPE T T T
  LVDW_EWALD = F

  Number of pair interactions contributing to vdW energy:     234
  Edisp (eV):   -0.00286
    FORVDW:  cpu time   86.2899: real time   86.3526

  FORCE on cell =-STRESS in cart. coord.  units (eV):
  Direction    XX          YY          ZZ          XY          YZ          ZX
  --------------------------------------------------------------------------------------
  Alpha Z     0.02085     0.02085     0.02085
  Ewald     -63.60788   548.02928    58.57324     2.64092     2.19526    -1.41255
  Hartree   348.86355   697.57754   370.46122     0.58571     0.21820    -0.25026
  E(xc)     -83.09114   -81.96784   -82.53568     0.01217     0.01037    -0.00647
  Local    -646.22793 -1564.31773  -750.49625    -2.39358    -1.63394     1.20405
  n-local   -27.01633   -29.02568   -21.45240     0.09898     0.13325    -0.06374
  augment     1.68564     1.42904     0.91463    -0.01749    -0.01366     0.00901
  Kinetic   469.35586   428.00674   425.01825    -0.91704    -0.89726     0.51397
  Fock        0.00000     0.00000     0.00000     0.00000     0.00000     0.00000
  vdW        -0.00000    -0.01614     0.00097    -0.00001     0.00007    -0.00001
  -------------------------------------------------------------------------------------
  Total      -0.01737    -0.26394     0.50483     0.00966     0.01230    -0.00600
  in kB      -0.00065    -0.00986     0.01886     0.00036     0.00046    -0.00022
  external pressure =        0.00 kB  Pullay stress =        0.00 kB


 VOLUME and BASIS-vectors are now :
 -----------------------------------------------------------------------------
  energy-cutoff  :     1000.00
  volume of cell :    42875.00
      direct lattice vectors                 reciprocal lattice vectors
    35.000000000  0.000000000  0.000000000     0.028571429  0.000000000  0.000000000
     0.000000000 35.000000000  0.000000000     0.000000000  0.028571429  0.000000000
     0.000000000  0.000000000 35.000000000     0.000000000  0.000000000  0.028571429

  length of vectors
    35.000000000 35.000000000 35.000000000     0.028571429  0.028571429  0.028571429


 FORCES acting on ions
    electron-ion (+dipol)            ewald-force                    non-local-force                 convergence-correction
 -----------------------------------------------------------------------------------------------
   -.271E+01 -.537E+02 0.758E+02   0.298E+01 0.586E+02 -.833E+02   -.260E+00 -.473E+01 0.718E+01   0.273E-07 0.340E-06 -.448E-06
   -.116E+01 -.604E+02 -.708E+02   0.127E+01 0.661E+02 0.779E+02   -.112E+00 -.539E+01 -.671E+01   0.197E-07 0.404E-06 0.403E-06
   0.114E-01 0.255E+03 -.212E-01   -.110E-01 -.281E+03 0.202E-01   -.431E-03 0.266E+02 0.133E-02   -.128E-07 0.183E-05 0.965E-08
   0.289E-01 -.180E+03 -.523E-01   -.308E-01 0.232E+03 0.596E-01   0.200E-02 -.518E+02 -.771E-02   -.938E-08 0.759E-06 -.804E-08
   0.230E+01 0.233E+02 -.295E+01   -.422E+01 -.755E+02 0.540E+01   0.190E+01 0.517E+02 -.243E+01   0.593E-07 -.633E-06 -.386E-06
 -----------------------------------------------------------------------------------------------
   -.153E+01 -.164E+02 0.196E+01   0.000E+00 -.426E-13 0.977E-14   0.153E+01 0.164E+02 -.196E+01   0.841E-07 0.270E-05 -.430E-06
 
 
 POSITION                                       TOTAL-FORCE (eV/Angst)
 -----------------------------------------------------------------------------------
      0.02970      6.08138     34.21499         0.012099      0.212174     -0.355091
      0.01365      6.15327      0.72944         0.004757      0.245208      0.333532
      0.00000      0.08826      0.00000        -0.000059      0.440041      0.000277
      0.00000      1.22721      0.00000         0.000089     -0.436499     -0.000421
      0.00000      5.52721      0.00000        -0.016886     -0.460924      0.021702
 -----------------------------------------------------------------------------------
    total drift:                               -0.000010     -0.000096      0.000020


--------------------------------------------------------------------------------------------------------



  FREE ENERGIE OF THE ION-ELECTRON SYSTEM (eV)
  ---------------------------------------------------
  free  energy   TOTEN  =       -29.24433500 eV

  energy  without entropy=      -29.24433500  energy(sigma->0) =      -29.24433500
 


--------------------------------------------------------------------------------------------------------


    POTLOK:  cpu time   13.0356: real time   13.0622


--------------------------------------------------------------------------------------------------------


 writing wavefunctions
     LOOP+:  cpu time 1360.3999: real time 1362.7281
    4ORBIT:  cpu time    0.0000: real time    0.0000

 total amount of memory used by VASP MPI-rank0  4191804. kBytes
=======================================================================

   base      :      30000. kBytes
   nonl-proj :     418671. kBytes
   fftplans  :     676185. kBytes
   grid      :    3042313. kBytes
   one-center:          7. kBytes
   wavefun   :      24628. kBytes
 
  
  
 General timing and accounting informations for this job:
 ========================================================
  
                  Total CPU time used (sec):     2444.948
                            User time (sec):     2285.073
                          System time (sec):      159.875
                         Elapsed time (sec):     2452.559
  
                   Maximum memory used (kb):     5574140.
                   Average memory used (kb):           0.
  
                          Minor page faults:     80670679
                          Major page faults:         1007
                 Voluntary context switches:        22731
