 vasp.6.1.2 22Jul20 (build Jan  6 2021 09:55:43) gamma-only                      
 executed on             LinuxPGI date 2023.10.20  06:47:19
 running on   32 total cores
 distrk:  each k-point on   32 cores,    1 groups
 distr:  one band on NCORE=   1 cores,   32 groups


--------------------------------------------------------------------------------------------------------


 INCAR:
 POTCAR:    PAW_PBE H_h 06Feb2004                 
 POTCAR:    PAW_PBE C_h 06Feb2004                 
 POTCAR:    PAW_PBE O_h 06Feb2004                 
 -----------------------------------------------------------------------------
|                                                                             |
|           W    W    AA    RRRRR   N    N  II  N    N   GGGG   !!!           |
|           W    W   A  A   R    R  NN   N  II  NN   N  G    G  !!!           |
|           W    W  A    A  R    R  N N  N  II  N N  N  G       !!!           |
|           W WW W  AAAAAA  RRRRR   N  N N  II  N  N N  G  GGG   !            |
|           WW  WW  A    A  R   R   N   NN  II  N   NN  G    G                |
|           W    W  A    A  R    R  N    N  II  N    N   GGGG   !!!           |
|                                                                             |
|     For optimal performance we recommend to set                             |
|       NCORE = 4 - approx SQRT(number of cores).                             |
|     NCORE specifies how many cores store one orbital (NPAR=cpu/NCORE).      |
|     This setting can greatly improve the performance of VASP for DFT.       |
|     The default, NCORE=1 might be grossly inefficient on modern             |
|     multi-core architectures or massively parallel machines. Do your        |
|     own testing!!!!                                                         |
|     Unfortunately you need to use the default for GW and RPA                |
|     calculations (for HF NCORE is supported but not extensively tested      |
|     yet).                                                                   |
|                                                                             |
 -----------------------------------------------------------------------------

 POTCAR:    PAW_PBE H_h 06Feb2004                 
   VRHFIN =H: ultrasoft test                                                                        
   LEXCH  = PE                                                                                      
   EATOM  =    12.4884 eV,    0.9179 Ry                                                             
                                                                                                    
   TITEL  = PAW_PBE H_h 06Feb2004                                                                   
   LULTRA =        F    use ultrasoft PP ?                                                          
   IUNSCR =        0    unscreen: 0-lin 1-nonlin 2-no                                               
   RPACOR =    0.000    partial core radius                                                         
   POMASS =    1.000; ZVAL   =    1.000    mass and valenz                                          
   RCORE  =    0.800    outmost cutoff radius                                                       
   RWIGS  =    0.700; RWIGS  =    0.370    wigner-seitz radius (au A)                               
   ENMAX  =  700.000; ENMIN  =  350.000 eV                                                          
   RCLOC  =    0.701    cutoff for local pot                                                        
   LCOR   =        T    correct aug charges                                                         
   LPAW   =        T    paw PP                                                                      
   EAUG   = 1000.000                                                                                
   RMAX   =    0.819    core radius for proj-oper                                                   
   RAUG   =    1.000    factor for augmentation sphere                                              
   RDEP   =    0.817    radius for radial grids                                                     
   RDEPT  =    0.817    core radius for aug-charge                                                  
                                                                                                    
   Atomic configuration                                                                             
    2 entries                                                                                       
     n  l   j            E        occ.                                                              
     1  0  0.50        -6.4927   1.0000                                                             
     2  1  0.50        -3.4015   0.0000                                                             
   Description                                                                                      
     l       E           TYP  RCUT    TYP  RCUT                                                     
     0     -6.4927493     23  0.800                                                                 
     0      6.8029130     23  0.800                                                                 
     1     -6.8029130     23  0.800                                                                 
  local pseudopotential read in
  atomic valenz-charges read in
  non local Contribution for L=            0  read in
    real space projection operators read in
  non local Contribution for L=            0  read in
    real space projection operators read in
  non local Contribution for L=            1  read in
    real space projection operators read in
    PAW grid and wavefunctions read in
 
   number of l-projection  operators is LMAX  =            3
   number of lm-projection operators is LMMAX =            5
 
 POTCAR:    PAW_PBE C_h 06Feb2004                 
   VRHFIN =C: s2p2                                                                                  
   LEXCH  = PE                                                                                      
   EATOM  =   147.1560 eV,   10.8157 Ry                                                             
                                                                                                    
   TITEL  = PAW_PBE C_h 06Feb2004                                                                   
   LULTRA =        F    use ultrasoft PP ?                                                          
   IUNSCR =        1    unscreen: 0-lin 1-nonlin 2-no                                               
   RPACOR =    0.800    partial core radius                                                         
   POMASS =   12.011; ZVAL   =    4.000    mass and valenz                                          
   RCORE  =    1.100    outmost cutoff radius                                                       
   RWIGS  =    1.630; RWIGS  =    0.863    wigner-seitz radius (au A)                               
   ENMAX  =  700.000; ENMIN  =  500.000 eV                                                          
   ICORE  =        2    local potential                                                             
   LCOR   =        T    correct aug charges                                                         
   LPAW   =        T    paw PP                                                                      
   EAUG   =  946.768                                                                                
   DEXC   =    0.000                                                                                
   RMAX   =    1.128    core radius for proj-oper                                                   
   RAUG   =    1.300    factor for augmentation sphere                                              
   RDEP   =    1.162    radius for radial grids                                                     
   RDEPT  =    1.088    core radius for aug-charge                                                  
                                                                                                    
   Atomic configuration                                                                             
    4 entries                                                                                       
     n  l   j            E        occ.                                                              
     1  0  0.50      -273.3789   2.0000                                                             
     2  0  0.50       -13.7508   2.0000                                                             
     2  1  0.50        -5.2854   2.0000                                                             
     3  2  1.50        -5.4423   0.0000                                                             
   Description                                                                                      
     l       E           TYP  RCUT    TYP  RCUT                                                     
     0    -13.7508458     23  1.100                                                                 
     0     -8.2022199     23  1.100                                                                 
     1     -5.2854383     23  1.100                                                                 
     1      1.1560700     23  1.100                                                                 
     2     -5.4423304      7  1.100                                                                 
  local pseudopotential read in
  partial core-charges read in
  partial kinetic energy density read in
  atomic valenz-charges read in
  non local Contribution for L=            0  read in
    real space projection operators read in
  non local Contribution for L=            0  read in
    real space projection operators read in
  non local Contribution for L=            1  read in
    real space projection operators read in
  non local Contribution for L=            1  read in
    real space projection operators read in
    PAW grid and wavefunctions read in
 
   number of l-projection  operators is LMAX  =            4
   number of lm-projection operators is LMMAX =            8
 
 POTCAR:    PAW_PBE O_h 06Feb2004                 
   VRHFIN =O: s2p4                                                                                  
   LEXCH  = PE                                                                                      
   EATOM  =   432.3788 eV,   31.7789 Ry                                                             
                                                                                                    
   TITEL  = PAW_PBE O_h 06Feb2004                                                                   
   LULTRA =        F    use ultrasoft PP ?                                                          
   IUNSCR =        1    unscreen: 0-lin 1-nonlin 2-no                                               
   RPACOR =    0.800    partial core radius                                                         
   POMASS =   16.000; ZVAL   =    6.000    mass and valenz                                          
   RCORE  =    1.100    outmost cutoff radius                                                       
   RWIGS  =    1.400; RWIGS  =    0.741    wigner-seitz radius (au A)                               
   ENMAX  =  700.000; ENMIN  =  500.000 eV                                                          
   ICORE  =        2    local potential                                                             
   LCOR   =        T    correct aug charges                                                         
   LPAW   =        T    paw PP                                                                      
   EAUG   =  888.804                                                                                
   DEXC   =    0.000                                                                                
   RMAX   =    1.128    core radius for proj-oper                                                   
   RAUG   =    1.300    factor for augmentation sphere                                              
   RDEP   =    1.125    radius for radial grids                                                     
   RDEPT  =    1.088    core radius for aug-charge                                                  
                                                                                                    
   Atomic configuration                                                                             
    4 entries                                                                                       
     n  l   j            E        occ.                                                              
     1  0  0.50      -514.6923   2.0000                                                             
     2  0  0.50       -23.9615   2.0000                                                             
     2  1  0.50        -9.0305   4.0000                                                             
     3  2  1.50        -9.5241   0.0000                                                             
   Description                                                                                      
     l       E           TYP  RCUT    TYP  RCUT                                                     
     0    -23.9615319     23  1.100                                                                 
     0    -25.3221145     23  1.100                                                                 
     1     -9.0304911     23  1.100                                                                 
     1     -5.4802209     23  1.100                                                                 
     2     -9.5240782      7  1.100                                                                 
  local pseudopotential read in
  partial core-charges read in
  partial kinetic energy density read in
  atomic valenz-charges read in
  non local Contribution for L=            0  read in
    real space projection operators read in
  non local Contribution for L=            0  read in
    real space projection operators read in
  non local Contribution for L=            1  read in
    real space projection operators read in
  non local Contribution for L=            1  read in
    real space projection operators read in
    PAW grid and wavefunctions read in
 
   number of l-projection  operators is LMAX  =            4
   number of lm-projection operators is LMMAX =            8
 
  PAW_PBE H_h 06Feb2004                 :
 energy of atom  1       EATOM=  -12.4884
 kinetic energy error for atom=    0.0006 (will be added to EATOM!!)
  PAW_PBE C_h 06Feb2004                 :
 energy of atom  2       EATOM= -147.1560
 kinetic energy error for atom=    0.0031 (will be added to EATOM!!)
  PAW_PBE O_h 06Feb2004                 :
 energy of atom  3       EATOM= -432.3788
 kinetic energy error for atom=    0.0171 (will be added to EATOM!!)
 
 
 POSCAR:  H  C  O
  positions in cartesian coordinates
  No initial velocities read in
 exchange correlation table for  LEXCH =        8
   RHO(1)=    0.500       N(1)  =     2000
   RHO(2)=  100.500       N(2)  =     4000
 


--------------------------------------------------------------------------------------------------------


 ion  position               nearest neighbor table
   1  0.001  0.188  0.978-   5 0.96
   2  0.000  0.190  0.021-   5 0.96
   3  0.000  0.003  0.000-   4 1.14
   4  0.000  0.035  0.000-   3 1.14
   5  0.000  0.172  0.000-   2 0.96   1 0.96
 
  LATTYP: Found a simple cubic cell.
 ALAT       =    35.0000000000
  
  Lattice vectors:
  
 A1 = (  35.0000000000,   0.0000000000,   0.0000000000)
 A2 = (   0.0000000000,  35.0000000000,   0.0000000000)
 A3 = (   0.0000000000,   0.0000000000,  35.0000000000)


Analysis of symmetry for initial positions (statically):
=====================================================================
 Subroutine PRICEL returns:
 Original cell was already a primitive cell.
 

 Routine SETGRP: Setting up the symmetry group for a 
 simple cubic supercell.


 Subroutine GETGRP returns: Found  1 space group operations
 (whereof  1 operations were pure point group operations)
 out of a pool of 48 trial point group operations.


The static configuration has the point symmetry C_1 .


Analysis of symmetry for dynamics (positions and initial velocities):
=====================================================================
 Subroutine PRICEL returns:
 Original cell was already a primitive cell.
 

 Routine SETGRP: Setting up the symmetry group for a 
 simple cubic supercell.


 Subroutine GETGRP returns: Found  1 space group operations
 (whereof  1 operations were pure point group operations)
 out of a pool of 48 trial point group operations.


The dynamic configuration has the point symmetry C_1 .


 Subroutine INISYM returns: Found  1 space group operations
 (whereof  1 operations are pure point group operations),
 and found     1 'primitive' translations


----------------------------------------------------------------------------------------

                                     Primitive cell                                     

  volume of cell :   42875.0000

  direct lattice vectors                    reciprocal lattice vectors
    35.000000000  0.000000000  0.000000000     0.028571429  0.000000000  0.000000000
     0.000000000 35.000000000  0.000000000     0.000000000  0.028571429  0.000000000
     0.000000000  0.000000000 35.000000000     0.000000000  0.000000000  0.028571429

  length of vectors
    35.000000000 35.000000000 35.000000000     0.028571429  0.028571429  0.028571429

  position of ions in fractional coordinates (direct lattice)
     0.000848682  0.188039356  0.977571084
     0.000390051  0.190093529  0.020841195
     0.000000000  0.002521600  0.000000000
     0.000000000  0.035063029  0.000000000
     0.000000000  0.172205886  0.000000000

  ion indices of the primitive-cell ions
   primitive index   ion index
                 1           1
                 2           2
                 3           3
                 4           4
                 5           5

----------------------------------------------------------------------------------------

 
 
 KPOINTS: g                                       

Automatic generation of k-mesh.
Space group operators:
 irot       det(A)        alpha          n_x          n_y          n_z        tau_x        tau_y        tau_z
    1     1.000000     0.000000     1.000000     0.000000     0.000000     0.000000     0.000000     0.000000
 
 Subroutine IBZKPT returns following result:
 ===========================================
 
 Found      1 irreducible k-points:
 
 Following reciprocal coordinates:
            Coordinates               Weight
  0.000000  0.000000  0.000000      1.000000
 
 Following cartesian coordinates:
            Coordinates               Weight
  0.000000  0.000000  0.000000      1.000000
 


--------------------------------------------------------------------------------------------------------




 Dimension of arrays:
   k-points           NKPTS =      1   k-points in BZ     NKDIM =      1   number of bands    NBANDS=     32
   number of dos      NEDOS =    301   number of ions     NIONS =      5
   non local maximal  LDIM  =      4   non local SUM 2l+1 LMDIM =      8
   total plane-waves  NPLWV = ******
   max r-space proj   IRMAX =      1   max aug-charges    IRDMAX=   9386
   dimension x,y,z NGX =   378 NGY =  378 NGZ =  378
   dimension x,y,z NGXF=   756 NGYF=  756 NGZF=  756
   support grid    NGXF=   756 NGYF=  756 NGZF=  756
   ions per type =               2   1   2
   NGX,Y,Z   is equivalent  to a cutoff of  17.95, 17.95, 17.95 a.u.
   NGXF,Y,Z  is equivalent  to a cutoff of  35.91, 35.91, 35.91 a.u.

 SYSTEM =  C                                       
 POSCAR =   H  C  O                                

 Startparameter for this run:
   NWRITE =      2    write-flag & timer
   PREC   = acc       normal or accurate (medium, high low for compatibility)
   ISTART =      0    job   : 0-new  1-cont  2-samecut
   ICHARG =      2    charge: 1-file 2-atom 10-const
   ISPIN  =      1    spin polarized calculation?
   LNONCOLLINEAR =      F non collinear calculations
   LSORBIT =      F    spin-orbit coupling
   INIWAV =      1    electr: 0-lowe 1-rand  2-diag
   LASPH  =      T    aspherical Exc in radial PAW
   METAGGA=      F    non-selfconsistent MetaGGA calc.

 Electronic Relaxation 1
   ENCUT  = 1000.0 eV  73.50 Ry    8.57 a.u.  90.25 90.25 90.25*2*pi/ulx,y,z
   ENINI  = 1000.0     initial cutoff
   ENAUG  = 1000.0 eV  augmentation charge cutoff
   NELM   =     60;   NELMIN=  2; NELMDL= -5     # of ELM steps 
   EDIFF  = 0.1E-06   stopping-criterion for ELM
   LREAL  =      F    real-space projection
   NLSPLINE    = F    spline interpolate recip. space projectors
   LCOMPAT=      F    compatible to vasp.4.4
   GGA_COMPAT  = T    GGA compatible to vasp.4.4-vasp.4.6
   LMAXPAW     = -100 max onsite density
   LMAXMIX     =    2 max onsite mixed and CHGCAR
   VOSKOWN=      0    Vosko Wilk Nusair interpolation
   ROPT   =    0.00000   0.00000   0.00000
 Ionic relaxation
   EDIFFG = 0.1E-05   stopping-criterion for IOM
   NSW    =      0    number of steps for IOM
   NBLOCK =      1;   KBLOCK =      1    inner block; outer block 
   IBRION =     -1    ionic relax: 0-MD 1-quasi-New 2-CG
   NFREE  =      0    steps in history (QN), initial steepest desc. (CG)
   ISIF   =      2    stress and relaxation
   IWAVPR =     10    prediction:  0-non 1-charg 2-wave 3-comb
   ISYM   =      2    0-nonsym 1-usesym 2-fastsym
   LCORR  =      T    Harris-Foulkes like correction to forces

   POTIM  = 0.5000    time-step for ionic-motion
   TEIN   =    0.0    initial temperature
   TEBEG  =    0.0;   TEEND  =   0.0 temperature during run
   SMASS  =  -3.00    Nose mass-parameter (am)
   estimated Nose-frequenzy (Omega)   =  0.10E-29 period in steps = 0.13E+47 mass=  -0.280E-25a.u.
   SCALEE = 1.0000    scale energy and forces
   NPACO  =    256;   APACO  = 16.0  distance and # of slots for P.C.
   PSTRESS=    0.0 pullay stress

  Mass of Ions in am
   POMASS =   1.00 12.01 16.00
  Ionic Valenz
   ZVAL   =   1.00  4.00  6.00
  Atomic Wigner-Seitz radii
   RWIGS  =  -1.00 -1.00 -1.00
  virtual crystal weights 
   VCA    =   1.00  1.00  1.00
   NELECT =      18.0000    total number of electrons
   NUPDOWN=      -1.0000    fix difference up-down

 DOS related values:
   EMIN   =  10.00;   EMAX   =-10.00  energy-range for DOS
   EFERMI =   0.00
   ISMEAR =     0;   SIGMA  =   0.01  broadening in eV -4-tet -1-fermi 0-gaus

 Electronic relaxation 2 (details)
   IALGO  =     38    algorithm
   LDIAG  =      T    sub-space diagonalisation (order eigenvalues)
   LSUBROT=      F    optimize rotation matrix (better conditioning)
   TURBO    =      0    0=normal 1=particle mesh
   IRESTART =      0    0=no restart 2=restart with 2 vectors
   NREBOOT  =      0    no. of reboots
   NMIN     =      0    reboot dimension
   EREF     =   0.00    reference energy to select bands
   IMIX   =      4    mixing-type and parameters
     AMIX     =   0.40;   BMIX     =  1.00
     AMIX_MAG =   1.60;   BMIX_MAG =  1.00
     AMIN     =   0.10
     WC   =   100.;   INIMIX=   1;  MIXPRE=   1;  MAXMIX= -45

 Intra band minimization:
   WEIMIN = 0.0000     energy-eigenvalue tresh-hold
   EBREAK =  0.78E-09  absolut break condition
   DEPER  =   0.30     relativ break condition  

   TIME   =   0.40     timestep for ELM

  volume/ion in A,a.u.               =    8575.00     57866.96
  Fermi-wavevector in a.u.,A,eV,Ry     =   0.122583  0.231649  0.204450  0.015027
  Thomas-Fermi vector in A             =   0.746568
 
 Write flags
   LWAVE        =      T    write WAVECAR
   LDOWNSAMPLE  =      F    k-point downsampling of WAVECAR
   LCHARG       =      T    write CHGCAR
   LVTOT        =      F    write LOCPOT, total local potential
   LVHAR        =      F    write LOCPOT, Hartree potential only
   LELF         =      F    write electronic localiz. function (ELF)
   LORBIT       =      0    0 simple, 1 ext, 2 COOP (PROOUT), +10 PAW based schemes


 Dipole corrections
   LMONO  =      F    monopole corrections only (constant potential shift)
   LDIPOL =      F    correct potential (dipole corrections)
   IDIPOL =      4    1-x, 2-y, 3-z, 4-all directions 
   EPSILON=  1.0000000 bulk dielectric constant

 Exchange correlation treatment:
   GGA     =    --    GGA type
   LEXCH   =     8    internal setting for exchange type
   VOSKOWN=      0    Vosko Wilk Nusair interpolation
   LHFCALC =     F    Hartree Fock is set to
   LHFONE  =     F    Hartree Fock one center treatment
   AEXX    =    0.0000 exact exchange contribution

 Linear response parameters
   LEPSILON=     F    determine dielectric tensor
   LRPA    =     F    only Hartree local field effects (RPA)
   LNABLA  =     F    use nabla operator in PAW spheres
   LVEL    =     F    velocity operator in full k-point grid
   LINTERFAST=   F  fast interpolation
   KINTER  =     0    interpolate to denser k-point grid
   CSHIFT  =0.1000    complex shift for real part using Kramers Kronig
   OMEGAMAX=  -1.0    maximum frequency
   DEG_THRESHOLD= 0.2000000E-02 threshold for treating states as degnerate
   RTIME   =   -0.100 relaxation time in fs
  (WPLASMAI=    0.000 imaginary part of plasma frequency in eV, 0.658/RTIME)
   DFIELD  = 0.0000000 0.0000000 0.0000000 field for delta impulse in time
 
 Orbital magnetization related:
   ORBITALMAG=     F  switch on orbital magnetization
   LCHIMAG   =     F  perturbation theory with respect to B field
   DQ        =  0.001000  dq finite difference perturbation B field
   LLRAUG    =     F  two centre corrections for induced B field



--------------------------------------------------------------------------------------------------------


 Static calculation
 charge density and potential will be updated during run
 non-spin polarized calculation
 Variant of blocked Davidson
 Davidson routine will perform the subspace rotation
 perform sub-space diagonalisation
    after iterative eigenvector-optimisation
 modified Broyden-mixing scheme, WC =      100.0
 initial mixing is a Kerker type mixing with AMIX =  0.4000 and BMIX =      1.0000
 Hartree-type preconditioning will be used
 using additional bands            23
 reciprocal scheme for non local part
 use partial core corrections
 calculate Harris-corrections to forces 
   (improved forces if not selfconsistent)
 use gradient corrections 
 use of overlap-Matrix (Vanderbilt PP)
 Gauss-broadening in eV      SIGMA  =   0.01


--------------------------------------------------------------------------------------------------------


  energy-cutoff  :     1000.00
  volume of cell :    42875.00
      direct lattice vectors                 reciprocal lattice vectors
    35.000000000  0.000000000  0.000000000     0.028571429  0.000000000  0.000000000
     0.000000000 35.000000000  0.000000000     0.000000000  0.028571429  0.000000000
     0.000000000  0.000000000 35.000000000     0.000000000  0.000000000  0.028571429

  length of vectors
    35.000000000 35.000000000 35.000000000     0.028571429  0.028571429  0.028571429


 
 k-points in units of 2pi/SCALE and weight: g                                       
   0.00000000  0.00000000  0.00000000       1.000
 
 k-points in reciprocal lattice and weights: g                                       
   0.00000000  0.00000000  0.00000000       1.000
 
 position of ions in fractional coordinates (direct lattice) 
   0.00084868  0.18803936  0.97757108
   0.00039005  0.19009353  0.02084119
   0.00000000  0.00252160  0.00000000
   0.00000000  0.03506303  0.00000000
   0.00000000  0.17220589  0.00000000
 
 position of ions in cartesian coordinates  (Angst):
   0.02970387  6.58137746 34.21498793
   0.01365177  6.65327352  0.72944182
   0.00000000  0.08825600  0.00000000
   0.00000000  1.22720600  0.00000000
   0.00000000  6.02720600  0.00000000
 


--------------------------------------------------------------------------------------------------------


 use serial FFT for orbitals x direction half grid
 k-point   1 :   0.0000 0.0000 0.0000  plane waves: 1539209

 maximum and minimum number of plane-waves per node :   1539209  1539209

 maximum number of plane-waves:   1539209
 maximum index in each direction: 
   IXMAX=   90   IYMAX=   90   IZMAX=   90
   IXMIN=    0   IYMIN=  -90   IZMIN=  -90


 serial   3D FFT for wavefunctions
 parallel 3D FFT for charge:
    minimum data exchange during FFTs selected (reduces bandwidth)


 total amount of memory used by VASP MPI-rank0  4191804. kBytes
=======================================================================

   base      :      30000. kBytes
   nonl-proj :     418671. kBytes
   fftplans  :     676185. kBytes
   grid      :    3042313. kBytes
   one-center:          7. kBytes
   wavefun   :      24628. kBytes
 
     INWAV:  cpu time    0.0000: real time    0.0000
 Broyden mixing: mesh for mixing (old mesh)
   NGX =181   NGY =181   NGZ =181
  (NGX  =756   NGY  =756   NGZ  =756)
  gives a total of ****** points

 initial charge density was supplied:
 charge density of overlapping atoms calculated
 number of electron      18.0000000 magnetization 
 keeping initial charge density in first step


--------------------------------------------------------------------------------------------------------


 Maximum index for augmentation-charges           520 (set IRDMAX)


--------------------------------------------------------------------------------------------------------


 First call to EWALD:  gamma=   0.051
 Maximum number of real-space cells 3x 3x 3
 Maximum number of reciprocal cells 3x 3x 3

    FEWALD:  cpu time    0.0017: real time    0.0017


--------------------------------------- Iteration      1(   1)  ---------------------------------------


    POTLOK:  cpu time   13.6110: real time   13.6347
    SETDIJ:  cpu time    0.0490: real time    0.0495
     EDDAV:  cpu time   14.0550: real time   14.0907
       DOS:  cpu time    0.0027: real time    0.0027
    --------------------------------------------
      LOOP:  cpu time   27.7177: real time   27.7776

 eigenvalue-minimisations  :    96
 total energy-change (2. order) : 0.1658823E+03  (-0.2884578E+03)
 number of electron      18.0000000 magnetization 
 augmentation part       18.0000000 magnetization 

 Free energy of the ion-electron system (eV)
  ---------------------------------------------------
  alpha Z        PSCENC =         0.02084913
  Ewald energy   TEWEN  =       520.79200541
  -Hartree energ DENC   =     -1335.08471611
  -exchange      EXHF   =         0.00000000
  -V(xc)+E(xc)   XCENC  =        62.11629573
  PAW double counting   =       810.18903546     -807.36841507
  entropy T*S    EENTRO =        -0.00001366
  eigenvalues    EBANDS =      -121.63468447
  atomic energy  EATOM  =      1036.85193878
  Solvation  Ediel_sol  =         0.00000000
  ---------------------------------------------------
  free energy    TOTEN  =       165.88229519 eV

  energy without entropy =      165.88230885  energy(sigma->0) =      165.88230202


--------------------------------------------------------------------------------------------------------




--------------------------------------- Iteration      1(   2)  ---------------------------------------


     EDDAV:  cpu time   17.6189: real time   17.6568
       DOS:  cpu time    0.0085: real time    0.0085
    --------------------------------------------
      LOOP:  cpu time   17.6274: real time   17.6654

 eigenvalue-minimisations  :   128
 total energy-change (2. order) :-0.1124238E+03  (-0.1124233E+03)
 number of electron      18.0000000 magnetization 
 augmentation part       18.0000000 magnetization 

 Free energy of the ion-electron system (eV)
  ---------------------------------------------------
  alpha Z        PSCENC =         0.02084913
  Ewald energy   TEWEN  =       520.79200541
  -Hartree energ DENC   =     -1335.08471611
  -exchange      EXHF   =         0.00000000
  -V(xc)+E(xc)   XCENC  =        62.11629573
  PAW double counting   =       810.18903546     -807.36841507
  entropy T*S    EENTRO =        -0.00000000
  eigenvalues    EBANDS =      -234.05849832
  atomic energy  EATOM  =      1036.85193878
  Solvation  Ediel_sol  =         0.00000000
  ---------------------------------------------------
  free energy    TOTEN  =        53.45849500 eV

  energy without entropy =       53.45849500  energy(sigma->0) =       53.45849500


--------------------------------------------------------------------------------------------------------




--------------------------------------- Iteration      1(   3)  ---------------------------------------


     EDDAV:  cpu time   14.1272: real time   14.1565
       DOS:  cpu time    0.0009: real time    0.0009
    --------------------------------------------
      LOOP:  cpu time   14.1281: real time   14.1575

 eigenvalue-minimisations  :    96
 total energy-change (2. order) :-0.7506476E+02  (-0.7506476E+02)
 number of electron      18.0000000 magnetization 
 augmentation part       18.0000000 magnetization 

 Free energy of the ion-electron system (eV)
  ---------------------------------------------------
  alpha Z        PSCENC =         0.02084913
  Ewald energy   TEWEN  =       520.79200541
  -Hartree energ DENC   =     -1335.08471611
  -exchange      EXHF   =         0.00000000
  -V(xc)+E(xc)   XCENC  =        62.11629573
  PAW double counting   =       810.18903546     -807.36841507
  entropy T*S    EENTRO =        -0.00000000
  eigenvalues    EBANDS =      -309.12325682
  atomic energy  EATOM  =      1036.85193878
  Solvation  Ediel_sol  =         0.00000000
  ---------------------------------------------------
  free energy    TOTEN  =       -21.60626350 eV

  energy without entropy =      -21.60626350  energy(sigma->0) =      -21.60626350


--------------------------------------------------------------------------------------------------------




--------------------------------------- Iteration      1(   4)  ---------------------------------------


     EDDAV:  cpu time   14.0905: real time   14.1202
       DOS:  cpu time    0.0061: real time    0.0061
    --------------------------------------------
      LOOP:  cpu time   14.0966: real time   14.1263

 eigenvalue-minimisations  :    96
 total energy-change (2. order) :-0.1046427E+02  (-0.1046427E+02)
 number of electron      18.0000000 magnetization 
 augmentation part       18.0000000 magnetization 

 Free energy of the ion-electron system (eV)
  ---------------------------------------------------
  alpha Z        PSCENC =         0.02084913
  Ewald energy   TEWEN  =       520.79200541
  -Hartree energ DENC   =     -1335.08471611
  -exchange      EXHF   =         0.00000000
  -V(xc)+E(xc)   XCENC  =        62.11629573
  PAW double counting   =       810.18903546     -807.36841507
  entropy T*S    EENTRO =        -0.00000000
  eigenvalues    EBANDS =      -319.58752993
  atomic energy  EATOM  =      1036.85193878
  Solvation  Ediel_sol  =         0.00000000
  ---------------------------------------------------
  free energy    TOTEN  =       -32.07053661 eV

  energy without entropy =      -32.07053661  energy(sigma->0) =      -32.07053661


--------------------------------------------------------------------------------------------------------




--------------------------------------- Iteration      1(   5)  ---------------------------------------


     EDDAV:  cpu time   14.0889: real time   14.1175
       DOS:  cpu time    0.0053: real time    0.0053
    CHARGE:  cpu time    5.3346: real time    5.3429
    MIXING:  cpu time    0.1991: real time    0.1995
    --------------------------------------------
      LOOP:  cpu time   19.6280: real time   19.6652

 eigenvalue-minimisations  :    96
 total energy-change (2. order) :-0.1052651E+00  (-0.1052650E+00)
 number of electron      18.0000000 magnetization 
 augmentation part        0.1359424 magnetization 

 Broyden mixing:
  rms(total) = 0.29830E+01    rms(broyden)= 0.29829E+01
  rms(prec ) = 0.29930E+01
  weight for this iteration     100.00

 Free energy of the ion-electron system (eV)
  ---------------------------------------------------
  alpha Z        PSCENC =         0.02084913
  Ewald energy   TEWEN  =       520.79200541
  -Hartree energ DENC   =     -1335.08471611
  -exchange      EXHF   =         0.00000000
  -V(xc)+E(xc)   XCENC  =        62.11629573
  PAW double counting   =       810.18903546     -807.36841507
  entropy T*S    EENTRO =        -0.00000000
  eigenvalues    EBANDS =      -319.69279498
  atomic energy  EATOM  =      1036.85193878
  Solvation  Ediel_sol  =         0.00000000
  ---------------------------------------------------
  free energy    TOTEN  =       -32.17580166 eV

  energy without entropy =      -32.17580166  energy(sigma->0) =      -32.17580166


--------------------------------------------------------------------------------------------------------




--------------------------------------- Iteration      1(   6)  ---------------------------------------


    POTLOK:  cpu time   13.2534: real time   13.2757
    SETDIJ:  cpu time    0.0483: real time    0.0484
     EDDAV:  cpu time   14.1177: real time   14.1461
       DOS:  cpu time    0.0133: real time    0.0134
    CHARGE:  cpu time    5.2836: real time    5.2920
    MIXING:  cpu time    0.2295: real time    0.2331
    --------------------------------------------
      LOOP:  cpu time   32.9459: real time   33.0087

 eigenvalue-minimisations  :    96
 total energy-change (2. order) : 0.2577447E+01  (-0.1323045E+01)
 number of electron      18.0000000 magnetization 
 augmentation part        0.0617747 magnetization 

 Broyden mixing:
  rms(total) = 0.24028E+01    rms(broyden)= 0.24028E+01
  rms(prec ) = 0.24043E+01
  weight for this iteration     100.00

 eigenvalues of (default mixing * dielectric matrix)
  average eigenvalue GAMMA=   1.2870
  1.2870

 Free energy of the ion-electron system (eV)
  ---------------------------------------------------
  alpha Z        PSCENC =         0.02084913
  Ewald energy   TEWEN  =       520.79200541
  -Hartree energ DENC   =     -1374.23170067
  -exchange      EXHF   =         0.00000000
  -V(xc)+E(xc)   XCENC  =        64.25954111
  PAW double counting   =      2579.37507961    -2577.11844510
  entropy T*S    EENTRO =        -0.00000000
  eigenvalues    EBANDS =      -279.54762275
  atomic energy  EATOM  =      1036.85193878
  Solvation  Ediel_sol  =         0.00000000
  ---------------------------------------------------
  free energy    TOTEN  =       -29.59835448 eV

  energy without entropy =      -29.59835448  energy(sigma->0) =      -29.59835448


--------------------------------------------------------------------------------------------------------




--------------------------------------- Iteration      1(   7)  ---------------------------------------


    POTLOK:  cpu time   13.2285: real time   13.2520
    SETDIJ:  cpu time    0.0483: real time    0.0483
     EDDAV:  cpu time   17.6544: real time   17.6905
       DOS:  cpu time    0.0058: real time    0.0058
    CHARGE:  cpu time    5.1087: real time    5.1172
    MIXING:  cpu time    0.2319: real time    0.2333
    --------------------------------------------
      LOOP:  cpu time   36.2775: real time   36.3470

 eigenvalue-minimisations  :   128
 total energy-change (2. order) : 0.2744740E+00  (-0.1127761E+00)
 number of electron      18.0000000 magnetization 
 augmentation part        0.0718403 magnetization 

 Broyden mixing:
  rms(total) = 0.10565E+01    rms(broyden)= 0.10565E+01
  rms(prec ) = 0.10575E+01
  weight for this iteration     100.00

 eigenvalues of (default mixing * dielectric matrix)
  average eigenvalue GAMMA=   1.6369
  0.9406  2.3333

 Free energy of the ion-electron system (eV)
  ---------------------------------------------------
  alpha Z        PSCENC =         0.02084913
  Ewald energy   TEWEN  =       520.79200541
  -Hartree energ DENC   =     -1381.63386502
  -exchange      EXHF   =         0.00000000
  -V(xc)+E(xc)   XCENC  =        64.69201208
  PAW double counting   =      5723.20536505    -5720.94712852
  entropy T*S    EENTRO =        -0.00000000
  eigenvalues    EBANDS =      -272.30505738
  atomic energy  EATOM  =      1036.85193878
  Solvation  Ediel_sol  =         0.00000000
  ---------------------------------------------------
  free energy    TOTEN  =       -29.32388047 eV

  energy without entropy =      -29.32388047  energy(sigma->0) =      -29.32388047


--------------------------------------------------------------------------------------------------------




--------------------------------------- Iteration      1(   8)  ---------------------------------------


    POTLOK:  cpu time   13.3576: real time   13.3805
    SETDIJ:  cpu time    0.0483: real time    0.0483
     EDDAV:  cpu time   17.6254: real time   17.6622
       DOS:  cpu time    0.0003: real time    0.0003
    CHARGE:  cpu time    5.0616: real time    5.0691
    MIXING:  cpu time    0.2213: real time    0.2217
    --------------------------------------------
      LOOP:  cpu time   36.3144: real time   36.3822

 eigenvalue-minimisations  :   128
 total energy-change (2. order) : 0.9713665E-01  (-0.5124403E-01)
 number of electron      18.0000000 magnetization 
 augmentation part        0.0624699 magnetization 

 Broyden mixing:
  rms(total) = 0.20665E+00    rms(broyden)= 0.20664E+00
  rms(prec ) = 0.20785E+00
  weight for this iteration     100.00

 eigenvalues of (default mixing * dielectric matrix)
  average eigenvalue GAMMA=   1.3331
  2.4570  0.8779  0.6644

 Free energy of the ion-electron system (eV)
  ---------------------------------------------------
  alpha Z        PSCENC =         0.02084913
  Ewald energy   TEWEN  =       520.79200541
  -Hartree energ DENC   =     -1391.60034580
  -exchange      EXHF   =         0.00000000
  -V(xc)+E(xc)   XCENC  =        65.26305287
  PAW double counting   =      9400.50759574    -9398.27974136
  entropy T*S    EENTRO =        -0.00000000
  eigenvalues    EBANDS =      -262.78209859
  atomic energy  EATOM  =      1036.85193878
  Solvation  Ediel_sol  =         0.00000000
  ---------------------------------------------------
  free energy    TOTEN  =       -29.22674382 eV

  energy without entropy =      -29.22674382  energy(sigma->0) =      -29.22674382


--------------------------------------------------------------------------------------------------------




--------------------------------------- Iteration      1(   9)  ---------------------------------------


    POTLOK:  cpu time   13.2467: real time   13.2698
    SETDIJ:  cpu time    0.0483: real time    0.0484
     EDDAV:  cpu time   17.5708: real time   17.6089
       DOS:  cpu time    0.0073: real time    0.0073
    CHARGE:  cpu time    5.0776: real time    5.0852
    MIXING:  cpu time    0.2438: real time    0.2443
    --------------------------------------------
      LOOP:  cpu time   36.1945: real time   36.2639

 eigenvalue-minimisations  :   128
 total energy-change (2. order) : 0.1062943E-01  (-0.6745013E-02)
 number of electron      18.0000000 magnetization 
 augmentation part        0.0652294 magnetization 

 Broyden mixing:
  rms(total) = 0.12464E+00    rms(broyden)= 0.12464E+00
  rms(prec ) = 0.12526E+00
  weight for this iteration     100.00

 eigenvalues of (default mixing * dielectric matrix)
  average eigenvalue GAMMA=   1.6533
  2.6662  2.1311  1.0575  0.7583

 Free energy of the ion-electron system (eV)
  ---------------------------------------------------
  alpha Z        PSCENC =         0.02084913
  Ewald energy   TEWEN  =       520.79200541
  -Hartree energ DENC   =     -1391.39408729
  -exchange      EXHF   =         0.00000000
  -V(xc)+E(xc)   XCENC  =        65.24286124
  PAW double counting   =      9674.83365056    -9672.58564890
  entropy T*S    EENTRO =        -0.00000000
  eigenvalues    EBANDS =      -262.97768331
  atomic energy  EATOM  =      1036.85193878
  Solvation  Ediel_sol  =         0.00000000
  ---------------------------------------------------
  free energy    TOTEN  =       -29.21611439 eV

  energy without entropy =      -29.21611439  energy(sigma->0) =      -29.21611439


--------------------------------------------------------------------------------------------------------




--------------------------------------- Iteration      1(  10)  ---------------------------------------


    POTLOK:  cpu time   13.2313: real time   13.2541
    SETDIJ:  cpu time    0.0484: real time    0.0484
     EDDAV:  cpu time   10.5904: real time   10.6129
       DOS:  cpu time    0.0164: real time    0.0165
    CHARGE:  cpu time    5.0712: real time    5.0793
    MIXING:  cpu time    0.2487: real time    0.2492
    --------------------------------------------
      LOOP:  cpu time   29.2065: real time   29.2604

 eigenvalue-minimisations  :    64
 total energy-change (2. order) :-0.4282196E-02  (-0.1159834E-02)
 number of electron      18.0000000 magnetization 
 augmentation part        0.0658294 magnetization 

 Broyden mixing:
  rms(total) = 0.28757E-01    rms(broyden)= 0.28756E-01
  rms(prec ) = 0.29567E-01
  weight for this iteration     100.00

 eigenvalues of (default mixing * dielectric matrix)
  average eigenvalue GAMMA=   1.4716
  2.4404  1.9781  1.2535  0.9096  0.7763

 Free energy of the ion-electron system (eV)
  ---------------------------------------------------
  alpha Z        PSCENC =         0.02084913
  Ewald energy   TEWEN  =       520.79200541
  -Hartree energ DENC   =     -1392.01625345
  -exchange      EXHF   =         0.00000000
  -V(xc)+E(xc)   XCENC  =        65.22498079
  PAW double counting   =      9612.28414369    -9610.01301488
  entropy T*S    EENTRO =        -0.00000000
  eigenvalues    EBANDS =      -262.36504605
  atomic energy  EATOM  =      1036.85193878
  Solvation  Ediel_sol  =         0.00000000
  ---------------------------------------------------
  free energy    TOTEN  =       -29.22039659 eV

  energy without entropy =      -29.22039659  energy(sigma->0) =      -29.22039659


--------------------------------------------------------------------------------------------------------




--------------------------------------- Iteration      1(  11)  ---------------------------------------


    POTLOK:  cpu time   13.2757: real time   13.2991
    SETDIJ:  cpu time    0.0483: real time    0.0483
     EDDAV:  cpu time   17.6184: real time   17.6550
       DOS:  cpu time    0.0164: real time    0.0165
    CHARGE:  cpu time    5.0423: real time    5.0508
    MIXING:  cpu time    0.3284: real time    0.3291
    --------------------------------------------
      LOOP:  cpu time   36.3296: real time   36.3987

 eigenvalue-minimisations  :   128
 total energy-change (2. order) :-0.2755752E-02  (-0.7278558E-04)
 number of electron      18.0000000 magnetization 
 augmentation part        0.0655608 magnetization 

 Broyden mixing:
  rms(total) = 0.18822E-01    rms(broyden)= 0.18822E-01
  rms(prec ) = 0.19819E-01
  weight for this iteration     100.00

 eigenvalues of (default mixing * dielectric matrix)
  average eigenvalue GAMMA=   1.4760
  2.3596  2.3596  0.7640  0.8948  1.2391  1.2391

 Free energy of the ion-electron system (eV)
  ---------------------------------------------------
  alpha Z        PSCENC =         0.02084913
  Ewald energy   TEWEN  =       520.79200541
  -Hartree energ DENC   =     -1392.31701796
  -exchange      EXHF   =         0.00000000
  -V(xc)+E(xc)   XCENC  =        65.23075577
  PAW double counting   =      9546.97791923    -9544.71048535
  entropy T*S    EENTRO =        -0.00000000
  eigenvalues    EBANDS =      -262.06911734
  atomic energy  EATOM  =      1036.85193878
  Solvation  Ediel_sol  =         0.00000000
  ---------------------------------------------------
  free energy    TOTEN  =       -29.22315234 eV

  energy without entropy =      -29.22315234  energy(sigma->0) =      -29.22315234


--------------------------------------------------------------------------------------------------------




--------------------------------------- Iteration      1(  12)  ---------------------------------------


    POTLOK:  cpu time   13.2701: real time   13.2923
    SETDIJ:  cpu time    0.0483: real time    0.0483
     EDDAV:  cpu time   10.6084: real time   10.6305
       DOS:  cpu time    0.0105: real time    0.0105
    CHARGE:  cpu time    5.3360: real time    5.3440
    MIXING:  cpu time    0.2708: real time    0.2714
    --------------------------------------------
      LOOP:  cpu time   29.5441: real time   29.5969

 eigenvalue-minimisations  :    64
 total energy-change (2. order) :-0.3732564E-02  (-0.4213220E-04)
 number of electron      18.0000000 magnetization 
 augmentation part        0.0654522 magnetization 

 Broyden mixing:
  rms(total) = 0.99188E-02    rms(broyden)= 0.99187E-02
  rms(prec ) = 0.11137E-01
  weight for this iteration     100.00

 eigenvalues of (default mixing * dielectric matrix)
  average eigenvalue GAMMA=   1.5512
  2.9680  2.3526  1.6253  1.1256  1.1256  0.9065  0.7550

 Free energy of the ion-electron system (eV)
  ---------------------------------------------------
  alpha Z        PSCENC =         0.02084913
  Ewald energy   TEWEN  =       520.79200541
  -Hartree energ DENC   =     -1392.62800093
  -exchange      EXHF   =         0.00000000
  -V(xc)+E(xc)   XCENC  =        65.22948318
  PAW double counting   =      9456.54534893    -9454.27765341
  entropy T*S    EENTRO =        -0.00000000
  eigenvalues    EBANDS =      -261.76085599
  atomic energy  EATOM  =      1036.85193878
  Solvation  Ediel_sol  =         0.00000000
  ---------------------------------------------------
  free energy    TOTEN  =       -29.22688490 eV

  energy without entropy =      -29.22688490  energy(sigma->0) =      -29.22688490


--------------------------------------------------------------------------------------------------------




--------------------------------------- Iteration      1(  13)  ---------------------------------------


    POTLOK:  cpu time   13.3259: real time   13.3484
    SETDIJ:  cpu time    0.0483: real time    0.0483
     EDDAV:  cpu time   10.5863: real time   10.6082
       DOS:  cpu time    0.0129: real time    0.0129
    CHARGE:  cpu time    5.2285: real time    5.2364
    MIXING:  cpu time    0.2842: real time    0.2847
    --------------------------------------------
      LOOP:  cpu time   29.4860: real time   29.5390

 eigenvalue-minimisations  :    64
 total energy-change (2. order) :-0.4345692E-02  (-0.9307004E-04)
 number of electron      18.0000000 magnetization 
 augmentation part        0.0654149 magnetization 

 Broyden mixing:
  rms(total) = 0.45519E-02    rms(broyden)= 0.45519E-02
  rms(prec ) = 0.56075E-02
  weight for this iteration     100.00

 eigenvalues of (default mixing * dielectric matrix)
  average eigenvalue GAMMA=   1.4949
  2.6471  2.6471  1.4910  1.4910  0.7607  0.9404  0.9910  0.9910

 Free energy of the ion-electron system (eV)
  ---------------------------------------------------
  alpha Z        PSCENC =         0.02084913
  Ewald energy   TEWEN  =       520.79200541
  -Hartree energ DENC   =     -1393.32878286
  -exchange      EXHF   =         0.00000000
  -V(xc)+E(xc)   XCENC  =        65.24247161
  PAW double counting   =      9486.61390395    -9484.34480620
  entropy T*S    EENTRO =        -0.00000000
  eigenvalues    EBANDS =      -261.07881040
  atomic energy  EATOM  =      1036.85193878
  Solvation  Ediel_sol  =         0.00000000
  ---------------------------------------------------
  free energy    TOTEN  =       -29.23123059 eV

  energy without entropy =      -29.23123059  energy(sigma->0) =      -29.23123059


--------------------------------------------------------------------------------------------------------




--------------------------------------- Iteration      1(  14)  ---------------------------------------


    POTLOK:  cpu time   13.2776: real time   13.3002
    SETDIJ:  cpu time    0.0483: real time    0.0483
     EDDAV:  cpu time   14.0755: real time   14.1049
       DOS:  cpu time    0.0046: real time    0.0046
    CHARGE:  cpu time    5.0896: real time    5.0980
    MIXING:  cpu time    0.3091: real time    0.3097
    --------------------------------------------
      LOOP:  cpu time   32.8047: real time   32.8658

 eigenvalue-minimisations  :    96
 total energy-change (2. order) :-0.2706686E-02  (-0.2684104E-04)
 number of electron      18.0000000 magnetization 
 augmentation part        0.0652634 magnetization 

 Broyden mixing:
  rms(total) = 0.33353E-02    rms(broyden)= 0.33352E-02
  rms(prec ) = 0.42315E-02
  weight for this iteration     100.00

 eigenvalues of (default mixing * dielectric matrix)
  average eigenvalue GAMMA=   1.6579
  3.9886  2.4786  1.8448  1.8448  1.1391  1.1391  0.8638  0.8638  0.7585

 Free energy of the ion-electron system (eV)
  ---------------------------------------------------
  alpha Z        PSCENC =         0.02084913
  Ewald energy   TEWEN  =       520.79200541
  -Hartree energ DENC   =     -1393.52502317
  -exchange      EXHF   =         0.00000000
  -V(xc)+E(xc)   XCENC  =        65.24084757
  PAW double counting   =      9470.52136548    -9468.25233678
  entropy T*S    EENTRO =        -0.00000000
  eigenvalues    EBANDS =      -260.88358369
  atomic energy  EATOM  =      1036.85193878
  Solvation  Ediel_sol  =         0.00000000
  ---------------------------------------------------
  free energy    TOTEN  =       -29.23393728 eV

  energy without entropy =      -29.23393728  energy(sigma->0) =      -29.23393728


--------------------------------------------------------------------------------------------------------




--------------------------------------- Iteration      1(  15)  ---------------------------------------


    POTLOK:  cpu time   13.3543: real time   13.3764
    SETDIJ:  cpu time    0.0483: real time    0.0483
     EDDAV:  cpu time   10.5940: real time   10.6158
       DOS:  cpu time    0.0086: real time    0.0086
    CHARGE:  cpu time    5.0112: real time    5.0193
    MIXING:  cpu time    0.3035: real time    0.3041
    --------------------------------------------
      LOOP:  cpu time   29.3199: real time   29.3724

 eigenvalue-minimisations  :    64
 total energy-change (2. order) :-0.3366480E-02  (-0.5326670E-04)
 number of electron      18.0000000 magnetization 
 augmentation part        0.0652730 magnetization 

 Broyden mixing:
  rms(total) = 0.23136E-02    rms(broyden)= 0.23136E-02
  rms(prec ) = 0.26994E-02
  weight for this iteration     100.00

 eigenvalues of (default mixing * dielectric matrix)
  average eigenvalue GAMMA=   1.8037
  5.2847  2.5705  2.5705  1.5402  1.5402  1.0449  1.0449  0.7590  0.8411  0.8411

 Free energy of the ion-electron system (eV)
  ---------------------------------------------------
  alpha Z        PSCENC =         0.02084913
  Ewald energy   TEWEN  =       520.79200541
  -Hartree energ DENC   =     -1393.93087237
  -exchange      EXHF   =         0.00000000
  -V(xc)+E(xc)   XCENC  =        65.24120476
  PAW double counting   =      9468.45338362    -9466.18291498
  entropy T*S    EENTRO =        -0.00000000
  eigenvalues    EBANDS =      -260.48289810
  atomic energy  EATOM  =      1036.85193878
  Solvation  Ediel_sol  =         0.00000000
  ---------------------------------------------------
  free energy    TOTEN  =       -29.23730376 eV

  energy without entropy =      -29.23730376  energy(sigma->0) =      -29.23730376


--------------------------------------------------------------------------------------------------------




--------------------------------------- Iteration      1(  16)  ---------------------------------------


    POTLOK:  cpu time   13.2464: real time   13.2691
    SETDIJ:  cpu time    0.0483: real time    0.0483
     EDDAV:  cpu time   17.6327: real time   17.6705
       DOS:  cpu time    0.0081: real time    0.0081
    CHARGE:  cpu time    5.0918: real time    5.0998
    MIXING:  cpu time    0.3541: real time    0.3547
    --------------------------------------------
      LOOP:  cpu time   36.3814: real time   36.4506

 eigenvalue-minimisations  :   128
 total energy-change (2. order) :-0.2121736E-02  (-0.3051112E-04)
 number of electron      18.0000000 magnetization 
 augmentation part        0.0651533 magnetization 

 Broyden mixing:
  rms(total) = 0.10199E-02    rms(broyden)= 0.10198E-02
  rms(prec ) = 0.12535E-02
  weight for this iteration     100.00

 eigenvalues of (default mixing * dielectric matrix)
  average eigenvalue GAMMA=   1.8377
  6.1030  2.9126  2.2683  1.5800  1.5800  1.2064  1.0981  1.0981  0.7542  0.8071
  0.8071

 Free energy of the ion-electron system (eV)
  ---------------------------------------------------
  alpha Z        PSCENC =         0.02084913
  Ewald energy   TEWEN  =       520.79200541
  -Hartree energ DENC   =     -1394.18175750
  -exchange      EXHF   =         0.00000000
  -V(xc)+E(xc)   XCENC  =        65.24194469
  PAW double counting   =      9476.23943722    -9473.96895554
  entropy T*S    EENTRO =        -0.00000000
  eigenvalues    EBANDS =      -260.23488767
  atomic energy  EATOM  =      1036.85193878
  Solvation  Ediel_sol  =         0.00000000
  ---------------------------------------------------
  free energy    TOTEN  =       -29.23942550 eV

  energy without entropy =      -29.23942550  energy(sigma->0) =      -29.23942550


--------------------------------------------------------------------------------------------------------




--------------------------------------- Iteration      1(  17)  ---------------------------------------


    POTLOK:  cpu time   13.3654: real time   13.3882
    SETDIJ:  cpu time    0.0484: real time    0.0484
     EDDAV:  cpu time   10.6078: real time   10.6301
       DOS:  cpu time    0.0095: real time    0.0095
    CHARGE:  cpu time    5.0830: real time    5.0907
    MIXING:  cpu time    0.3260: real time    0.3267
    --------------------------------------------
      LOOP:  cpu time   29.4401: real time   29.4936

 eigenvalue-minimisations  :    64
 total energy-change (2. order) :-0.8457786E-03  (-0.3663254E-05)
 number of electron      18.0000000 magnetization 
 augmentation part        0.0651589 magnetization 

 Broyden mixing:
  rms(total) = 0.11092E-02    rms(broyden)= 0.11092E-02
  rms(prec ) = 0.12087E-02
  weight for this iteration     100.00

 eigenvalues of (default mixing * dielectric matrix)
  average eigenvalue GAMMA=   1.9406
  6.4329  3.5364  2.5389  2.5389  1.5344  1.3273  1.0388  1.0388  0.7566  0.8446
  0.8446  0.8549

 Free energy of the ion-electron system (eV)
  ---------------------------------------------------
  alpha Z        PSCENC =         0.02084913
  Ewald energy   TEWEN  =       520.79200541
  -Hartree energ DENC   =     -1394.23617801
  -exchange      EXHF   =         0.00000000
  -V(xc)+E(xc)   XCENC  =        65.24024215
  PAW double counting   =      9472.45282543    -9470.18204595
  entropy T*S    EENTRO =        -0.00000000
  eigenvalues    EBANDS =      -260.17990821
  atomic energy  EATOM  =      1036.85193878
  Solvation  Ediel_sol  =         0.00000000
  ---------------------------------------------------
  free energy    TOTEN  =       -29.24027127 eV

  energy without entropy =      -29.24027127  energy(sigma->0) =      -29.24027127


--------------------------------------------------------------------------------------------------------




--------------------------------------- Iteration      1(  18)  ---------------------------------------


    POTLOK:  cpu time   13.3257: real time   13.3482
    SETDIJ:  cpu time    0.0483: real time    0.0483
     EDDAV:  cpu time   17.6135: real time   17.6501
       DOS:  cpu time    0.0214: real time    0.0214
    CHARGE:  cpu time    5.0638: real time    5.0716
    MIXING:  cpu time    0.3438: real time    0.3445
    --------------------------------------------
      LOOP:  cpu time   36.4165: real time   36.4841

 eigenvalue-minimisations  :   128
 total energy-change (2. order) :-0.9054364E-03  (-0.6657818E-05)
 number of electron      18.0000000 magnetization 
 augmentation part        0.0651497 magnetization 

 Broyden mixing:
  rms(total) = 0.87612E-03    rms(broyden)= 0.87612E-03
  rms(prec ) = 0.90730E-03
  weight for this iteration     100.00

 eigenvalues of (default mixing * dielectric matrix)
  average eigenvalue GAMMA=   1.9894
  7.6464  3.6783  2.7116  2.4349  1.5035  1.5035  1.1235  1.0373  1.0373  0.8732
  0.7570  0.7777  0.7777

 Free energy of the ion-electron system (eV)
  ---------------------------------------------------
  alpha Z        PSCENC =         0.02084913
  Ewald energy   TEWEN  =       520.79200541
  -Hartree energ DENC   =     -1394.26960721
  -exchange      EXHF   =         0.00000000
  -V(xc)+E(xc)   XCENC  =        65.23908249
  PAW double counting   =      9475.79018419    -9473.51922030
  entropy T*S    EENTRO =        -0.00000000
  eigenvalues    EBANDS =      -260.14640920
  atomic energy  EATOM  =      1036.85193878
  Solvation  Ediel_sol  =         0.00000000
  ---------------------------------------------------
  free energy    TOTEN  =       -29.24117671 eV

  energy without entropy =      -29.24117671  energy(sigma->0) =      -29.24117671


--------------------------------------------------------------------------------------------------------




--------------------------------------- Iteration      1(  19)  ---------------------------------------


    POTLOK:  cpu time   13.3190: real time   13.3418
    SETDIJ:  cpu time    0.0483: real time    0.0483
     EDDAV:  cpu time   17.6255: real time   17.6623
       DOS:  cpu time    0.0063: real time    0.0063
    CHARGE:  cpu time    5.0104: real time    5.0186
    MIXING:  cpu time    0.3496: real time    0.3504
    --------------------------------------------
      LOOP:  cpu time   36.3590: real time   36.4276

 eigenvalue-minimisations  :   128
 total energy-change (2. order) :-0.1892984E-03  (-0.3918370E-06)
 number of electron      18.0000000 magnetization 
 augmentation part        0.0651583 magnetization 

 Broyden mixing:
  rms(total) = 0.65864E-03    rms(broyden)= 0.65863E-03
  rms(prec ) = 0.67842E-03
  weight for this iteration     100.00

 eigenvalues of (default mixing * dielectric matrix)
  average eigenvalue GAMMA=   2.0762
  8.0553  4.4662  2.5143  2.5143  1.8737  1.8737  1.4539  1.0992  1.0992  0.9068
  0.8431  0.8431  0.7518  0.7719

 Free energy of the ion-electron system (eV)
  ---------------------------------------------------
  alpha Z        PSCENC =         0.02084913
  Ewald energy   TEWEN  =       520.79200541
  -Hartree energ DENC   =     -1394.28024438
  -exchange      EXHF   =         0.00000000
  -V(xc)+E(xc)   XCENC  =        65.23848015
  PAW double counting   =      9475.72475581    -9473.45365511
  entropy T*S    EENTRO =        -0.00000000
  eigenvalues    EBANDS =      -260.13549579
  atomic energy  EATOM  =      1036.85193878
  Solvation  Ediel_sol  =         0.00000000
  ---------------------------------------------------
  free energy    TOTEN  =       -29.24136601 eV

  energy without entropy =      -29.24136601  energy(sigma->0) =      -29.24136601


--------------------------------------------------------------------------------------------------------




--------------------------------------- Iteration      1(  20)  ---------------------------------------


    POTLOK:  cpu time   13.2949: real time   13.3174
    SETDIJ:  cpu time    0.0483: real time    0.0484
     EDDAV:  cpu time   17.6537: real time   17.6908
       DOS:  cpu time    0.0070: real time    0.0070
    CHARGE:  cpu time    5.2331: real time    5.2412
    MIXING:  cpu time    0.3797: real time    0.3835
    --------------------------------------------
      LOOP:  cpu time   36.6166: real time   36.6881

 eigenvalue-minimisations  :   128
 total energy-change (2. order) :-0.2381389E-03  (-0.6747641E-06)
 number of electron      18.0000000 magnetization 
 augmentation part        0.0651621 magnetization 

 Broyden mixing:
  rms(total) = 0.17797E-03    rms(broyden)= 0.17797E-03
  rms(prec ) = 0.19559E-03
  weight for this iteration     100.00

 eigenvalues of (default mixing * dielectric matrix)
  average eigenvalue GAMMA=   2.1538
  8.5484  5.1723  2.8446  2.8446  2.4303  1.5313  1.5313  1.1600  1.0761  1.0761
  0.9293  0.8179  0.8179  0.7541  0.7722

 Free energy of the ion-electron system (eV)
  ---------------------------------------------------
  alpha Z        PSCENC =         0.02084913
  Ewald energy   TEWEN  =       520.79200541
  -Hartree energ DENC   =     -1394.28174148
  -exchange      EXHF   =         0.00000000
  -V(xc)+E(xc)   XCENC  =        65.23773108
  PAW double counting   =      9473.87342827    -9471.60234334
  entropy T*S    EENTRO =        -0.00000000
  eigenvalues    EBANDS =      -260.13347199
  atomic energy  EATOM  =      1036.85193878
  Solvation  Ediel_sol  =         0.00000000
  ---------------------------------------------------
  free energy    TOTEN  =       -29.24160415 eV

  energy without entropy =      -29.24160415  energy(sigma->0) =      -29.24160415


--------------------------------------------------------------------------------------------------------




--------------------------------------- Iteration      1(  21)  ---------------------------------------


    POTLOK:  cpu time   13.3297: real time   13.3527
    SETDIJ:  cpu time    0.0484: real time    0.0484
     EDDAV:  cpu time   17.5890: real time   17.6293
       DOS:  cpu time    0.0061: real time    0.0061
    CHARGE:  cpu time    5.1096: real time    5.1177
    MIXING:  cpu time    0.3790: real time    0.3798
    --------------------------------------------
      LOOP:  cpu time   36.4619: real time   36.5341

 eigenvalue-minimisations  :   128
 total energy-change (2. order) :-0.8921201E-04  (-0.1571224E-06)
 number of electron      18.0000000 magnetization 
 augmentation part        0.0651580 magnetization 

 Broyden mixing:
  rms(total) = 0.31695E-03    rms(broyden)= 0.31695E-03
  rms(prec ) = 0.32006E-03
  weight for this iteration     100.00

 eigenvalues of (default mixing * dielectric matrix)
  average eigenvalue GAMMA=   2.2360
  8.9901  5.5475  3.4217  2.5352  2.5352  2.2874  1.5880  1.5880  1.0849  1.0849
  0.9519  0.9519  0.8353  0.8353  0.7563  0.7828

 Free energy of the ion-electron system (eV)
  ---------------------------------------------------
  alpha Z        PSCENC =         0.02084913
  Ewald energy   TEWEN  =       520.79200541
  -Hartree energ DENC   =     -1394.28660172
  -exchange      EXHF   =         0.00000000
  -V(xc)+E(xc)   XCENC  =        65.23768612
  PAW double counting   =      9472.82446283    -9470.55344611
  entropy T*S    EENTRO =        -0.00000000
  eigenvalues    EBANDS =      -260.12858779
  atomic energy  EATOM  =      1036.85193878
  Solvation  Ediel_sol  =         0.00000000
  ---------------------------------------------------
  free energy    TOTEN  =       -29.24169336 eV

  energy without entropy =      -29.24169336  energy(sigma->0) =      -29.24169336


--------------------------------------------------------------------------------------------------------




--------------------------------------- Iteration      1(  22)  ---------------------------------------


    POTLOK:  cpu time   13.2614: real time   13.2842
    SETDIJ:  cpu time    0.0495: real time    0.0495
     EDDAV:  cpu time   17.6286: real time   17.6649
       DOS:  cpu time    0.0065: real time    0.0065
    CHARGE:  cpu time    5.1899: real time    5.1980
    MIXING:  cpu time    0.3883: real time    0.3892
    --------------------------------------------
      LOOP:  cpu time   36.5241: real time   36.5923

 eigenvalue-minimisations  :   128
 total energy-change (2. order) :-0.4796527E-04  (-0.4895467E-07)
 number of electron      18.0000000 magnetization 
 augmentation part        0.0651549 magnetization 

 Broyden mixing:
  rms(total) = 0.43566E-04    rms(broyden)= 0.43560E-04
  rms(prec ) = 0.48151E-04
  weight for this iteration     100.00

 eigenvalues of (default mixing * dielectric matrix)
  average eigenvalue GAMMA=   2.2292
  9.1536  5.8110  3.7036  2.4884  2.4884  2.4115  1.6196  1.6196  1.3342  1.0848
  1.0848  0.9759  0.9251  0.8314  0.8314  0.7561  0.7774

 Free energy of the ion-electron system (eV)
  ---------------------------------------------------
  alpha Z        PSCENC =         0.02084913
  Ewald energy   TEWEN  =       520.79200541
  -Hartree energ DENC   =     -1394.29254752
  -exchange      EXHF   =         0.00000000
  -V(xc)+E(xc)   XCENC  =        65.23784371
  PAW double counting   =      9473.67954609    -9471.40853912
  entropy T*S    EENTRO =        -0.00000000
  eigenvalues    EBANDS =      -260.12283779
  atomic energy  EATOM  =      1036.85193878
  Solvation  Ediel_sol  =         0.00000000
  ---------------------------------------------------
  free energy    TOTEN  =       -29.24174133 eV

  energy without entropy =      -29.24174133  energy(sigma->0) =      -29.24174133


--------------------------------------------------------------------------------------------------------




--------------------------------------- Iteration      1(  23)  ---------------------------------------


    POTLOK:  cpu time   13.3052: real time   13.3285
    SETDIJ:  cpu time    0.0483: real time    0.0484
     EDDAV:  cpu time   17.6299: real time   17.6667
       DOS:  cpu time    0.0057: real time    0.0057
    CHARGE:  cpu time    5.0191: real time    5.0271
    MIXING:  cpu time    0.4174: real time    0.4183
    --------------------------------------------
      LOOP:  cpu time   36.4257: real time   36.4946

 eigenvalue-minimisations  :   128
 total energy-change (2. order) :-0.1217388E-04  (-0.1029829E-07)
 number of electron      18.0000000 magnetization 
 augmentation part        0.0651567 magnetization 

 Broyden mixing:
  rms(total) = 0.40610E-04    rms(broyden)= 0.40610E-04
  rms(prec ) = 0.42732E-04
  weight for this iteration     100.00

 eigenvalues of (default mixing * dielectric matrix)
  average eigenvalue GAMMA=   2.3223
  9.3922  6.4007  4.3870  2.6869  2.6869  2.5684  2.1345  1.5839  1.5839  1.0850
  1.0850  1.0479  1.0479  0.9115  0.8324  0.8324  0.7557  0.7784

 Free energy of the ion-electron system (eV)
  ---------------------------------------------------
  alpha Z        PSCENC =         0.02084913
  Ewald energy   TEWEN  =       520.79200541
  -Hartree energ DENC   =     -1394.29261931
  -exchange      EXHF   =         0.00000000
  -V(xc)+E(xc)   XCENC  =        65.23780488
  PAW double counting   =      9473.77865909    -9471.50763781
  entropy T*S    EENTRO =        -0.00000000
  eigenvalues    EBANDS =      -260.12275366
  atomic energy  EATOM  =      1036.85193878
  Solvation  Ediel_sol  =         0.00000000
  ---------------------------------------------------
  free energy    TOTEN  =       -29.24175350 eV

  energy without entropy =      -29.24175350  energy(sigma->0) =      -29.24175350


--------------------------------------------------------------------------------------------------------




--------------------------------------- Iteration      1(  24)  ---------------------------------------


    POTLOK:  cpu time   13.2034: real time   13.2268
    SETDIJ:  cpu time    0.0483: real time    0.0483
     EDDAV:  cpu time   17.6281: real time   17.6647
       DOS:  cpu time    0.0108: real time    0.0108
    CHARGE:  cpu time    5.1233: real time    5.1313
    MIXING:  cpu time    0.4388: real time    0.4398
    --------------------------------------------
      LOOP:  cpu time   36.4527: real time   36.5216

 eigenvalue-minimisations  :   128
 total energy-change (2. order) :-0.1131884E-04  (-0.1072867E-07)
 number of electron      18.0000000 magnetization 
 augmentation part        0.0651567 magnetization 

 Broyden mixing:
  rms(total) = 0.35060E-04    rms(broyden)= 0.35059E-04
  rms(prec ) = 0.35551E-04
  weight for this iteration     100.00

 eigenvalues of (default mixing * dielectric matrix)
  average eigenvalue GAMMA=   2.2775
  9.4967  6.5548  4.5441  2.8774  2.5063  2.5063  2.1104  1.6021  1.6021  1.0660
  1.0660  1.1461  1.1461  0.9232  0.9232  0.8329  0.8329  0.7557  0.7799

 Free energy of the ion-electron system (eV)
  ---------------------------------------------------
  alpha Z        PSCENC =         0.02084913
  Ewald energy   TEWEN  =       520.79200541
  -Hartree energ DENC   =     -1394.29318110
  -exchange      EXHF   =         0.00000000
  -V(xc)+E(xc)   XCENC  =        65.23780415
  PAW double counting   =      9473.83041842    -9471.55939401
  entropy T*S    EENTRO =        -0.00000000
  eigenvalues    EBANDS =      -260.12220559
  atomic energy  EATOM  =      1036.85193878
  Solvation  Ediel_sol  =         0.00000000
  ---------------------------------------------------
  free energy    TOTEN  =       -29.24176482 eV

  energy without entropy =      -29.24176482  energy(sigma->0) =      -29.24176482


--------------------------------------------------------------------------------------------------------




--------------------------------------- Iteration      1(  25)  ---------------------------------------


    POTLOK:  cpu time   13.3051: real time   13.3281
    SETDIJ:  cpu time    0.0484: real time    0.0484
     EDDAV:  cpu time   17.6058: real time   17.6428
       DOS:  cpu time    0.0003: real time    0.0003
    CHARGE:  cpu time    5.3755: real time    5.3843
    MIXING:  cpu time    0.5117: real time    0.5127
    --------------------------------------------
      LOOP:  cpu time   36.8468: real time   36.9164

 eigenvalue-minimisations  :   128
 total energy-change (2. order) :-0.1965188E-05  (-0.5456886E-08)
 number of electron      18.0000000 magnetization 
 augmentation part        0.0651564 magnetization 

 Broyden mixing:
  rms(total) = 0.17885E-04    rms(broyden)= 0.17885E-04
  rms(prec ) = 0.18450E-04
  weight for this iteration     100.00

 eigenvalues of (default mixing * dielectric matrix)
  average eigenvalue GAMMA=   2.3805
  9.6006  6.9939  5.0147  3.6081  2.6567  2.6567  2.4141  2.0567  1.5838  1.5838
  1.0792  1.0792  1.0943  1.0943  0.9713  0.9202  0.8334  0.8334  0.7557  0.7795

 Free energy of the ion-electron system (eV)
  ---------------------------------------------------
  alpha Z        PSCENC =         0.02084913
  Ewald energy   TEWEN  =       520.79200541
  -Hartree energ DENC   =     -1394.29337027
  -exchange      EXHF   =         0.00000000
  -V(xc)+E(xc)   XCENC  =        65.23780822
  PAW double counting   =      9473.78367490    -9471.51265373
  entropy T*S    EENTRO =        -0.00000000
  eigenvalues    EBANDS =      -260.12201922
  atomic energy  EATOM  =      1036.85193878
  Solvation  Ediel_sol  =         0.00000000
  ---------------------------------------------------
  free energy    TOTEN  =       -29.24176678 eV

  energy without entropy =      -29.24176678  energy(sigma->0) =      -29.24176678


--------------------------------------------------------------------------------------------------------




--------------------------------------- Iteration      1(  26)  ---------------------------------------


    POTLOK:  cpu time   13.2843: real time   13.3075
    SETDIJ:  cpu time    0.0483: real time    0.0484
     EDDAV:  cpu time   17.6710: real time   17.7078
       DOS:  cpu time    0.0069: real time    0.0069
    CHARGE:  cpu time    5.1158: real time    5.1233
    MIXING:  cpu time    0.4784: real time    0.4794
    --------------------------------------------
      LOOP:  cpu time   36.6048: real time   36.6734

 eigenvalue-minimisations  :   128
 total energy-change (2. order) :-0.3146196E-05  (-0.5902269E-08)
 number of electron      18.0000000 magnetization 
 augmentation part        0.0651567 magnetization 

 Broyden mixing:
  rms(total) = 0.10146E-04    rms(broyden)= 0.10146E-04
  rms(prec ) = 0.10293E-04
  weight for this iteration     100.00

 eigenvalues of (default mixing * dielectric matrix)
  average eigenvalue GAMMA=   2.3550
  9.6255  7.1288  5.2620  3.7999  2.6204  2.6204  2.4711  2.1481  1.5860  1.5860
  1.1658  1.1658  1.0808  1.0808  0.9966  0.9966  0.9179  0.8337  0.8337  0.7557
  0.7794

 Free energy of the ion-electron system (eV)
  ---------------------------------------------------
  alpha Z        PSCENC =         0.02084913
  Ewald energy   TEWEN  =       520.79200541
  -Hartree energ DENC   =     -1394.29305779
  -exchange      EXHF   =         0.00000000
  -V(xc)+E(xc)   XCENC  =        65.23778577
  PAW double counting   =      9473.70856307    -9471.43753972
  entropy T*S    EENTRO =        -0.00000000
  eigenvalues    EBANDS =      -260.12231457
  atomic energy  EATOM  =      1036.85193878
  Solvation  Ediel_sol  =         0.00000000
  ---------------------------------------------------
  free energy    TOTEN  =       -29.24176993 eV

  energy without entropy =      -29.24176993  energy(sigma->0) =      -29.24176993


--------------------------------------------------------------------------------------------------------




--------------------------------------- Iteration      1(  27)  ---------------------------------------


    POTLOK:  cpu time   13.2593: real time   13.2815
    SETDIJ:  cpu time    0.0484: real time    0.0484
     EDDAV:  cpu time   17.6405: real time   17.6765
       DOS:  cpu time    0.0161: real time    0.0161
    CHARGE:  cpu time    5.1957: real time    5.2041
    MIXING:  cpu time    0.5005: real time    0.5015
    --------------------------------------------
      LOOP:  cpu time   36.6604: real time   36.7282

 eigenvalue-minimisations  :   128
 total energy-change (2. order) :-0.4648361E-06  (-0.4435654E-08)
 number of electron      18.0000000 magnetization 
 augmentation part        0.0651567 magnetization 

 Broyden mixing:
  rms(total) = 0.69204E-05    rms(broyden)= 0.69203E-05
  rms(prec ) = 0.70316E-05
  weight for this iteration     100.00

 eigenvalues of (default mixing * dielectric matrix)
  average eigenvalue GAMMA=   2.3808
  9.6591  7.3842  5.5238  4.1061  2.9156  2.5128  2.5128  2.2400  1.9413  1.5832
  1.5832  1.0823  1.0823  1.1642  0.7557  0.7795  0.8333  0.8333  1.0185  1.0185
  0.9242  0.9242

 Free energy of the ion-electron system (eV)
  ---------------------------------------------------
  alpha Z        PSCENC =         0.02084913
  Ewald energy   TEWEN  =       520.79200541
  -Hartree energ DENC   =     -1394.29304511
  -exchange      EXHF   =         0.00000000
  -V(xc)+E(xc)   XCENC  =        65.23778474
  PAW double counting   =      9473.71165601    -9471.44063249
  entropy T*S    EENTRO =        -0.00000000
  eigenvalues    EBANDS =      -260.12232686
  atomic energy  EATOM  =      1036.85193878
  Solvation  Ediel_sol  =         0.00000000
  ---------------------------------------------------
  free energy    TOTEN  =       -29.24177039 eV

  energy without entropy =      -29.24177039  energy(sigma->0) =      -29.24177039


--------------------------------------------------------------------------------------------------------




--------------------------------------- Iteration      1(  28)  ---------------------------------------


    POTLOK:  cpu time   13.3088: real time   13.3313
    SETDIJ:  cpu time    0.0484: real time    0.0484
     EDDAV:  cpu time   17.6054: real time   17.6421
       DOS:  cpu time    0.0103: real time    0.0103
    CHARGE:  cpu time    5.0369: real time    5.0450
    MIXING:  cpu time    0.5127: real time    0.5139
    --------------------------------------------
      LOOP:  cpu time   36.5226: real time   36.5911

 eigenvalue-minimisations  :   128
 total energy-change (2. order) :-0.4604360E-06  (-0.3738480E-08)
 number of electron      18.0000000 magnetization 
 augmentation part        0.0651566 magnetization 

 Broyden mixing:
  rms(total) = 0.14672E-05    rms(broyden)= 0.14671E-05
  rms(prec ) = 0.15891E-05
  weight for this iteration     100.00

 eigenvalues of (default mixing * dielectric matrix)
  average eigenvalue GAMMA=   2.4090
  9.6950  7.6385  5.7944  4.4214  3.1733  2.6364  2.6364  2.5231  2.1461  1.5811
  1.5811  1.0890  1.0890  1.1536  1.1536  0.7557  0.7794  0.8334  0.8334  1.0197
  1.0197  0.9091  0.9447

 Free energy of the ion-electron system (eV)
  ---------------------------------------------------
  alpha Z        PSCENC =         0.02084913
  Ewald energy   TEWEN  =       520.79200541
  -Hartree energ DENC   =     -1394.29308673
  -exchange      EXHF   =         0.00000000
  -V(xc)+E(xc)   XCENC  =        65.23778715
  PAW double counting   =      9473.72803307    -9471.45701053
  entropy T*S    EENTRO =        -0.00000000
  eigenvalues    EBANDS =      -260.12228713
  atomic energy  EATOM  =      1036.85193878
  Solvation  Ediel_sol  =         0.00000000
  ---------------------------------------------------
  free energy    TOTEN  =       -29.24177085 eV

  energy without entropy =      -29.24177085  energy(sigma->0) =      -29.24177085


--------------------------------------------------------------------------------------------------------




--------------------------------------- Iteration      1(  29)  ---------------------------------------


    POTLOK:  cpu time   13.1962: real time   13.2188
    SETDIJ:  cpu time    0.0681: real time    0.0681
     EDDAV:  cpu time   17.6136: real time   17.6527
       DOS:  cpu time    0.0121: real time    0.0121
    CHARGE:  cpu time    5.1602: real time    5.1684
    MIXING:  cpu time    0.5522: real time    0.5533
    --------------------------------------------
      LOOP:  cpu time   36.6025: real time   36.6735

 eigenvalue-minimisations  :   128
 total energy-change (2. order) :-0.1777685E-06  (-0.3039698E-08)
 number of electron      18.0000000 magnetization 
 augmentation part        0.0651566 magnetization 

 Broyden mixing:
  rms(total) = 0.20557E-05    rms(broyden)= 0.20557E-05
  rms(prec ) = 0.20837E-05
  weight for this iteration     100.00

 eigenvalues of (default mixing * dielectric matrix)
  average eigenvalue GAMMA=   2.4339
  9.7193  7.8694  6.0165  4.7122  3.4277  2.5874  2.5874  2.4239  2.4239  1.9568
  1.5894  1.5894  1.1762  1.0839  1.0839  0.7557  0.7794  0.8334  0.8334  1.0655
  1.0655  0.9109  0.9612  0.9612

 Free energy of the ion-electron system (eV)
  ---------------------------------------------------
  alpha Z        PSCENC =         0.02084913
  Ewald energy   TEWEN  =       520.79200541
  -Hartree energ DENC   =     -1394.29307794
  -exchange      EXHF   =         0.00000000
  -V(xc)+E(xc)   XCENC  =        65.23778695
  PAW double counting   =      9473.73586889    -9471.46484632
  entropy T*S    EENTRO =        -0.00000000
  eigenvalues    EBANDS =      -260.12229592
  atomic energy  EATOM  =      1036.85193878
  Solvation  Ediel_sol  =         0.00000000
  ---------------------------------------------------
  free energy    TOTEN  =       -29.24177103 eV

  energy without entropy =      -29.24177103  energy(sigma->0) =      -29.24177103


--------------------------------------------------------------------------------------------------------




--------------------------------------- Iteration      1(  30)  ---------------------------------------


    POTLOK:  cpu time   13.2812: real time   13.3034
    SETDIJ:  cpu time    0.0495: real time    0.0495
     EDDAV:  cpu time   17.6256: real time   17.6618
       DOS:  cpu time    0.0051: real time    0.0052
    --------------------------------------------
      LOOP:  cpu time   30.9614: real time   31.0199

 eigenvalue-minimisations  :   128
 total energy-change (2. order) :-0.8232450E-07  (-0.2668754E-08)
 number of electron      18.0000000 magnetization 
 augmentation part        0.0651566 magnetization 

 Free energy of the ion-electron system (eV)
  ---------------------------------------------------
  alpha Z        PSCENC =         0.02084913
  Ewald energy   TEWEN  =       520.79200541
  -Hartree energ DENC   =     -1394.29306797
  -exchange      EXHF   =         0.00000000
  -V(xc)+E(xc)   XCENC  =        65.23778657
  PAW double counting   =      9473.73143887    -9471.46041629
  entropy T*S    EENTRO =        -0.00000000
  eigenvalues    EBANDS =      -260.12230561
  atomic energy  EATOM  =      1036.85193878
  Solvation  Ediel_sol  =         0.00000000
  ---------------------------------------------------
  free energy    TOTEN  =       -29.24177111 eV

  energy without entropy =      -29.24177111  energy(sigma->0) =      -29.24177111


--------------------------------------------------------------------------------------------------------




 average (electrostatic) potential at core
  the test charge radii are     0.4325  0.5770  0.5955
  (the norm of the test charge is              1.0000)
       1 -47.6680       2 -47.6680       3 -88.9599       4-122.3423       5-119.5947
 
 
 
 E-fermi :  -7.1089     XC(G=0):  -0.0352     alpha+bet : -0.0075


 k-point     1 :       0.0000    0.0000    0.0000
  band No.  band energies     occupation 
      1     -29.0114      2.00000
      2     -25.3617      2.00000
      3     -13.9282      2.00000
      4     -13.1383      2.00000
      5     -11.5775      2.00000
      6     -11.5768      2.00000
      7      -9.3366      2.00000
      8      -8.9000      2.00000
      9      -7.2307      2.00000
     10      -1.9372      0.00000
     11      -1.9365      0.00000
     12      -0.9541      0.00000
     13      -0.0062      0.00000
     14       0.0536      0.00000
     15       0.1031      0.00000
     16       0.1134      0.00000
     17       0.1161      0.00000
     18       0.1193      0.00000
     19       0.1302      0.00000
     20       0.1719      0.00000
     21       0.1961      0.00000
     22       0.2236      0.00000
     23       0.2372      0.00000
     24       0.2383      0.00000
     25       0.2393      0.00000
     26       0.2413      0.00000
     27       0.2422      0.00000
     28       0.2429      0.00000
     29       0.2433      0.00000
     30       0.2439      0.00000
     31       0.2718      0.00000
     32       0.3256      0.00000


--------------------------------------------------------------------------------------------------------


 soft charge-density along one line, spin component            1
         0         1         2         3         4         5         6         7         8         9
 total charge-density along one line
 
 pseudopotential strength for first ion, spin component:            1
 -2.535  -5.389   0.005  -0.009   0.000
 -5.389 -11.435   0.012  -0.019   0.001
  0.005   0.012  -1.382  -0.011   0.000
 -0.009  -0.019  -0.011  -1.372  -0.001
  0.000   0.001   0.000  -0.001  -1.390
 total augmentation occupancy for first ion, spin component:            1
  4.288  -0.812  -0.212   0.311  -0.011
 -0.812   0.182   0.042  -0.059   0.002
 -0.212   0.042   0.016  -0.012   0.000
  0.311  -0.059  -0.012   0.024  -0.001
 -0.011   0.002   0.000  -0.001   0.011


------------------------ aborting loop because EDIFF is reached ----------------------------------------



 DIPCOR: dipole corrections for dipol
 direction  1 min pos   463, direction  2 min pos   474, direction  3 min pos   415,
 dipolmoment          -0.013659     -0.423296      0.017371 electrons x Angstroem
 Tr[quadrupol]         8.194886

 energy correction for charged system         0.000000 eV
 dipol+quadrupol energy correction            0.000126 eV
 added-field ion interaction          0.000000 eV  (added to PSCEN)

 
  *************** adding dipol energy to TOTEN NOW **************** 
    CHARGE:  cpu time    5.2692: real time    5.2771
    FORLOC:  cpu time    0.5632: real time    0.5640
    FORNL :  cpu time    0.3550: real time    0.3557
    STRESS:  cpu time   13.5587: real time   13.5836
    FORCOR:  cpu time   11.0229: real time   11.0419
    FORHAR:  cpu time    3.3229: real time    3.3303
    MIXING:  cpu time    0.5560: real time    0.5572
    OFIELD:  cpu time    0.0000: real time    0.0000

  Hirshfeld charges:
            ion         q(e)     
   ------------------------------
      1     H           0.146
      2     H           0.146
      3     C           0.069
      4     O          -0.070
      5     O          -0.292

  Hirshfeld-I charges:
            ion         q(e)        dq(e)    
   ------------------------------------------
      1     H           0.452      0.187E-04
      2     H           0.452      0.187E-04
      3     C           0.134     -0.180E-06
      4     O          -0.133      0.230E-06
      5     O          -0.905     -0.375E-04

   Hirshfeld-I converged in  18 cycles. Convergence criterion |dq|< 0.500E-04 e

  Atomic reference data used in the T-S method for vdW correction:
            C6at              R0at           ALPHAat      REFSTATE
            (au)              (au)            (au)                
   ---------------------------------------------------------------
   H           6.500          3.099          4.500         0
   C          46.600          3.590         12.000         0
   O          15.600          3.194          5.400         0

  Tkatchenko/Scheffler method for vdW energy calculation
  ---------------------------------------------------------------------------------------------

  Parameters of vdW forcefield:
            C6ts              R0ts           ALPHAts        RELVOL
            (au)              (au)            (au)                
   ---------------------------------------------------------------
   H           0.592          2.079          1.359          0.30190661
   H           0.592          2.079          1.358          0.30182051
   C          28.826          3.314          9.438          0.78650244
   O          13.810          3.129          5.081          0.94086620
   O          25.835          3.474          6.949          1.28687688

  vdW correction parametrized for the method pbe       

  IVDW =  21
  VDW_RADIUS =    50.000 A
  VDW_IDAMPF =  0
  VDW_S6 =     1.000
  VDW_SR =     0.950
  VDW_D =    20.000
  LVDW_ONECELL = F F F
  LVDW_SAMETYPE T T T
  LVDW_EWALD = F

  Number of pair interactions contributing to vdW energy:     234
  Edisp (eV):   -0.00162
    FORVDW:  cpu time   90.6335: real time   90.6900

  FORCE on cell =-STRESS in cart. coord.  units (eV):
  Direction    XX          YY          ZZ          XY          YZ          ZX
  --------------------------------------------------------------------------------------
  Alpha Z     0.02085     0.02085     0.02085
  Ewald     -63.73564   526.34734    58.17975     2.60461     2.26005    -1.40930
  Hartree   347.60430   677.57051   369.11825     0.56012     0.25520    -0.24916
  E(xc)     -83.09275   -81.96892   -82.53737     0.01217     0.01038    -0.00647
  Local    -644.85906 -1522.59060  -748.78268    -2.33182    -1.73499     1.19976
  n-local   -27.02343   -29.02136   -21.46002     0.09896     0.13337    -0.06374
  augment     1.68793     1.42994     0.91694    -0.01748    -0.01367     0.00901
  Kinetic   469.38042   427.97771   425.04805    -0.91690    -0.89819     0.51391
  Fock        0.00000     0.00000     0.00000     0.00000     0.00000     0.00000
  vdW        -0.00000    -0.00879     0.00099    -0.00000     0.00006    -0.00001
  -------------------------------------------------------------------------------------
  Total      -0.01737    -0.24331     0.50476     0.00966     0.01222    -0.00600
  in kB      -0.00065    -0.00909     0.01886     0.00036     0.00046    -0.00022
  external pressure =        0.00 kB  Pullay stress =        0.00 kB


 VOLUME and BASIS-vectors are now :
 -----------------------------------------------------------------------------
  energy-cutoff  :     1000.00
  volume of cell :    42875.00
      direct lattice vectors                 reciprocal lattice vectors
    35.000000000  0.000000000  0.000000000     0.028571429  0.000000000  0.000000000
     0.000000000 35.000000000  0.000000000     0.000000000  0.028571429  0.000000000
     0.000000000  0.000000000 35.000000000     0.000000000  0.000000000  0.028571429

  length of vectors
    35.000000000 35.000000000 35.000000000     0.028571429  0.028571429  0.028571429


 FORCES acting on ions
    electron-ion (+dipol)            ewald-force                    non-local-force                 convergence-correction
 -----------------------------------------------------------------------------------------------
   -.270E+01 -.528E+02 0.756E+02   0.298E+01 0.578E+02 -.832E+02   -.259E+00 -.473E+01 0.718E+01   0.298E-07 0.173E-06 -.106E-06
   -.115E+01 -.596E+02 -.707E+02   0.127E+01 0.652E+02 0.777E+02   -.112E+00 -.539E+01 -.671E+01   0.262E-07 0.135E-06 0.103E-06
   0.895E-02 0.252E+03 -.164E-01   -.864E-02 -.279E+03 0.155E-01   -.360E-03 0.267E+02 0.101E-02   -.171E-07 0.930E-06 -.393E-07
   0.215E-01 -.187E+03 -.383E-01   -.231E-01 0.238E+03 0.435E-01   0.159E-02 -.517E+02 -.547E-02   0.819E-07 0.318E-05 -.106E-06
   0.230E+01 0.308E+02 -.295E+01   -.422E+01 -.829E+02 0.540E+01   0.190E+01 0.517E+02 -.243E+01   0.289E-06 0.528E-06 0.646E-06
 -----------------------------------------------------------------------------------------------
   -.153E+01 -.166E+02 0.196E+01   0.000E+00 0.000E+00 0.533E-14   0.153E+01 0.166E+02 -.196E+01   0.410E-06 0.495E-05 0.497E-06
 
 
 POSITION                                       TOTAL-FORCE (eV/Angst)
 -----------------------------------------------------------------------------------
      0.02970      6.58138     34.21499         0.012098      0.212173     -0.355043
      0.01365      6.65327      0.72944         0.004753      0.245103      0.333487
      0.00000      0.08826      0.00000        -0.000052      0.430885      0.000192
      0.00000      1.22721      0.00000         0.000064     -0.429890     -0.000279
      0.00000      6.02721      0.00000        -0.016863     -0.458271      0.021644
 -----------------------------------------------------------------------------------
    total drift:                                0.000014     -0.000014      0.000011


--------------------------------------------------------------------------------------------------------



  FREE ENERGIE OF THE ION-ELECTRON SYSTEM (eV)
  ---------------------------------------------------
  free  energy   TOTEN  =       -29.24325989 eV

  energy  without entropy=      -29.24325989  energy(sigma->0) =      -29.24325989
 


--------------------------------------------------------------------------------------------------------


    POTLOK:  cpu time   13.5477: real time   13.5704


--------------------------------------------------------------------------------------------------------


 writing wavefunctions
     LOOP+:  cpu time 1461.7622: real time 1467.5821
    4ORBIT:  cpu time    0.0000: real time    0.0000

 total amount of memory used by VASP MPI-rank0  4191804. kBytes
=======================================================================

   base      :      30000. kBytes
   nonl-proj :     418671. kBytes
   fftplans  :     676185. kBytes
   grid      :    3042313. kBytes
   one-center:          7. kBytes
   wavefun   :      24628. kBytes
 
  
  
 General timing and accounting informations for this job:
 ========================================================
  
                  Total CPU time used (sec):     2845.974
                            User time (sec):     2708.380
                          System time (sec):      137.594
                         Elapsed time (sec):     2886.302
  
                   Maximum memory used (kb):     5575528.
                   Average memory used (kb):           0.
  
                          Minor page faults:     81647057
                          Major page faults:          844
                 Voluntary context switches:        16668
