
 Primary working directories    : /scratch/sirous/43831/molpro.s6FsVo1BW1
 Secondary working directories  : /scratch/sirous/43831/molpro.s6FsVo1BW1
 Wavefunction directory         : /scratch/sirous/43831/
 Main file repository           : /scratch/sirous/43831/molpro.s6FsVo1BW1/

 id        : karlovklimes

 Nodes                      nprocs
 nc-12.cc.karlov.mff.cuni.cz    4

 Using customized tuning parameters: mindgm=1; mindgv=20; mindgc=4; mindgr=1; noblas=0; minvec=7
 default implementation of scratch files=sf  


 Variables initialized (934), CPU time= 0.01 sec
 ***,CH3C6H4CN+CF3CN+BF3
 memory,500,m
 gdirect
 gthresh,energy=1.d-8,twoint=1.d-19,oneint=1.d-19,zero=1.d-15,orbital=1.d-8,grid=1.d-8
 symmetry,nosym
 geomtyp=xyz
                                                                                 ! Geometry
 geometry={
 O1        -0.636134928    -0.023282411     0.280599321
 H1        0.308097372    -0.047078748     0.076463691
 C1        -1.152065407    -1.311287783     0.015259549
 H2        -2.209945023    -1.296265392     0.263955863
 H3        -1.056610240    -1.592670859     -1.036190606
 H4        -0.674835746    -2.086272765     0.620511449
 O2        2.241244009    -0.123337749     -0.013537808
 H5        2.710033319    0.491046775     -0.583203762
 C2        2.750077935    0.033681189     1.308179516
 H6        2.196508855    -0.654515238     1.938310396
 H7        3.809074037    -0.216757710     1.364902657
 H8        2.597638297    1.044375242     1.686072062
 }
 
 
 
 basis=aug-cc-pv5z
 
 
 
                                                                                 ! Dimer Calculation
 {rks,pbe,accu=1.d-8;orbital,2101.2}
 eab_PBE=energy
 
 
                                                                                 !monomer A
 dummy,7,8,9,10,11,12;                                                           ! NOW MONOMER B IS DUMMY
 {rks,pbe,accu=1.d-8;orbital,2201.2}
 ea_PBE=energy
                                                                                 !monomer B
 dummy,1,2,3,4,5,6;                                                              !NOW MONOMER A IS DUMMY
 {rks,pbe,accu=1.d-8;orbital,2301.2}
 eb_PBE=energy
 
 E_AB_int=eab_PBE-ea_PBE-eb_PBE
 
 
 text,results in hartree
 show,E_AB_int
 
 Commands  initialized (763), CPU time= 0.01 sec, 617 directives.
 Default parameters read. Elapsed time= 0.20 sec

 Checking input...
 Passed
1


                                         ***  PROGRAM SYSTEM MOLPRO  ***
                                       Copyright, TTI GmbH Stuttgart, 2015
                                    Version 2019.2 linked Jun  8 2019 11:26:33


 **********************************************************************************************************************************
 LABEL *   CH3C6H4CN+CF3CN+BF3                                                           
  64 bit mpp version                                                                     DATE: 07-Oct-19          TIME: 21:44:23  
 **********************************************************************************************************************************

 SHA1:             8135a10abc80eafa5b3ae28ffc55be4890dc4c84
 **********************************************************************************************************************************

 THRESHOLDS:

 ZERO    =  1.00D-15  ONEINT  =  1.00D-19  TWOINT  =  1.00D-19  PREFAC  =  1.00D-14  XXXXXX  =  1.00D-09  EORDER  =  1.00D-04
 ENERGY  =  1.00D-08  ETEST   =  0.00D+00  EDENS   =  0.00D+00  THRDEDEF=  1.00D-06  GRADIENT=  1.00D-02  STEP    =  1.00D-03
 ORBITAL =  1.00D-08  CIVEC   =  1.00D-05  COEFF   =  1.00D-04  PRINTCI =  5.00D-02  PUNCHCI =  9.90D+01  OPTGRAD =  3.00D-04
 OPTENERG=  1.00D-06  OPTSTEP =  3.00D-04  THRGRAD =  1.00D-10  COMPRESS=  1.00D-11  VARMIN  =  1.00D-07  VARMAX  =  1.00D-03
 THRDOUB =  0.00D+00  THRDIV  =  1.00D-05  THRRED  =  1.00D-07  THRPSP  =  1.00D+00  THRDC   =  1.00D-10  THRCS   =  1.00D-10
 THRNRM  =  1.00D-08  THREQ   =  0.00D+00  THRDE   =  1.00D+00  THRREF  =  1.00D-05  SPARFAC =  1.00D+00  THRDLP  =  1.00D-07
 THRDIA  =  1.00D-10  THRDLS  =  1.00D-07  THRGPS  =  0.00D+00  THRKEX  =  0.00D+00  THRDIS  =  2.00D-01  THRVAR  =  1.00D-10
 THRLOC  =  1.00D-06  THRGAP  =  1.00D-06  THRLOCT = -1.00D+00  THRGAPT = -1.00D+00  THRORB  =  1.00D-06  THRMLTP =  0.00D+00
 THRCPQCI=  1.00D-10  KEXTA   =  0.00D+00  THRCOARS=  0.00D+00  SYMTOL  =  1.00D-06  GRADTOL =  1.00D-06  THROVL  =  1.00D-08
 THRORTH =  1.00D-08  GRID    =  1.00D-08  GRIDMAX =  1.00D-03  DTMAX   =  0.00D+00  THROCCDE=  1.00D-01  THROCCDE=  1.00D-01
 THRPRINT=  2.50D-01


 Variable memory set to  500000000 words,  buffer space 

 SETTING GEOMTYP        =    XYZ
 ZSYMEL=NOSYM

 SETTING BASIS          =    AUG-CC-PV5Z


 Recomputing integrals since basis changed


 Using spherical harmonics

 Library entry O      S aug-cc-pV5Z          selected for orbital group  1
 Library entry O      P aug-cc-pV5Z          selected for orbital group  1
 Library entry O      D aug-cc-pV5Z          selected for orbital group  1
 Library entry O      F aug-cc-pV5Z          selected for orbital group  1
 Library entry O      G aug-cc-pV5Z          selected for orbital group  1
 Library entry O      H aug-cc-pV5Z          selected for orbital group  1
 Library entry H      S aug-cc-pV5Z          selected for orbital group  2
 Library entry H      P aug-cc-pV5Z          selected for orbital group  2
 Library entry H      D aug-cc-pV5Z          selected for orbital group  2
 Library entry H      F aug-cc-pV5Z          selected for orbital group  2
 Library entry H      G aug-cc-pV5Z          selected for orbital group  2
 Library entry C      S aug-cc-pV5Z          selected for orbital group  3
 Library entry C      P aug-cc-pV5Z          selected for orbital group  3
 Library entry C      D aug-cc-pV5Z          selected for orbital group  3
 Library entry C      F aug-cc-pV5Z          selected for orbital group  3
 Library entry C      G aug-cc-pV5Z          selected for orbital group  3
 Library entry C      H aug-cc-pV5Z          selected for orbital group  3


 PROGRAM * SEWARD (Integral evaluation for generally contracted gaussian basis sets)     Author: Roland Lindh, 1990

 Geometry written to block  1 of record 700


 Point group  C1  



 ATOMIC COORDINATES

 NR  ATOM    CHARGE       X              Y              Z

   1  O1      8.00   -1.202120792   -0.043997380    0.530255867
   2  H1      1.00    0.582219653   -0.088965940    0.144495434
   3  C1      6.00   -2.177088097   -2.477974780    0.028836368
   4  H2      1.00   -4.176190844   -2.449586576    0.498804290
   5  H3      1.00   -1.996703974   -3.009711730   -1.958116458
   6  H4      1.00   -1.275254739   -3.942484147    1.172596696
   7  O2      8.00    4.235337355   -0.233074566   -0.025582749
   8  H5      1.00    5.121220761    0.927943919   -1.102095385
   9  C2      6.00    5.196894118    0.063648223    2.472101007
  10  H6      1.00    4.150800166   -1.236854544    3.662875793
  11  H7      1.00    7.198106718   -0.409612707    2.579292208
  12  H8      1.00    4.908824952    1.973583179    3.186214423

 Bond lengths in Bohr (Angstrom)

 1-2  1.826117221  1-3  2.669499718  3-4  2.053798318  3-5  2.064767336  3-6  2.065497223
     ( 0.966339618)     ( 1.412638415)     ( 1.086823266)     ( 1.092627820)     ( 1.093014059)

  7- 8  1.814285751   7- 9  2.692779228   9-10  2.050259641   9-11  2.059203179   9-12  2.059318662
       ( 0.960078674)       ( 1.424957401)       ( 1.084950678)       ( 1.089683395)       ( 1.089744506)

 Bond angles

  1-3-4  107.45243548   1-3-5  112.56023931   1-3-6  112.51984286   2-1-3  107.14181275

  4- 3- 5  107.98697639   4- 3- 6  107.94343217   5- 3- 6  108.18798930   7- 9-10  106.65583749

  7- 9-11  111.71494436   7- 9-12  111.95602748   8- 7- 9  107.78761842  10- 9-11  108.65333210

 10- 9-12  108.39236686  11- 9-12  109.33255661

 NUCLEAR CHARGE:                   36
 NUMBER OF PRIMITIVE AOS:        1660
 NUMBER OF SYMMETRY AOS:         1240
 NUMBER OF CONTRACTIONS:         1148   ( 1148A   )
 NUMBER OF CORE ORBITALS:           4   (    4A   )
 NUMBER OF VALENCE ORBITALS:       24   (   24A   )


 NUCLEAR REPULSION ENERGY  129.10706570


 Eigenvalues of metric

         1 0.982E-06 0.104E-05 0.128E-05 0.135E-05 0.148E-05 0.181E-05 0.248E-05 0.307E-05


 OPERATOR DM      FOR CENTER  0  COORDINATES:    0.000000    0.000000    0.000000


 **********************************************************************************************************************************
 DATASETS  * FILE   NREC   LENGTH (MB)   RECORD NAMES
              1      18       78.02       500      610      700      900      950      970     1000      129      960     1100   
                                          VAR    BASINP    GEOM    SYMINP    ZMAT    AOBASIS   BASIS     P2S    ABASIS      S 
                                         1400     1410     1200     1210     1080     1600     1650     1700   
                                           T        V       H0       H01     AOSYM     SMH    MOLCAS    OPER   

 PROGRAMS   *        TOTAL       INT
 CPU TIMES  *         2.92      2.75
 REAL TIME  *         5.29 SEC
 DISK USED  *        78.89 MB (local),      315.55 MB (total)
 GA USED    *         0.00 MB       (max)       0.00 MB       (current)
 **********************************************************************************************************************************

 Density functional group PBE=PBEX+PBEC
 Functional: PBEX(Automatically generated (new) PBEX)                          Gradient terms: 1
 Functional: PBEC(Automatically generated (new) PBEC)                          Gradient terms: 1
 Use libxcgrid:  F
 Use grid at  1800.2

 Functional: PBEX                      Factor:  1.0000
 Functional: PBEC                      Factor:  1.0000

 Generated new metagrid on record  1800.2 with target accuracy 1.0D-08 and 106924 points in CPU time    0.3
 Computed new grid on record 1800.1 in CPU time    0.4
  926340 words reserved for DFT integration

 PROGRAM * RKS-SCF (Restricted closed shell Kohn-Sham)     Authors: W. Meyer, H.-J. Werner, P.J. Knowles, 1993

 NUMBER OF ELECTRONS:      18+   18-    SPACE SYMMETRY=1    SPIN SYMMETRY: Singlet 
 CONVERGENCE THRESHOLDS:    1.00E-04 (Density)    1.00E-08 (Energy)
 INTEGRAL THRESHOLDS:       1.00E-13 (Initial)    1.00E-13 (Final)
 MAX. NUMBER OF ITERATIONS:       60
 INTERPOLATION TYPE:            DIIS
 INTERPOLATION STEPS:              2 (START)      1 (STEP)
 LEVEL SHIFTS:                  0.00 (CLOSED)  0.00 (OPEN) 



 Use fine grid record 1800.2 for energy threshold  1.0D-08
 Orbital guess generated from atomic densities. Full valence occupancy:   28

 Molecular orbital dump at record        2101.2

 Initial occupancy:  18

 Direct Fock-matrix evaluation.        Authors: Roland Lindh & Martin Schuetz (1993/96)

 Integral Threshold:                  0.1D-12
 Threshold for writing integrals:     0.1D-06
 Prescreening on density matrix:        ON 
 Calculation will be performed fully direct        

 ITERATION   DDIFF            GRAD            ENERGY        2-EL.EN.            DIPOLE MOMENTS         DIIS   CPU(IT)  CPU(TOT)
    1      0.000D+00      0.000D+00      -231.09766957    496.339277    1.45084   -0.08290   -0.11790    0   5785.6   5833.2     start
    2      0.000D+00      0.327D-02      -230.67288390    457.000225    0.36801    0.23192    0.18920    1   5731.9  11565.0     diag
    3      0.494D-02      0.601D-02      -231.28014258    483.365850    1.15192   -0.10405    0.03221    2   5689.8  17254.8     diag
    4      0.387D-02      0.861D-03      -231.29078446    482.772358    1.11241    0.02539   -0.00947    3   5206.3  22461.2     diag
    5      0.451D-03      0.278D-03      -231.29198010    482.402971    1.11335   -0.00225   -0.00840    4   5079.6  27540.7     diag
    6      0.172D-03      0.530D-04      -231.29201297    482.486292    1.11254    0.00587   -0.00060    5   4799.3  32340.1     diag
    7      0.366D-04      0.280D-04      -231.29202348    482.488008    1.11195   -0.00018   -0.00451    6   4353.1  36693.2     diag
    8      0.114D-04      0.626D-05      -231.29202399    482.500092    1.11289    0.00037   -0.00367    7   4135.7  40829.0     diag
    9      0.284D-05      0.160D-05      -231.29202403    482.500551    1.11281    0.00037   -0.00383    8   3756.0  44585.0     diag
   10      0.970D-06      0.411D-06      -231.29202403    482.500492    1.11275    0.00043   -0.00387    9   3418.0  48002.9     orth
   11      0.229D-06      0.907D-07      -231.29202403    482.500124    1.11277    0.00040   -0.00383    0   3187.9  51190.8     orth

 Final occupancy:  18

 !RKS STATE  1.1 Energy              -231.292024034304
 Nuclear energy                       129.10706570
 One-electron energy                 -570.90999781
 Two-electron energy                  241.25006209
 Density functional                   -30.73915402     PBEX=-29.57424955 PBEC= -1.16490447
 Virial quotient                       -1.00360971
 !RKS STATE  1.1 Dipole moment          1.11276988     0.00039989    -0.00383258
 Dipole moment /Debye                   2.82819367     0.00101634    -0.00974081

 Orbital energies:

         1.1          2.1          3.1          4.1          5.1          6.1          7.1          8.1          9.1         10.1
    -18.776395   -18.723479    -9.934871    -9.903374    -0.959774    -0.911481    -0.636874    -0.599829    -0.481848    -0.441800

        11.1         12.1         13.1         14.1         15.1         16.1         17.1         18.1         19.1         20.1
     -0.407417    -0.398157    -0.373668    -0.362166    -0.319676    -0.274147    -0.252633    -0.209135    -0.034759    -0.008919


 HOMO     18.1    -0.209135 =      -5.6908eV
 LUMO     19.1    -0.034759 =      -0.9458eV
 LUMO-HOMO         0.174376 =       4.7450eV


 **********************************************************************************************************************************
 DATASETS  * FILE   NREC   LENGTH (MB)   RECORD NAMES
              1      19       78.02       500      610      700      900      950      970     1000      129      960     1100   
                                          VAR    BASINP    GEOM    SYMINP    ZMAT    AOBASIS   BASIS     P2S    ABASIS      S 
                                         1400     1410     1200     1210     1080     1600     1650     1700     1800   
                                           T        V       H0       H01     AOSYM     SMH    MOLCAS    OPER     GRID   

              2       5       29.55       700     1000      520     1800     2101   
                                         GEOM     BASIS   MCVARS    GRID      RKS  

 PROGRAMS   *        TOTAL   RKS-SCF       INT
 CPU TIMES  *     51197.40  51194.47      2.75
 REAL TIME  *     51351.77 SEC
 DISK USED  *       202.79 MB (local),      811.15 MB (total)
 SF USED    *        15.83 MB
 GA USED    *         3.49 MB       (max)       3.49 MB       (current)
 **********************************************************************************************************************************
 SETTING EAB_PBE        =      -231.29202403  AU                              

 Dummy atoms: O2  H5  C2  H6  H7  H8


 Recomputing one-electron integrals since nuclear charges changed


 PROGRAM * SEWARD (Integral evaluation for generally contracted gaussian basis sets)     Author: Roland Lindh, 1990

 Geometry written to block  1 of record 700


 Point group  C1  



 ATOMIC COORDINATES

 NR  ATOM    CHARGE       X              Y              Z

   1  O1      8.00   -1.202120792   -0.043997380    0.530255867
   2  H1      1.00    0.582219653   -0.088965940    0.144495434
   3  C1      6.00   -2.177088097   -2.477974780    0.028836368
   4  H2      1.00   -4.176190844   -2.449586576    0.498804290
   5  H3      1.00   -1.996703974   -3.009711730   -1.958116458
   6  H4      1.00   -1.275254739   -3.942484147    1.172596696
   7  O2      0.00    4.235337355   -0.233074566   -0.025582749
   8  H5      0.00    5.121220761    0.927943919   -1.102095385
   9  C2      0.00    5.196894118    0.063648223    2.472101007
  10  H6      0.00    4.150800166   -1.236854544    3.662875793
  11  H7      0.00    7.198106718   -0.409612707    2.579292208
  12  H8      0.00    4.908824952    1.973583179    3.186214423

 Bond lengths in Bohr (Angstrom)

 1-2  1.826117221  1-3  2.669499718  3-4  2.053798318  3-5  2.064767336  3-6  2.065497223
     ( 0.966339618)     ( 1.412638415)     ( 1.086823266)     ( 1.092627820)     ( 1.093014059)

  7- 8  1.814285751   7- 9  2.692779228   9-10  2.050259641   9-11  2.059203179   9-12  2.059318662
       ( 0.960078674)       ( 1.424957401)       ( 1.084950678)       ( 1.089683395)       ( 1.089744506)

 Bond angles

  1-3-4  107.45243548   1-3-5  112.56023931   1-3-6  112.51984286   2-1-3  107.14181275

  4- 3- 5  107.98697639   4- 3- 6  107.94343217   5- 3- 6  108.18798930   7- 9-10  106.65583749

  7- 9-11  111.71494436   7- 9-12  111.95602748   8- 7- 9  107.78761842  10- 9-11  108.65333210

 10- 9-12  108.39236686  11- 9-12  109.33255661

 NUCLEAR CHARGE:                   18
 NUMBER OF PRIMITIVE AOS:        1660
 NUMBER OF SYMMETRY AOS:         1240
 NUMBER OF CONTRACTIONS:         1148   ( 1148A   )
 NUMBER OF CORE ORBITALS:           2   (    2A   )
 NUMBER OF VALENCE ORBITALS:       12   (   12A   )

 MOLECULE CHANGED: INITIALIZING OCCUPATION AND DUMP RECORDS


 NUCLEAR REPULSION ENERGY   40.41731286


 Eigenvalues of metric

         1 0.982E-06 0.104E-05 0.128E-05 0.135E-05 0.148E-05 0.181E-05 0.248E-05 0.307E-05


 OPERATOR DM      FOR CENTER  0  COORDINATES:    0.000000    0.000000    0.000000


 **********************************************************************************************************************************
 DATASETS  * FILE   NREC   LENGTH (MB)   RECORD NAMES
              1      19       78.02       500      610      700      900      950      970     1000      129      960     1100   
                                          VAR    BASINP    GEOM    SYMINP    ZMAT    AOBASIS   BASIS     P2S    ABASIS      S 
                                         1400     1410     1200     1210     1080     1600     1650     1700     1800   
                                           T        V       H0       H01     AOSYM     SMH    MOLCAS    OPER     GRID   

              2       5       29.55       700     1000      520     1800     2101   
                                         GEOM     BASIS   MCVARS    GRID      RKS  

 PROGRAMS   *        TOTAL       INT   RKS-SCF       INT
 CPU TIMES  *     51199.81      2.41  51194.47      2.75
 REAL TIME  *     51354.34 SEC
 DISK USED  *       202.79 MB (local),      811.15 MB (total)
 SF USED    *        15.83 MB
 GA USED    *         3.49 MB       (max)       3.49 MB       (current)
 **********************************************************************************************************************************

 Density functional group PBE=PBEX+PBEC
 Functional: PBEX(Automatically generated (new) PBEX)                          Gradient terms: 1
 Functional: PBEC(Automatically generated (new) PBEC)                          Gradient terms: 1
 Use libxcgrid:  F
 Use grid at  1800.2

 Functional: PBEX                      Factor:  1.0000
 Functional: PBEC                      Factor:  1.0000

 Generated new metagrid on record  1800.2 with target accuracy 1.0D-08 and 106924 points in CPU time    0.3
 Computed new grid on record 1800.1 in CPU time    0.4
  926340 words reserved for DFT integration

 PROGRAM * RKS-SCF (Restricted closed shell Kohn-Sham)     Authors: W. Meyer, H.-J. Werner, P.J. Knowles, 1993

 NUMBER OF ELECTRONS:       9+    9-    SPACE SYMMETRY=1    SPIN SYMMETRY: Singlet 
 CONVERGENCE THRESHOLDS:    1.00E-04 (Density)    1.00E-08 (Energy)
 INTEGRAL THRESHOLDS:       1.00E-13 (Initial)    1.00E-13 (Final)
 MAX. NUMBER OF ITERATIONS:       60
 INTERPOLATION TYPE:            DIIS
 INTERPOLATION STEPS:              2 (START)      1 (STEP)
 LEVEL SHIFTS:                  0.00 (CLOSED)  0.00 (OPEN) 



 Use fine grid record 1800.2 for energy threshold  1.0D-08
 Orbital guess generated from atomic densities. Full valence occupancy:   14

 Molecular orbital dump at record        2201.2

 Initial occupancy:   9

 Direct Fock-matrix evaluation.        Authors: Roland Lindh & Martin Schuetz (1993/96)

 Integral Threshold:                  0.1D-12
 Threshold for writing integrals:     0.1D-06
 Prescreening on density matrix:        ON 
 Calculation will be performed fully direct        

 ITERATION   DDIFF            GRAD            ENERGY        2-EL.EN.            DIPOLE MOMENTS         DIIS   CPU(IT)  CPU(TOT)
    1      0.000D+00      0.000D+00      -115.53894188    199.951194    0.58541   -0.73818   -0.33475    0   5531.2   5568.0     start
    2      0.000D+00      0.335D-02      -115.28605632    179.675804   -0.20100    0.19138    0.09846    1   5528.4  11096.4     diag
    3      0.318D-02      0.644D-02      -115.63521819    193.271712    0.34912   -0.59271   -0.24389    2   5462.1  16558.4     diag
    4      0.228D-02      0.913D-03      -115.64128425    193.052306    0.35243   -0.46197   -0.20627    3   4940.7  21499.2     diag
    5      0.338D-03      0.287D-03      -115.64193197    192.874662    0.34709   -0.47107   -0.20796    4   4825.1  26324.3     diag
    6      0.125D-03      0.481D-04      -115.64194934    192.906896    0.34559   -0.47422   -0.20852    5   4510.1  30834.4     diag
    7      0.222D-04      0.670D-05      -115.64194971    192.918649    0.34648   -0.47535   -0.20904    6   3951.3  34785.7     diag
    8      0.244D-05      0.613D-06      -115.64194971    192.918397    0.34626   -0.47513   -0.20893    7   3297.7  38083.5     diag
    9      0.287D-06      0.165D-06      -115.64194971    192.918207    0.34636   -0.47519   -0.20897    0   2948.7  41032.1     orth

 Final occupancy:   9

 !RKS STATE  1.1 Energy              -115.641949709709
 Nuclear energy                        40.41731286
 One-electron energy                 -237.15581094
 Two-electron energy                   96.45910360
 Density functional                   -15.36255522     PBEX=-14.78171821 PBEC= -0.58083701
 Virial quotient                       -1.00367011
 !RKS STATE  1.1 Dipole moment          0.34636432    -0.47518661    -0.20897008
 Dipole moment /Debye                   0.88031263    -1.20772479    -0.53111418

 Orbital energies:

         1.1          2.1          3.1          4.1          5.1          6.1          7.1          8.1          9.1         10.1
    -18.752879    -9.920840    -0.938228    -0.619368    -0.462041    -0.391945    -0.382243    -0.295662    -0.231683    -0.025309

        11.1
     -0.002658


 HOMO      9.1    -0.231683 =      -6.3044eV
 LUMO     10.1    -0.025309 =      -0.6887eV
 LUMO-HOMO         0.206375 =       5.6157eV


 **********************************************************************************************************************************
 DATASETS  * FILE   NREC   LENGTH (MB)   RECORD NAMES
              1      19       78.02       500      610      700      900      950      970     1000      129      960     1100   
                                          VAR    BASINP    GEOM    SYMINP    ZMAT    AOBASIS   BASIS     P2S    ABASIS      S 
                                         1400     1410     1200     1210     1080     1600     1650     1700     1800   
                                           T        V       H0       H01     AOSYM     SMH    MOLCAS    OPER     GRID   

              2       6       84.81       700     1000      520     1800     2101     2201   
                                         GEOM     BASIS   MCVARS    GRID      RKS      RKS  

 PROGRAMS   *        TOTAL   RKS-SCF       INT   RKS-SCF       INT
 CPU TIMES  *     92235.68  41035.86      2.41  51194.47      2.75
 REAL TIME  *     92522.15 SEC
 DISK USED  *       247.50 MB (local),      990.01 MB (total)
 SF USED    *        15.83 MB
 GA USED    *         3.49 MB       (max)       3.49 MB       (current)
 **********************************************************************************************************************************
 SETTING EA_PBE         =      -115.64194971  AU                              

 Dummy atoms: O1  H1  C1  H2  H3  H4


 Recomputing one-electron integrals since nuclear charges changed


 PROGRAM * SEWARD (Integral evaluation for generally contracted gaussian basis sets)     Author: Roland Lindh, 1990

 Geometry written to block  1 of record 700


 Point group  C1  



 ATOMIC COORDINATES

 NR  ATOM    CHARGE       X              Y              Z

   1  O1      0.00   -1.202120792   -0.043997380    0.530255867
   2  H1      0.00    0.582219653   -0.088965940    0.144495434
   3  C1      0.00   -2.177088097   -2.477974780    0.028836368
   4  H2      0.00   -4.176190844   -2.449586576    0.498804290
   5  H3      0.00   -1.996703974   -3.009711730   -1.958116458
   6  H4      0.00   -1.275254739   -3.942484147    1.172596696
   7  O2      8.00    4.235337355   -0.233074566   -0.025582749
   8  H5      1.00    5.121220761    0.927943919   -1.102095385
   9  C2      6.00    5.196894118    0.063648223    2.472101007
  10  H6      1.00    4.150800166   -1.236854544    3.662875793
  11  H7      1.00    7.198106718   -0.409612707    2.579292208
  12  H8      1.00    4.908824952    1.973583179    3.186214423

 Bond lengths in Bohr (Angstrom)

 1-2  1.826117221  1-3  2.669499718  3-4  2.053798318  3-5  2.064767336  3-6  2.065497223
     ( 0.966339618)     ( 1.412638415)     ( 1.086823266)     ( 1.092627820)     ( 1.093014059)

  7- 8  1.814285751   7- 9  2.692779228   9-10  2.050259641   9-11  2.059203179   9-12  2.059318662
       ( 0.960078674)       ( 1.424957401)       ( 1.084950678)       ( 1.089683395)       ( 1.089744506)

 Bond angles

  1-3-4  107.45243548   1-3-5  112.56023931   1-3-6  112.51984286   2-1-3  107.14181275

  4- 3- 5  107.98697639   4- 3- 6  107.94343217   5- 3- 6  108.18798930   7- 9-10  106.65583749

  7- 9-11  111.71494436   7- 9-12  111.95602748   8- 7- 9  107.78761842  10- 9-11  108.65333210

 10- 9-12  108.39236686  11- 9-12  109.33255661

 NUCLEAR CHARGE:                   18
 NUMBER OF PRIMITIVE AOS:        1660
 NUMBER OF SYMMETRY AOS:         1240
 NUMBER OF CONTRACTIONS:         1148   ( 1148A   )
 NUMBER OF CORE ORBITALS:           2   (    2A   )
 NUMBER OF VALENCE ORBITALS:       12   (   12A   )

 MOLECULE CHANGED: INITIALIZING OCCUPATION AND DUMP RECORDS


 NUCLEAR REPULSION ENERGY   40.29806389


 Eigenvalues of metric

         1 0.982E-06 0.104E-05 0.128E-05 0.135E-05 0.148E-05 0.181E-05 0.248E-05 0.307E-05


 OPERATOR DM      FOR CENTER  0  COORDINATES:    0.000000    0.000000    0.000000


 **********************************************************************************************************************************
 DATASETS  * FILE   NREC   LENGTH (MB)   RECORD NAMES
              1      19       78.02       500      610      700      900      950      970     1000      129      960     1100   
                                          VAR    BASINP    GEOM    SYMINP    ZMAT    AOBASIS   BASIS     P2S    ABASIS      S 
                                         1400     1410     1200     1210     1080     1600     1650     1700     1800   
                                           T        V       H0       H01     AOSYM     SMH    MOLCAS    OPER     GRID   

              2       6       84.81       700     1000      520     1800     2101     2201   
                                         GEOM     BASIS   MCVARS    GRID      RKS      RKS  

 PROGRAMS   *        TOTAL       INT   RKS-SCF       INT   RKS-SCF       INT
 CPU TIMES  *     92238.09      2.41  41035.86      2.41  51194.47      2.75
 REAL TIME  *     92524.72 SEC
 DISK USED  *       247.50 MB (local),      990.01 MB (total)
 SF USED    *        15.83 MB
 GA USED    *         3.49 MB       (max)       3.49 MB       (current)
 **********************************************************************************************************************************

 Density functional group PBE=PBEX+PBEC
 Functional: PBEX(Automatically generated (new) PBEX)                          Gradient terms: 1
 Functional: PBEC(Automatically generated (new) PBEC)                          Gradient terms: 1
 Use libxcgrid:  F
 Use grid at  1800.2

 Functional: PBEX                      Factor:  1.0000
 Functional: PBEC                      Factor:  1.0000

 Generated new metagrid on record  1800.2 with target accuracy 1.0D-08 and 106924 points in CPU time    0.3
 Computed new grid on record 1800.1 in CPU time    0.4
  926340 words reserved for DFT integration

 PROGRAM * RKS-SCF (Restricted closed shell Kohn-Sham)     Authors: W. Meyer, H.-J. Werner, P.J. Knowles, 1993

 NUMBER OF ELECTRONS:       9+    9-    SPACE SYMMETRY=1    SPIN SYMMETRY: Singlet 
 CONVERGENCE THRESHOLDS:    1.00E-04 (Density)    1.00E-08 (Energy)
 INTEGRAL THRESHOLDS:       1.00E-13 (Initial)    1.00E-13 (Final)
 MAX. NUMBER OF ITERATIONS:       60
 INTERPOLATION TYPE:            DIIS
 INTERPOLATION STEPS:              2 (START)      1 (STEP)
 LEVEL SHIFTS:                  0.00 (CLOSED)  0.00 (OPEN) 



 Use fine grid record 1800.2 for energy threshold  1.0D-08
 Orbital guess generated from atomic densities. Full valence occupancy:   14

 Molecular orbital dump at record        2301.2

 Initial occupancy:   9

 Direct Fock-matrix evaluation.        Authors: Roland Lindh & Martin Schuetz (1993/96)

 Integral Threshold:                  0.1D-12
 Threshold for writing integrals:     0.1D-06
 Prescreening on density matrix:        ON 
 Calculation will be performed fully direct        

 ITERATION   DDIFF            GRAD            ENERGY        2-EL.EN.            DIPOLE MOMENTS         DIIS   CPU(IT)  CPU(TOT)
    1      0.000D+00      0.000D+00      -115.53949459    199.713058    0.71639    0.65425    0.21995    0   5528.2   5565.5     start
    2      0.000D+00      0.334D-02      -115.28955324    179.536363   -0.18694   -0.18604   -0.00020    1   5508.3  11073.8     diag
    3      0.339D-02      0.642D-02      -115.63502304    193.057054    0.52253    0.45132    0.25868    2   5453.3  16527.1     diag
    4      0.256D-02      0.924D-03      -115.64128567    192.836733    0.44580    0.40394    0.14972    3   4954.0  21481.1     diag
    5      0.341D-03      0.287D-03      -115.64193540    192.660741    0.44962    0.40422    0.16284    4   4828.9  26310.0     diag
    6      0.127D-03      0.482D-04      -115.64195274    192.692356    0.45057    0.40445    0.16570    5   4509.1  30819.1     diag
    7      0.229D-04      0.675D-05      -115.64195311    192.704096    0.45164    0.40539    0.16610    6   3933.0  34752.2     diag
    8      0.276D-05      0.593D-06      -115.64195311    192.703834    0.45142    0.40520    0.16603    7   3251.1  38003.3     diag
    9      0.274D-06      0.143D-06      -115.64195311    192.703694    0.45150    0.40527    0.16603    0   2948.5  40951.8     orth

 Final occupancy:   9

 !RKS STATE  1.1 Energy              -115.641953114578
 Nuclear energy                        40.29806389
 One-electron energy                 -236.92921260
 Two-electron energy                   96.35184690
 Density functional                   -15.36265130     PBEX=-14.78211823 PBEC= -0.58053307
 Virial quotient                       -1.00366483
 !RKS STATE  1.1 Dipole moment          0.45150165     0.40527215     0.16602890
 Dipole moment /Debye                   1.14752757     1.03003159     0.42197572

 Orbital energies:

         1.1          2.1          3.1          4.1          5.1          6.1          7.1          8.1          9.1         10.1
    -18.751090    -9.921116    -0.934834    -0.620779    -0.459882    -0.392818    -0.381141    -0.295426    -0.231736    -0.024686

        11.1
     -0.002656


 HOMO      9.1    -0.231736 =      -6.3059eV
 LUMO     10.1    -0.024686 =      -0.6717eV
 LUMO-HOMO         0.207050 =       5.6341eV


 **********************************************************************************************************************************
 DATASETS  * FILE   NREC   LENGTH (MB)   RECORD NAMES
              1      19       78.02       500      610      700      900      950      970     1000      129      960     1100   
                                          VAR    BASINP    GEOM    SYMINP    ZMAT    AOBASIS   BASIS     P2S    ABASIS      S 
                                         1400     1410     1200     1210     1080     1600     1650     1700     1800   
                                           T        V       H0       H01     AOSYM     SMH    MOLCAS    OPER     GRID   

              2       7      140.08       700     1000      520     1800     2101     2201     2301   
                                         GEOM     BASIS   MCVARS    GRID      RKS      RKS      RKS  

 PROGRAMS   *        TOTAL   RKS-SCF       INT   RKS-SCF       INT   RKS-SCF       INT
 CPU TIMES  *    133193.68  40955.59      2.41  41035.86      2.41  51194.47      2.75
 REAL TIME  *    133611.85 SEC
 DISK USED  *       302.77 MB (local),        1.21 GB (total)
 SF USED    *        15.83 MB
 GA USED    *         3.49 MB       (max)       3.49 MB       (current)
 **********************************************************************************************************************************
 SETTING EB_PBE         =      -115.64195311  AU                              
 SETTING E_AB_INT       =        -0.00812121  AU                              

 *** results in hartree
 E_AB_INT         =        -0.00812121 AU
 Molecular orbitals read from record     2301.2  Type=RKS/CANONICAL (state 1.1)
 Occupation numbers read from record     2301.2  Type=RKS/RHF (state 1.1)
 Orbital energies read from record       2301.2  Type=RKS/CANONICAL (state 1.1)
 Redundancy group numbers read from rec  2301.2  Type=RKS/RHF (state 1.1)

 RPBE/aug-cc-pV5Z energy=   -115.641953114578

         RKS-SCF         RKS-SCF         RKS-SCF
   -115.64195311   -115.64194971   -231.29202403
 **********************************************************************************************************************************
 Molpro calculation terminated
