 vasp.5.4.1 24Jun15 (build Jan 02 2020 16:21:29) gamma-only                     
  
 executed on           IFC15_impi date 2020.08.26  19:25:37
 running on   32 total cores
 distrk:  each k-point on   32 cores,    1 groups
 distr:  one band on NCORES_PER_BAND=   8 cores,    4 groups


--------------------------------------------------------------------------------------------------------


 INCAR:
 POTCAR:    PAW_PBE O_s 07Sep2000                 
 POTCAR:    PAW_PBE H_s 15May2010                 
 POTCAR:    PAW_PBE O_s 07Sep2000                 
   VRHFIN =O: s2p4                                                              
   LEXCH  = PE                                                                  
   EATOM  =   432.3788 eV,   31.7789 Ry                                         
                                                                                
   TITEL  = PAW_PBE O_s 07Sep2000                                               
   LULTRA =        F    use ultrasoft PP ?                                      
   IUNSCR =        0    unscreen: 0-lin 1-nonlin 2-no                           
   RPACOR =    0.000    partial core radius                                     
   POMASS =   16.000; ZVAL   =    6.000    mass and valenz                      
   RCORE  =    1.850    outmost cutoff radius                                   
   RWIGS  =    1.700; RWIGS  =    0.900    wigner-seitz radius (au A)           
   ENMAX  =  282.853; ENMIN  =  212.140 eV                                      
   RCLOC  =    0.804    cutoff for local pot                                    
   LCOR   =        T    correct aug charges                                     
   LPAW   =        T    paw PP                                                  
   EAUG   =  412.352                                                            
   RMAX   =    1.897    core radius for proj-oper                               
   RAUG   =    1.300    factor for augmentation sphere                          
   RDEP   =    1.878    radius for radial grids                                 
   RDEPT  =    1.572    core radius for aug-charge                              
                                                                                
   Atomic configuration                                                         
    4 entries                                                                   
     n  l   j            E        occ.                                          
     1  0  0.50      -514.6923   2.0000                                         
     2  0  0.50       -23.9615   2.0000                                         
     2  1  0.50        -9.0305   4.0000                                         
     3  2  1.50        -1.3606   0.0000                                         
   Description                                                                  
     l       E           TYP  RCUT    TYP  RCUT                                 
     0    -23.9615315     23  1.500                                             
     0    -25.3221141     23  1.500                                             
     1     -9.0304908     23  1.850                                             
     1     -7.3935399     23  1.850                                             
  local pseudopotential read in
  atomic valenz-charges read in
  non local Contribution for L=           0  read in
    real space projection operators read in
  non local Contribution for L=           0  read in
    real space projection operators read in
  non local Contribution for L=           1  read in
    real space projection operators read in
  non local Contribution for L=           1  read in
    real space projection operators read in
    PAW grid and wavefunctions read in
 
   number of l-projection  operators is LMAX  =           4
   number of lm-projection operators is LMMAX =           8
 
 POTCAR:    PAW_PBE H_s 15May2010                 
   VRHFIN =H: ultrasoft test                                                    
   LEXCH  = PE                                                                  
   EATOM  =    12.4884 eV,    0.9179 Ry                                         
                                                                                
   TITEL  = PAW_PBE H_s 15May2010                                               
   LULTRA =        F    use ultrasoft PP ?                                      
   IUNSCR =        0    unscreen: 0-lin 1-nonlin 2-no                           
   RPACOR =    0.000    partial core radius                                     
   POMASS =    1.000; ZVAL   =    1.000    mass and valenz                      
   RCORE  =    1.300    outmost cutoff radius                                   
   RWIGS  =    0.700; RWIGS  =    0.370    wigner-seitz radius (au A)           
   ENMAX  =  200.000; ENMIN  =  150.000 eV                                      
   RCLOC  =    0.701    cutoff for local pot                                    
   LCOR   =        T    correct aug charges                                     
   LPAW   =        T    paw PP                                                  
   EAUG   =  300.000                                                            
   RMAX   =    1.330    core radius for proj-oper                               
   RAUG   =    1.200    factor for augmentation sphere                          
   RDEP   =    1.337    radius for radial grids                                 
   RDEPT  =    1.114    core radius for aug-charge                              
                                                                                
   Atomic configuration                                                         
    2 entries                                                                   
     n  l   j            E        occ.                                          
     1  0  0.50        -6.4927   1.0000                                         
     2  1  0.50        -3.4015   0.0000                                         
   Description                                                                  
     l       E           TYP  RCUT    TYP  RCUT                                 
     0     -6.4927494     23  1.300                                             
     0      6.8029130     23  1.300                                             
     1     -4.0817478     23  1.300                                             
  local pseudopotential read in
  atomic valenz-charges read in
  non local Contribution for L=           0  read in
    real space projection operators read in
  non local Contribution for L=           0  read in
    real space projection operators read in
  non local Contribution for L=           1  read in
    real space projection operators read in
    PAW grid and wavefunctions read in
 
   number of l-projection  operators is LMAX  =           3
   number of lm-projection operators is LMMAX =           5
 
  PAW_PBE O_s 07Sep2000                 :
 energy of atom  1       EATOM= -432.3788
 kinetic energy error for atom=    0.0004 (will be added to EATOM!!)
  PAW_PBE H_s 15May2010                 :
 energy of atom  2       EATOM=  -12.4884
 kinetic energy error for atom=    0.0000 (will be added to EATOM!!)
 
 
 POSCAR: O H                                     
  positions in cartesian coordinates
  No initial velocities read in
 exchange correlation table for  LEXCH =        8
   RHO(1)=    0.500       N(1)  =     2000
   RHO(2)=  100.500       N(2)  =     4000
 


--------------------------------------------------------------------------------------------------------


 ion  position               nearest neighbor table
   1  0.980  0.997  0.999-   2 0.96   3 0.97
   2  0.970  0.022  0.000-   1 0.96
   3  0.008  0.001  1.000-   1 0.97
 
  LATTYP: Found a simple cubic cell.
 ALAT       =    35.0000000000
  
  Lattice vectors:
  
 A1 = (  35.0000000000,   0.0000000000,   0.0000000000)
 A2 = (   0.0000000000,  35.0000000000,   0.0000000000)
 A3 = (   0.0000000000,   0.0000000000,  35.0000000000)


Analysis of symmetry for initial positions (statically):
=====================================================================
 Subroutine PRICEL returns:
 Original cell was already a primitive cell.
 

 Routine SETGRP: Setting up the symmetry group for a 
 simple cubic supercell.


 Subroutine GETGRP returns: Found  1 space group operations
 (whereof  1 operations were pure point group operations)
 out of a pool of 48 trial point group operations.


The static configuration has the point symmetry C_1 .


Analysis of symmetry for dynamics (positions and initial velocities):
=====================================================================
 Subroutine PRICEL returns:
 Original cell was already a primitive cell.
 

 Routine SETGRP: Setting up the symmetry group for a 
 simple cubic supercell.


 Subroutine GETGRP returns: Found  1 space group operations
 (whereof  1 operations were pure point group operations)
 out of a pool of 48 trial point group operations.


The dynamic configuration has the point symmetry C_1 .
 
 
 KPOINTS: automatic mesh                          

Automatic generation of k-mesh.
Space group operators:
 irot       det(A)        alpha          n_x          n_y          n_z        tau_x        tau_y        tau_z
    1     1.000000     0.000000     1.000000     0.000000     0.000000     0.000000     0.000000     0.000000
 
 Subroutine IBZKPT returns following result:
 ===========================================
 
 Found      1 irreducible k-points:
 
 Following reciprocal coordinates:
            Coordinates               Weight
  0.000000  0.000000  0.000000      1.000000
 
 Following cartesian coordinates:
            Coordinates               Weight
  0.000000  0.000000  0.000000      1.000000
 
 
 Subroutine IBZKPT_HF returns following result:
 ==============================================
 
 Found      1 k-points in 1st BZ
 the following      1 k-points will be used (e.g. in the exchange kernel)
 Following reciprocal coordinates:   # in IRBZ
  0.000000  0.000000  0.000000    1.00000000   1 t-inv F


--------------------------------------------------------------------------------------------------------




 Dimension of arrays:
   k-points           NKPTS =      1   k-points in BZ     NKDIM =      1   number of bands    NBANDS=      8
   number of dos      NEDOS =    301   number of ions     NIONS =      3
   non local maximal  LDIM  =      4   non local SUM 2l+1 LMDIM =      8
   total plane-waves  NPLWV = ******
   max r-space proj   IRMAX =      1   max aug-charges    IRDMAX=  29269
   dimension x,y,z NGX =   378 NGY =  378 NGZ =  378
   dimension x,y,z NGXF=   756 NGYF=  756 NGZF=  756
   support grid    NGXF=   756 NGYF=  756 NGZF=  756
   ions per type =               1   2
 NGX,Y,Z   is equivalent  to a cutoff of  17.95, 17.95, 17.95 a.u.
 NGXF,Y,Z  is equivalent  to a cutoff of  35.91, 35.91, 35.91 a.u.


 I would recommend the setting:
   dimension x,y,z NGX =   361 NGY =  361 NGZ =  361
 SYSTEM =  C                                       
 POSCAR =  O H                                     

 Startparameter for this run:
   NWRITE =      2    write-flag & timer
   PREC   = accura    normal or accurate (medium, high low for compatibility)
   ISTART =      1    job   : 0-new  1-cont  2-samecut
   ICHARG =      0    charge: 1-file 2-atom 10-const
   ISPIN  =      1    spin polarized calculation?
   LNONCOLLINEAR =      F non collinear calculations
   LSORBIT =      F    spin-orbit coupling
   INIWAV =      1    electr: 0-lowe 1-rand  2-diag
   LASPH  =      T    aspherical Exc in radial PAW
   METAGGA=      F    non-selfconsistent MetaGGA calc.

 Electronic Relaxation 1
   ENCUT  = 1000.0 eV  73.50 Ry    8.57 a.u.  90.25 90.25 90.25*2*pi/ulx,y,z
   ENINI  = 1000.0     initial cutoff
   ENAUG  =  412.4 eV  augmentation charge cutoff
   NELM   =     60;   NELMIN=  2; NELMDL=  0     # of ELM steps 
   EDIFF  = 0.1E-06   stopping-criterion for ELM
   LREAL  =      F    real-space projection
   NLSPLINE    = F    spline interpolate recip. space projectors
   LCOMPAT=      F    compatible to vasp.4.4
   GGA_COMPAT  = T    GGA compatible to vasp.4.4-vasp.4.6
   LMAXPAW     = -100 max onsite density
   LMAXMIX     =    2 max onsite mixed and CHGCAR
   VOSKOWN=      0    Vosko Wilk Nusair interpolation
   ROPT   =    0.00000   0.00000
 Ionic relaxation
   EDIFFG = 0.1E-05   stopping-criterion for IOM
   NSW    =      0    number of steps for IOM
   NBLOCK =      1;   KBLOCK =      1    inner block; outer block 
   IBRION =     -1    ionic relax: 0-MD 1-quasi-New 2-CG
   NFREE  =      0    steps in history (QN), initial steepest desc. (CG)
   ISIF   =      0    stress and relaxation
   IWAVPR =     10    prediction:  0-non 1-charg 2-wave 3-comb
   ISYM   =      3    0-nonsym 1-usesym 2-fastsym
   LCORR  =      T    Harris-Foulkes like correction to forces

   POTIM  = 0.5000    time-step for ionic-motion
   TEIN   =    0.0    initial temperature
   TEBEG  =    0.0;   TEEND  =   0.0 temperature during run
   SMASS  =  -3.00    Nose mass-parameter (am)
   estimated Nose-frequenzy (Omega)   =  0.10E-29 period in steps =****** mass=  -0.280E-25a.u.
   SCALEE = 1.0000    scale energy and forces
   NPACO  =    256;   APACO  = 16.0  distance and # of slots for P.C.
   PSTRESS=    0.0 pullay stress

  Mass of Ions in am
   POMASS =  16.00  1.00
  Ionic Valenz
   ZVAL   =   6.00  1.00
  Atomic Wigner-Seitz radii
   RWIGS  =  -1.00 -1.00
  virtual crystal weights 
   VCA    =   1.00  1.00
   NELECT =       8.0000    total number of electrons
   NUPDOWN=      -1.0000    fix difference up-down

 DOS related values:
   EMIN   =  10.00;   EMAX   =-10.00  energy-range for DOS
   EFERMI =   0.00
   ISMEAR =     0;   SIGMA  =   0.01  broadening in eV -4-tet -1-fermi 0-gaus

 Electronic relaxation 2 (details)
   IALGO  =     58    algorithm
   LDIAG  =      T    sub-space diagonalisation (order eigenvalues)
   LSUBROT=      F    optimize rotation matrix (better conditioning)
   TURBO    =      0    0=normal 1=particle mesh
   IRESTART =      0    0=no restart 2=restart with 2 vectors
   NREBOOT  =      0    no. of reboots
   NMIN     =      0    reboot dimension
   EREF     =   0.00    reference energy to select bands
   IMIX   =      4    mixing-type and parameters
     AMIX     =   0.40;   BMIX     =  1.00
     AMIX_MAG =   1.60;   BMIX_MAG =  1.00
     AMIN     =   0.10
     WC   =   100.;   INIMIX=   1;  MIXPRE=   1;  MAXMIX= -45

 Intra band minimization:
   WEIMIN = 0.0000     energy-eigenvalue tresh-hold
   EBREAK =  0.31E-08  absolut break condition
   DEPER  =   0.30     relativ break condition  

   TIME   =   0.40     timestep for ELM

  volume/ion in A,a.u.               =   14291.67     96444.93
  Fermi-wavevector in a.u.,A,eV,Ry     =   0.093548  0.176781  0.119069  0.008751
  Thomas-Fermi vector in A             =   0.652187
 
 Write flags
   LWAVE  =      F    write WAVECAR
   LCHARG =      T    write CHGCAR
   LVTOT  =      F    write LOCPOT, total local potential
   LVHAR  =      F    write LOCPOT, Hartree potential only
   LELF   =      F    write electronic localiz. function (ELF)
   LORBIT =      0    0 simple, 1 ext, 2 COOP (PROOUT)


 Dipole corrections
   LMONO  =      F    monopole corrections only (constant potential shift)
   LDIPOL =      F    correct potential (dipole corrections)
   IDIPOL =      4    1-x, 2-y, 3-z, 4-all directions 
   EPSILON=  1.0000000 bulk dielectric constant

 Exchange correlation treatment:
   GGA     =    --    GGA type
   LEXCH   =     8    internal setting for exchange type
   VOSKOWN=      0    Vosko Wilk Nusair interpolation
   EXXOEP  =     0    0=HF, 1=EXX-LHF (local Hartree Fock) 2=EXX OEP
   LHFCALC =     T    Hartree Fock is set to
   LSYMGRAD=     F    symmetrize gradient (conserves proper symmetry)
   PRECFOCK=normal    Normal, Fast or Accurate (Low or Medium for compatibility)
   LRHFCALC=     F    long range Hartree Fock
   LRSCOR  =     F    long range correlation only (use DFT for short range part)
   LTHOMAS =     F    Thomas Fermi screening in HF
   LMODELHF=     F    short range full HF, long range fraction AEXX
   ENCUT4O =  -1.0   cutoff for four orbital integrals eV
   LMAXFOCK=     4    L truncation for augmentation on plane wave grid
   LMAXFOCKAE=  -1    L truncation for all-electron charge restoration on plane wave grid
   NMAXFOCKAE=   1    number of basis functions for all-electron charge restoration
   LFOCKAEDFT=     F  apply the AE augmentation even for DFT
   NKREDX  =     1    reduce k-point grid by
   NKREDY  =     1    reduce k-point grid by
   NKREDZ  =     1    reduce k-point grid by
   SHIFTRED=     F    shift reduced grid of Gamma
   HFKIDENT=     F    idential grid for each k-point
   ODDONLY =     F    use only odd q-grid points
   EVENONLY=     F    use only even q-grid points
   HFALPHA =   -1.0000 decay constant for conv. correction
   MCALPHA =    0.0000 extent of test-charge in conv. correction in multipole expansion
   AEXX    =    1.0000 exact exchange contribution
   HFSCREEN=    0.0000 screening length (either q_TF or 0.3 A-1)
   HFSCREENC=   0.0000 screening length for correlation (either q_TF or 0.3 A-1)
   HFRCUT  =    0.0000 spherical cutoff for potential kernel
   ALDAX   =    0.0000 LDA exchange part
   AGGAX   =    0.0000 GGA exchange part
   ALDAC   =    0.0000 LDA correlation
   AGGAC   =    0.0000 GGA correlation
   NBANDSGWLOW=     1    first orbital included in HF term
   ENCUTFOCK=  -1.0 apply spherical cutoff to Coloumb kernel
 Linear response parameters
   LEPSILON=     F    determine dielectric tensor
   LRPA    =     F    only Hartree local field effects (RPA)
   LNABLA  =     F    use nabla operator in PAW spheres
   LVEL    =     F    velocity operator in full k-point grid
   LINTERFAST=   F  fast interpolation
   KINTER  =     0    interpolate to denser k-point grid
   CSHIFT  =0.1000    complex shift for real part using Kramers Kronig
   OMEGAMAX=  -1.0    maximum frequency
   DEG_THRESHOLD= 0.2000000E-02 threshold for treating states as degnerate
   RTIME   =    0.100 relaxation time in fs

 Orbital magnetization related:
   ORBITALMAG=     F  switch on orbital magnetization
   LCHIMAG   =     F  perturbation theory with respect to B field
   DQ        =  0.001000  dq finite difference perturbation B field



--------------------------------------------------------------------------------------------------------


 Static calculation
 charge density and potential will be updated during run
 non-spin polarized calculation
 Conjugate gradient for all bands (Freysoldt, et al. PRB 79, 241103 (2009))
 preconditioned conjugated gradient                                        
 perform sub-space diagonalisation
    before iterative eigenvector-optimisation
 modified Broyden-mixing scheme, WC =      100.0
 initial mixing is a Kerker type mixing with AMIX =  0.4000 and BMIX =      1.0000
 Hartree-type preconditioning will be used
 using additional bands            4
 reciprocal scheme for non local part
 no Harris-corrections to forces 
 use gradient corrections 
 use of overlap-Matrix (Vanderbilt PP)
 Gauss-broadening in eV      SIGMA  =   0.01


--------------------------------------------------------------------------------------------------------


  energy-cutoff  :     1000.00
  volume of cell :    42875.00
      direct lattice vectors                 reciprocal lattice vectors
    35.000000000  0.000000000  0.000000000     0.028571429  0.000000000  0.000000000
     0.000000000 35.000000000  0.000000000     0.000000000  0.028571429  0.000000000
     0.000000000  0.000000000 35.000000000     0.000000000  0.000000000  0.028571429

  length of vectors
    35.000000000 35.000000000 35.000000000     0.028571429  0.028571429  0.028571429


 
 old parameters found on file WAVECAR:
  energy-cutoff  :     1000.00
  volume of cell :    42875.00
      direct lattice vectors                 reciprocal lattice vectors
    35.000000000  0.000000000  0.000000000     0.028571429  0.000000000  0.000000000
     0.000000000 35.000000000  0.000000000     0.000000000  0.028571429  0.000000000
     0.000000000  0.000000000 35.000000000     0.000000000  0.000000000  0.028571429

  length of vectors

 
 k-points in units of 2pi/SCALE and weight: automatic mesh                          
   0.00000000  0.00000000  0.00000000       1.000
 
 k-points in reciprocal lattice and weights: automatic mesh                          
   0.00000000  0.00000000  0.00000000       1.000
 
 position of ions in fractional coordinates (direct lattice) 
   0.98035815  0.99680730  0.99943927
   0.97011081  0.02216966  0.00036305
   0.00782979  0.00073859  0.99990008
 
 position of ions in cartesian coordinates  (Angst):
  34.31253510 34.88825567 34.98037453
  33.95387846  0.77593821  0.01270684
   0.27404252  0.02585065 34.99650274
 


--------------------------------------------------------------------------------------------------------


 use parallel FFT for wavefunctions z direction half grid
 k-point  1 :   0.0000 0.0000 0.0000  plane waves: 1539209

 maximum and minimum number of plane-waves per node :    192406   192397

 maximum number of plane-waves:   1539209
 maximum index in each direction: 
   IXMAX=   90   IYMAX=   90   IZMAX=   90
   IXMIN=  -90   IYMIN=  -90   IZMIN=    0

 NGX is ok and might be reduce to 362
 NGY is ok and might be reduce to 362
 NGZ is ok and might be reduce to 362

 parallel 3D FFT for wavefunctions:
    minimum data exchange during FFTs selected (reduces bandwidth)
 parallel 3D FFT for charge:
    minimum data exchange during FFTs selected (reduces bandwidth)


 FFT grid for exact exchange (Hartree Fock) 
  NGX =280; NGY =280; NGZ =280

 use parallel FFT for wavefunctions z direction half grid
 
 Radii for the augmentation spheres in the non-local exchange
 for species   1 augmentation radius   1.093 (default was   0.874)
       energy cutoff for augmentation   4000.0
 for species   2 augmentation radius   0.782 (default was   0.626)
       energy cutoff for augmentation   4000.0

 real space projection operators:
  total allocation   :        340.95 KBytes
  max/ min on nodes  :         45.49         39.52

 Maximum index for augmentation-charges in exchange          363
  SETUP_FOCK is finished

 total amount of memory used by VASP on root node  1819911. kBytes
========================================================================

   base      :      30000. kBytes
   nonl-proj :      33863. kBytes
   fftplans  :     693297. kBytes
   grid      :    1044223. kBytes
   one-center:          1. kBytes
   HF        :          4. kBytes
   nonlr-proj:         52. kBytes
   wavefun   :      18471. kBytes
 
     INWAV:  cpu time    0.8499: real time    0.8837
 Broyden mixing: mesh for mixing (old mesh)
   NGX =181   NGY =181   NGZ =181
  (NGX  =756   NGY  =756   NGZ  =756)
  gives a total of ****** points

 charge density for first step will be calculated from the start-wavefunctions


--------------------------------------------------------------------------------------------------------


 Maximum index for augmentation-charges         1465 (set IRDMAX)


--------------------------------------------------------------------------------------------------------


 initial charge from wavefunction
 FEWALD executed in parallel
    FEWALD:  cpu time    0.0008: real time    0.0008


----------------------------------------- Iteration    1(   1)  ---------------------------------------


    POTLOK:  cpu time    7.9724: real time    7.9939
    SETDIJ:  cpu time    0.0489: real time    0.0490
    TRIAL :  cpu time    3.2328: real time    3.2520
    CORREC:  cpu time   11.4110: real time   11.4516
    CHARGE:  cpu time    0.8230: real time    0.8263
    --------------------------------------------
      LOOP:  cpu time   23.5328: real time   23.6322

 eigenvalue-minimisations  :     0
 total energy-change (2. order) :-0.2888658E+02  (-0.1510440E+00)
 number of electron       8.0000000 magnetization 
 augmentation part        1.3697275 magnetization 

 Free energy of the ion-electron system (eV)
  ---------------------------------------------------
  alpha Z        PSCENC =         0.00430885
  Ewald energy   TEWEN  =       151.26891132
  -Hartree energ DENC   =      -541.31691772
  -exchange      EXHF   =       102.65458022
  -V(xc)+E(xc)   XCENC  =         0.00000000
  PAW double counting   =      1294.61629321    -1294.83568412
  entropy T*S    EENTRO =        -0.00000000
  eigenvalues    EBANDS =      -173.50575014
  atomic energy  EATOM  =       432.22767645
  ---------------------------------------------------
  free energy    TOTEN  =       -28.88658192 eV

  energy without entropy =      -28.88658192  energy(sigma->0) =      -28.88658192
  exchange ACFDT corr.  =        -0.00000000  see jH, gK, PRB 81, 115126


--------------------------------------------------------------------------------------------------------




----------------------------------------- Iteration    1(   2)  ---------------------------------------


    POTLOK:  cpu time    7.9759: real time    7.9969
    SETDIJ:  cpu time    0.0483: real time    0.0484
    TRIAL :  cpu time    3.2199: real time    3.2397
    CORREC:  cpu time   11.4858: real time   11.5254
    CHARGE:  cpu time    0.8245: real time    0.8279
    --------------------------------------------
      LOOP:  cpu time   23.5583: real time   23.6445

 eigenvalue-minimisations  :     0
 total energy-change (2. order) :-0.1513132E+00  (-0.2939456E-01)
 number of electron       8.0000000 magnetization 
 augmentation part        1.3606513 magnetization 

 Free energy of the ion-electron system (eV)
  ---------------------------------------------------
  alpha Z        PSCENC =         0.00430885
  Ewald energy   TEWEN  =       151.26891132
  -Hartree energ DENC   =      -544.76070943
  -exchange      EXHF   =       103.50780206
  -V(xc)+E(xc)   XCENC  =         0.00000000
  PAW double counting   =      1545.90072977    -1545.98432441
  entropy T*S    EENTRO =        -0.00000000
  eigenvalues    EBANDS =      -171.20228978
  atomic energy  EATOM  =       432.22767645
  ---------------------------------------------------
  free energy    TOTEN  =       -29.03789517 eV

  energy without entropy =      -29.03789517  energy(sigma->0) =      -29.03789517
  exchange ACFDT corr.  =         0.00000000  see jH, gK, PRB 81, 115126


--------------------------------------------------------------------------------------------------------




----------------------------------------- Iteration    1(   3)  ---------------------------------------


    POTLOK:  cpu time    7.9923: real time    8.0135
    SETDIJ:  cpu time    0.0488: real time    0.0490
    TRIAL :  cpu time    3.2223: real time    3.2418
    CORREC:  cpu time   12.1529: real time   12.1944
    CHARGE:  cpu time    0.8289: real time    0.8323
    --------------------------------------------
      LOOP:  cpu time   24.2485: real time   24.3367

 eigenvalue-minimisations  :     0
 total energy-change (2. order) :-0.2937178E-01  (-0.8449306E-02)
 number of electron       8.0000000 magnetization 
 augmentation part        1.3578390 magnetization 

 Free energy of the ion-electron system (eV)
  ---------------------------------------------------
  alpha Z        PSCENC =         0.00430885
  Ewald energy   TEWEN  =       151.26891132
  -Hartree energ DENC   =      -544.27546050
  -exchange      EXHF   =       103.48145624
  -V(xc)+E(xc)   XCENC  =         0.00000000
  PAW double counting   =      1657.73923875    -1657.77047759
  entropy T*S    EENTRO =        -0.00000000
  eigenvalues    EBANDS =      -171.74292047
  atomic energy  EATOM  =       432.22767645
  ---------------------------------------------------
  free energy    TOTEN  =       -29.06726695 eV

  energy without entropy =      -29.06726695  energy(sigma->0) =      -29.06726695
  exchange ACFDT corr.  =        -0.00000000  see jH, gK, PRB 81, 115126


--------------------------------------------------------------------------------------------------------




----------------------------------------- Iteration    1(   4)  ---------------------------------------


    POTLOK:  cpu time    8.6192: real time    8.6421
    SETDIJ:  cpu time    0.1122: real time    0.1125
    TRIAL :  cpu time    3.2719: real time    3.2912
    CORREC:  cpu time   12.1806: real time   12.2218
    CHARGE:  cpu time    0.8270: real time    0.8304
    --------------------------------------------
      LOOP:  cpu time   25.0295: real time   25.1194

 eigenvalue-minimisations  :     0
 total energy-change (2. order) :-0.8452339E-02  (-0.2755043E-02)
 number of electron       8.0000000 magnetization 
 augmentation part        1.3602949 magnetization 

 Free energy of the ion-electron system (eV)
  ---------------------------------------------------
  alpha Z        PSCENC =         0.00430885
  Ewald energy   TEWEN  =       151.26891132
  -Hartree energ DENC   =      -544.17631345
  -exchange      EXHF   =       103.47323949
  -V(xc)+E(xc)   XCENC  =         0.00000000
  PAW double counting   =      1686.92026110    -1686.92954544
  entropy T*S    EENTRO =        -0.00000000
  eigenvalues    EBANDS =      -171.86425762
  atomic energy  EATOM  =       432.22767645
  ---------------------------------------------------
  free energy    TOTEN  =       -29.07571929 eV

  energy without entropy =      -29.07571929  energy(sigma->0) =      -29.07571929
  exchange ACFDT corr.  =         0.00000000  see jH, gK, PRB 81, 115126


--------------------------------------------------------------------------------------------------------




----------------------------------------- Iteration    1(   5)  ---------------------------------------


    POTLOK:  cpu time    8.6290: real time    8.6518
    SETDIJ:  cpu time    0.1120: real time    0.1123
    TRIAL :  cpu time    3.2864: real time    3.3067
    CORREC:  cpu time   12.1552: real time   12.1965
    CHARGE:  cpu time    0.8295: real time    0.8328
    --------------------------------------------
      LOOP:  cpu time   25.0312: real time   25.1215

 eigenvalue-minimisations  :     0
 total energy-change (2. order) :-0.2756011E-02  (-0.9139022E-03)
 number of electron       8.0000000 magnetization 
 augmentation part        1.3602132 magnetization 

 Free energy of the ion-electron system (eV)
  ---------------------------------------------------
  alpha Z        PSCENC =         0.00430885
  Ewald energy   TEWEN  =       151.26891132
  -Hartree energ DENC   =      -544.61151817
  -exchange      EXHF   =       103.54255670
  -V(xc)+E(xc)   XCENC  =         0.00000000
  PAW double counting   =      1676.41442804    -1676.42787138
  entropy T*S    EENTRO =        -0.00000000
  eigenvalues    EBANDS =      -171.49696711
  atomic energy  EATOM  =       432.22767645
  ---------------------------------------------------
  free energy    TOTEN  =       -29.07847530 eV

  energy without entropy =      -29.07847530  energy(sigma->0) =      -29.07847530
  exchange ACFDT corr.  =         0.00000000  see jH, gK, PRB 81, 115126


--------------------------------------------------------------------------------------------------------




----------------------------------------- Iteration    1(   6)  ---------------------------------------


    POTLOK:  cpu time    8.6289: real time    8.6519
    SETDIJ:  cpu time    0.1116: real time    0.1119
    TRIAL :  cpu time    3.2781: real time    3.2978
    CORREC:  cpu time   12.1436: real time   12.1851
    CHARGE:  cpu time    0.8314: real time    0.8349
    --------------------------------------------
      LOOP:  cpu time   25.0125: real time   25.1030

 eigenvalue-minimisations  :     0
 total energy-change (2. order) :-0.9128910E-03  (-0.3342901E-03)
 number of electron       8.0000000 magnetization 
 augmentation part        1.3601905 magnetization 

 Free energy of the ion-electron system (eV)
  ---------------------------------------------------
  alpha Z        PSCENC =         0.00430885
  Ewald energy   TEWEN  =       151.26891132
  -Hartree energ DENC   =      -544.45525574
  -exchange      EXHF   =       103.50969025
  -V(xc)+E(xc)   XCENC  =         0.00000000
  PAW double counting   =      1669.93309741    -1669.94767920
  entropy T*S    EENTRO =        -0.00000000
  eigenvalues    EBANDS =      -171.62013753
  atomic energy  EATOM  =       432.22767645
  ---------------------------------------------------
  free energy    TOTEN  =       -29.07938819 eV

  energy without entropy =      -29.07938819  energy(sigma->0) =      -29.07938819
  exchange ACFDT corr.  =         0.00000000  see jH, gK, PRB 81, 115126


--------------------------------------------------------------------------------------------------------




----------------------------------------- Iteration    1(   7)  ---------------------------------------


    POTLOK:  cpu time    8.6174: real time    8.6404
    SETDIJ:  cpu time    0.1128: real time    0.1131
    TRIAL :  cpu time    3.2974: real time    3.3165
    CORREC:  cpu time   12.1188: real time   12.1606
    CHARGE:  cpu time    0.8295: real time    0.8329
    --------------------------------------------
      LOOP:  cpu time   24.9934: real time   25.0836

 eigenvalue-minimisations  :     0
 total energy-change (2. order) :-0.3356541E-03  (-0.1736937E-03)
 number of electron       8.0000000 magnetization 
 augmentation part        1.3604387 magnetization 

 Free energy of the ion-electron system (eV)
  ---------------------------------------------------
  alpha Z        PSCENC =         0.00430885
  Ewald energy   TEWEN  =       151.26891132
  -Hartree energ DENC   =      -544.43305491
  -exchange      EXHF   =       103.50455472
  -V(xc)+E(xc)   XCENC  =         0.00000000
  PAW double counting   =      1666.17877506    -1666.19315659
  entropy T*S    EENTRO =        -0.00000000
  eigenvalues    EBANDS =      -171.63773875
  atomic energy  EATOM  =       432.22767645
  ---------------------------------------------------
  free energy    TOTEN  =       -29.07972384 eV

  energy without entropy =      -29.07972384  energy(sigma->0) =      -29.07972384
  exchange ACFDT corr.  =         0.00000000  see jH, gK, PRB 81, 115126


--------------------------------------------------------------------------------------------------------




----------------------------------------- Iteration    1(   8)  ---------------------------------------


    POTLOK:  cpu time    8.6232: real time    8.6460
    SETDIJ:  cpu time    0.1116: real time    0.1119
    TRIAL :  cpu time    3.2722: real time    3.2914
    CORREC:  cpu time   12.1823: real time   12.2236
    CHARGE:  cpu time    0.8297: real time    0.8332
    --------------------------------------------
      LOOP:  cpu time   25.0372: real time   25.1268

 eigenvalue-minimisations  :     0
 total energy-change (2. order) :-0.1767858E-03  (-0.9840135E-04)
 number of electron       8.0000000 magnetization 
 augmentation part        1.3602454 magnetization 

 Free energy of the ion-electron system (eV)
  ---------------------------------------------------
  alpha Z        PSCENC =         0.00430885
  Ewald energy   TEWEN  =       151.26891132
  -Hartree energ DENC   =      -544.49295871
  -exchange      EXHF   =       103.51629094
  -V(xc)+E(xc)   XCENC  =         0.00000000
  PAW double counting   =      1664.99856037    -1665.01282483
  entropy T*S    EENTRO =        -0.00000000
  eigenvalues    EBANDS =      -171.58986503
  atomic energy  EATOM  =       432.22767645
  ---------------------------------------------------
  free energy    TOTEN  =       -29.07990063 eV

  energy without entropy =      -29.07990063  energy(sigma->0) =      -29.07990063
  exchange ACFDT corr.  =         0.00000000  see jH, gK, PRB 81, 115126


--------------------------------------------------------------------------------------------------------




----------------------------------------- Iteration    1(   9)  ---------------------------------------


    POTLOK:  cpu time    8.6325: real time    8.6553
    SETDIJ:  cpu time    0.1121: real time    0.1124
    TRIAL :  cpu time    3.2874: real time    3.3076
    CORREC:  cpu time   12.1790: real time   12.2204
    CHARGE:  cpu time    0.8295: real time    0.8329
    --------------------------------------------
      LOOP:  cpu time   25.0557: real time   25.1459

 eigenvalue-minimisations  :     0
 total energy-change (2. order) :-0.9942686E-04  (-0.5192818E-04)
 number of electron       8.0000000 magnetization 
 augmentation part        1.3604624 magnetization 

 Free energy of the ion-electron system (eV)
  ---------------------------------------------------
  alpha Z        PSCENC =         0.00430885
  Ewald energy   TEWEN  =       151.26891132
  -Hartree energ DENC   =      -544.45175037
  -exchange      EXHF   =       103.51084172
  -V(xc)+E(xc)   XCENC  =         0.00000000
  PAW double counting   =      1666.63213917    -1666.64551130
  entropy T*S    EENTRO =        -0.00000000
  eigenvalues    EBANDS =      -171.62661590
  atomic energy  EATOM  =       432.22767645
  ---------------------------------------------------
  free energy    TOTEN  =       -29.08000006 eV

  energy without entropy =      -29.08000006  energy(sigma->0) =      -29.08000006
  exchange ACFDT corr.  =        -0.00000000  see jH, gK, PRB 81, 115126


--------------------------------------------------------------------------------------------------------




----------------------------------------- Iteration    1(  10)  ---------------------------------------


    POTLOK:  cpu time    8.6261: real time    8.6487
    SETDIJ:  cpu time    0.1122: real time    0.1124
    TRIAL :  cpu time    3.2936: real time    3.3135
    CORREC:  cpu time   12.1699: real time   12.2118
    CHARGE:  cpu time    0.8316: real time    0.8351
    --------------------------------------------
      LOOP:  cpu time   25.0510: real time   25.1414

 eigenvalue-minimisations  :     0
 total energy-change (2. order) :-0.5265122E-04  (-0.2456507E-04)
 number of electron       8.0000000 magnetization 
 augmentation part        1.3605319 magnetization 

 Free energy of the ion-electron system (eV)
  ---------------------------------------------------
  alpha Z        PSCENC =         0.00430885
  Ewald energy   TEWEN  =       151.26891132
  -Hartree energ DENC   =      -544.48358724
  -exchange      EXHF   =       103.51645322
  -V(xc)+E(xc)   XCENC  =         0.00000000
  PAW double counting   =      1666.75417254    -1666.76823315
  entropy T*S    EENTRO =        -0.00000000
  eigenvalues    EBANDS =      -171.59975472
  atomic energy  EATOM  =       432.22767645
  ---------------------------------------------------
  free energy    TOTEN  =       -29.08005271 eV

  energy without entropy =      -29.08005271  energy(sigma->0) =      -29.08005271
  exchange ACFDT corr.  =         0.00000000  see jH, gK, PRB 81, 115126


--------------------------------------------------------------------------------------------------------




----------------------------------------- Iteration    1(  11)  ---------------------------------------


    POTLOK:  cpu time    8.6312: real time    8.6539
    SETDIJ:  cpu time    0.1105: real time    0.1110
    TRIAL :  cpu time    3.2734: real time    3.2933
    CORREC:  cpu time   12.1451: real time   12.1867
    CHARGE:  cpu time    0.8324: real time    0.8358
    --------------------------------------------
      LOOP:  cpu time   25.0114: real time   25.1020

 eigenvalue-minimisations  :     0
 total energy-change (2. order) :-0.2464922E-04  (-0.9181384E-05)
 number of electron       8.0000000 magnetization 
 augmentation part        1.3605591 magnetization 

 Free energy of the ion-electron system (eV)
  ---------------------------------------------------
  alpha Z        PSCENC =         0.00430885
  Ewald energy   TEWEN  =       151.26891132
  -Hartree energ DENC   =      -544.48010873
  -exchange      EXHF   =       103.51499515
  -V(xc)+E(xc)   XCENC  =         0.00000000
  PAW double counting   =      1666.36205335    -1666.37674690
  entropy T*S    EENTRO =        -0.00000000
  eigenvalues    EBANDS =      -171.60116686
  atomic energy  EATOM  =       432.22767645
  ---------------------------------------------------
  free energy    TOTEN  =       -29.08007736 eV

  energy without entropy =      -29.08007736  energy(sigma->0) =      -29.08007736
  exchange ACFDT corr.  =         0.00000000  see jH, gK, PRB 81, 115126


--------------------------------------------------------------------------------------------------------




----------------------------------------- Iteration    1(  12)  ---------------------------------------


    POTLOK:  cpu time    8.6242: real time    8.6472
    SETDIJ:  cpu time    0.1113: real time    0.1116
    TRIAL :  cpu time    3.2705: real time    3.2900
    CORREC:  cpu time   12.1794: real time   12.2210
    CHARGE:  cpu time    0.8293: real time    0.8328
    --------------------------------------------
      LOOP:  cpu time   25.0343: real time   25.1242

 eigenvalue-minimisations  :     0
 total energy-change (2. order) :-0.9171723E-05  (-0.2948270E-05)
 number of electron       8.0000000 magnetization 
 augmentation part        1.3605962 magnetization 

 Free energy of the ion-electron system (eV)
  ---------------------------------------------------
  alpha Z        PSCENC =         0.00430885
  Ewald energy   TEWEN  =       151.26891132
  -Hartree energ DENC   =      -544.47713701
  -exchange      EXHF   =       103.51396568
  -V(xc)+E(xc)   XCENC  =         0.00000000
  PAW double counting   =      1666.23104451    -1666.24617321
  entropy T*S    EENTRO =        -0.00000000
  eigenvalues    EBANDS =      -171.60268312
  atomic energy  EATOM  =       432.22767645
  ---------------------------------------------------
  free energy    TOTEN  =       -29.08008653 eV

  energy without entropy =      -29.08008653  energy(sigma->0) =      -29.08008653
  exchange ACFDT corr.  =         0.00000000  see jH, gK, PRB 81, 115126


--------------------------------------------------------------------------------------------------------




----------------------------------------- Iteration    1(  13)  ---------------------------------------


    POTLOK:  cpu time    8.6082: real time    8.6310
    SETDIJ:  cpu time    0.1140: real time    0.1143
    TRIAL :  cpu time    3.2804: real time    3.2998
    CORREC:  cpu time   12.1609: real time   12.2024
    CHARGE:  cpu time    0.8326: real time    0.8361
    --------------------------------------------
      LOOP:  cpu time   25.0173: real time   25.1073

 eigenvalue-minimisations  :     0
 total energy-change (2. order) :-0.2948379E-05  (-0.9674850E-06)
 number of electron       8.0000000 magnetization 
 augmentation part        1.3605912 magnetization 

 Free energy of the ion-electron system (eV)
  ---------------------------------------------------
  alpha Z        PSCENC =         0.00430885
  Ewald energy   TEWEN  =       151.26891132
  -Hartree energ DENC   =      -544.48264078
  -exchange      EXHF   =       103.51476634
  -V(xc)+E(xc)   XCENC  =         0.00000000
  PAW double counting   =      1666.22609002    -1666.24150447
  entropy T*S    EENTRO =        -0.00000000
  eigenvalues    EBANDS =      -171.59769722
  atomic energy  EATOM  =       432.22767645
  ---------------------------------------------------
  free energy    TOTEN  =       -29.08008948 eV

  energy without entropy =      -29.08008948  energy(sigma->0) =      -29.08008948
  exchange ACFDT corr.  =         0.00000000  see jH, gK, PRB 81, 115126


--------------------------------------------------------------------------------------------------------




----------------------------------------- Iteration    1(  14)  ---------------------------------------


    POTLOK:  cpu time    8.6116: real time    8.6346
    SETDIJ:  cpu time    0.1121: real time    0.1123
    TRIAL :  cpu time    3.2642: real time    3.2838
    CORREC:  cpu time   12.1579: real time   12.1988
    CHARGE:  cpu time    0.8278: real time    0.8314
    --------------------------------------------
      LOOP:  cpu time   24.9895: real time   25.0790

 eigenvalue-minimisations  :     0
 total energy-change (2. order) :-0.9671399E-06  (-0.3156052E-06)
 number of electron       8.0000000 magnetization 
 augmentation part        1.3606071 magnetization 

 Free energy of the ion-electron system (eV)
  ---------------------------------------------------
  alpha Z        PSCENC =         0.00430885
  Ewald energy   TEWEN  =       151.26891132
  -Hartree energ DENC   =      -544.47927550
  -exchange      EXHF   =       103.51414332
  -V(xc)+E(xc)   XCENC  =         0.00000000
  PAW double counting   =      1666.31129615    -1666.32681893
  entropy T*S    EENTRO =        -0.00000000
  eigenvalues    EBANDS =      -171.60033211
  atomic energy  EATOM  =       432.22767645
  ---------------------------------------------------
  free energy    TOTEN  =       -29.08009044 eV

  energy without entropy =      -29.08009044  energy(sigma->0) =      -29.08009044
  exchange ACFDT corr.  =         0.00000000  see jH, gK, PRB 81, 115126


--------------------------------------------------------------------------------------------------------




----------------------------------------- Iteration    1(  15)  ---------------------------------------


    POTLOK:  cpu time    8.6125: real time    8.6355
    SETDIJ:  cpu time    0.1109: real time    0.1112
    TRIAL :  cpu time    3.2998: real time    3.3198
    CORREC:  cpu time   12.1915: real time   12.2329
    CHARGE:  cpu time    0.8335: real time    0.8369
    --------------------------------------------
      LOOP:  cpu time   25.0665: real time   25.1571

 eigenvalue-minimisations  :     0
 total energy-change (2. order) :-0.3156532E-06  (-0.1138190E-06)
 number of electron       8.0000000 magnetization 
 augmentation part        1.3606143 magnetization 

 Free energy of the ion-electron system (eV)
  ---------------------------------------------------
  alpha Z        PSCENC =         0.00430885
  Ewald energy   TEWEN  =       151.26891132
  -Hartree energ DENC   =      -544.48055630
  -exchange      EXHF   =       103.51435625
  -V(xc)+E(xc)   XCENC  =         0.00000000
  PAW double counting   =      1666.31513797    -1666.33077786
  entropy T*S    EENTRO =        -0.00000000
  eigenvalues    EBANDS =      -171.59914744
  atomic energy  EATOM  =       432.22767645
  ---------------------------------------------------
  free energy    TOTEN  =       -29.08009076 eV

  energy without entropy =      -29.08009076  energy(sigma->0) =      -29.08009076
  exchange ACFDT corr.  =        -0.00000000  see jH, gK, PRB 81, 115126


--------------------------------------------------------------------------------------------------------




----------------------------------------- Iteration    1(  16)  ---------------------------------------


    POTLOK:  cpu time    8.6230: real time    8.6459
    SETDIJ:  cpu time    0.1110: real time    0.1113
    TRIAL :  cpu time    3.2742: real time    3.2937
    CORREC:  cpu time   12.1636: real time   12.2057
    CHARGE:  cpu time    0.8333: real time    0.8368
    --------------------------------------------
      LOOP:  cpu time   25.0232: real time   25.1141

 eigenvalue-minimisations  :     0
 total energy-change (2. order) :-0.1138142E-06  (-0.4981468E-07)
 number of electron       8.0000000 magnetization 
 augmentation part        1.3606131 magnetization 

 Free energy of the ion-electron system (eV)
  ---------------------------------------------------
  alpha Z        PSCENC =         0.00430885
  Ewald energy   TEWEN  =       151.26891132
  -Hartree energ DENC   =      -544.48115443
  -exchange      EXHF   =       103.51447246
  -V(xc)+E(xc)   XCENC  =         0.00000000
  PAW double counting   =      1666.31569622    -1666.33139117
  entropy T*S    EENTRO =        -0.00000000
  eigenvalues    EBANDS =      -171.59861057
  atomic energy  EATOM  =       432.22767645
  ---------------------------------------------------
  free energy    TOTEN  =       -29.08009087 eV

  energy without entropy =      -29.08009087  energy(sigma->0) =      -29.08009087
  exchange ACFDT corr.  =         0.00000000  see jH, gK, PRB 81, 115126


--------------------------------------------------------------------------------------------------------




----------------------------------------- Iteration    1(  17)  ---------------------------------------


    POTLOK:  cpu time    8.6350: real time    8.6574
    SETDIJ:  cpu time    0.1123: real time    0.1126
    TRIAL :  cpu time    3.2770: real time    3.2962
    CORREC:  cpu time   12.1913: real time   12.2326
    CHARGE:  cpu time    0.8328: real time    0.8363
    --------------------------------------------
      LOOP:  cpu time   25.0665: real time   25.1554

 eigenvalue-minimisations  :     0
 total energy-change (2. order) :-0.4980785E-07  (-0.2232324E-07)
 number of electron       8.0000000 magnetization 
 augmentation part        1.3606137 magnetization 

 Free energy of the ion-electron system (eV)
  ---------------------------------------------------
  alpha Z        PSCENC =         0.00430885
  Ewald energy   TEWEN  =       151.26891132
  -Hartree energ DENC   =      -544.48064377
  -exchange      EXHF   =       103.51440019
  -V(xc)+E(xc)   XCENC  =         0.00000000
  PAW double counting   =      1666.32469034    -1666.34039504
  entropy T*S    EENTRO =        -0.00000000
  eigenvalues    EBANDS =      -171.59903928
  atomic energy  EATOM  =       432.22767645
  ---------------------------------------------------
  free energy    TOTEN  =       -29.08009092 eV

  energy without entropy =      -29.08009092  energy(sigma->0) =      -29.08009092
  exchange ACFDT corr.  =         0.00000000  see jH, gK, PRB 81, 115126


--------------------------------------------------------------------------------------------------------


  average scaling for gradient   2.9013


 average (electrostatic) potential at core
  the test charge radii are     0.8742  0.6256
  (the norm of the test charge is              1.0000)
       1 -65.1208       2 -23.8992       3 -23.8264
 
 
 
 E-fermi : -13.8296     XC(G=0):   0.0000     alpha+bet : -0.0032


 k-point     1 :       0.0000    0.0000    0.0000
  band No.  band energies     occupation 
      1     -36.8662      2.00000
      2     -19.2826      2.00000
      3     -15.7548      2.00000
      4     -13.8957      2.00000
      5      -0.0012      0.00000
      6       0.1099      0.00000
      7       0.1217      0.00000
      8       0.1677      0.00000


--------------------------------------------------------------------------------------------------------


 soft charge-density along one line, spin component           1
         0         1         2         3         4         5         6         7         8         9
 total charge-density along one line
 
 pseudopotential strength for first ion, spin component:           1
 21.182  20.981  -0.470  -0.022  -0.264  -0.527  -0.025  -0.296
 20.981  20.784  -0.467  -0.022  -0.262  -0.523  -0.025  -0.294
 -0.470  -0.467  -0.860  -0.017   0.116  -0.588  -0.019   0.129
 -0.022  -0.022  -0.017  -0.405  -0.002  -0.019  -0.085  -0.002
 -0.264  -0.262   0.116  -0.002  -0.989   0.129  -0.002  -0.732
 -0.527  -0.523  -0.588  -0.019   0.129  -0.239  -0.021   0.142
 -0.025  -0.025  -0.019  -0.085  -0.002  -0.021   0.318  -0.002
 -0.296  -0.294   0.129  -0.002  -0.732   0.142  -0.002  -0.398
 total augmentation occupancy for first ion, spin component:           1
 11.716 -12.784 -14.745  -0.695  -8.519  10.220   0.482   5.908
-12.784  15.716  15.765   0.743   9.071 -11.283  -0.532  -6.491
-14.745  15.765  27.777   0.688  -5.019 -19.537  -0.552   4.135
 -0.695   0.743   0.688   9.622   0.056  -0.552  -4.939  -0.042
 -8.519   9.071  -5.019   0.056  33.472   4.131  -0.043 -24.253
 10.220 -11.283 -19.537  -0.552   4.131  13.824   0.426  -3.302
  0.482  -0.532  -0.552  -4.939  -0.043   0.426   2.537   0.030
  5.908  -6.491   4.135  -0.042 -24.253  -3.302   0.030  17.605


------------------------ aborting loop because EDIFF is reached ----------------------------------------



 DIPCOR: dipole corrections for dipol
 direction  1 min pos   367, direction  2 min pos   375, direction  3 min pos   376,
 dipolmoment          -0.218552     -0.375115     -0.017708 electrons x Angstroem
 Tr[quadrupol]         2.893713

 energy correction for charged system         0.000000 eV
 dipol+quadrupol energy correction            0.000133 eV
 added-field ion interaction          0.000000 eV  (added to PSCEN)

 
  *************** adding dipol energy to TOTEN NOW **************** 
    FORLOC:  cpu time    0.4104: real time    0.4116
    FORHF :  cpu time    1.9424: real time    1.9479
    FORNL :  cpu time    0.0489: real time    0.0491
    OFIELD:  cpu time    0.0708: real time    0.0710

 VOLUME and BASIS-vectors are now :
 -----------------------------------------------------------------------------
  energy-cutoff  :     1000.00
  volume of cell :    42875.00
      direct lattice vectors                 reciprocal lattice vectors
    35.000000000  0.000000000  0.000000000     0.028571429  0.000000000  0.000000000
     0.000000000 35.000000000  0.000000000     0.000000000  0.028571429  0.000000000
     0.000000000  0.000000000 35.000000000     0.000000000  0.000000000  0.028571429

  length of vectors
    35.000000000 35.000000000 35.000000000     0.028571429  0.028571429  0.028571429


 FORCES acting on ions:
    Electron-Ion                     Ewald-Force                    Non-Local-Force
 -----------------------------------------------------------------------------------------------
   0.199E+02 0.368E+02 0.172E+01   -.554E+02 -.100E+03 -.470E+01   0.125E+02 0.212E+02 0.100E+01
   0.368E+02 -.822E+02 -.295E+01   -.407E+02 0.903E+02 0.324E+01   0.188E+01 -.424E+01 -.152E+00
   -.882E+02 -.933E+01 -.134E+01   0.960E+02 0.988E+01 0.145E+01   -.452E+01 -.485E+00 -.692E-01
 -----------------------------------------------------------------------------------------------
   -.316E+02 -.547E+02 -.258E+01   0.000E+00 -.178E-14 -.222E-15   0.982E+01 0.165E+02 0.781E+00
 
 
 POSITION                                       TOTAL-FORCE (eV/Angst)
 -----------------------------------------------------------------------------------
     34.31254     34.88826     34.98037         0.650034     -0.310817     -0.005558
     33.95388      0.77594      0.01271        -0.590972      0.629769      0.019244
      0.27404      0.02585     34.99650        -0.059062     -0.318952     -0.013686
 -----------------------------------------------------------------------------------
    total drift:                               -0.005376     -0.010046     -0.000426


--------------------------------------------------------------------------------------------------------



  FREE ENERGIE OF THE ION-ELECTRON SYSTEM (eV)
  ---------------------------------------------------
  free  energy   TOTEN  =       -29.07995812 eV

  energy  without entropy=      -29.07995812  energy(sigma->0) =      -29.07995812
 


--------------------------------------------------------------------------------------------------------


    POTLOK:  cpu time    8.7643: real time    8.7858


--------------------------------------------------------------------------------------------------------


     LOOP+:  cpu time  711.9578: real time  716.5320
    4ORBIT:  cpu time    0.0000: real time    0.0000

 total amount of memory used by VASP on root node  1819911. kBytes
========================================================================

   base      :      30000. kBytes
   nonl-proj :      33863. kBytes
   fftplans  :     693297. kBytes
   grid      :    1044223. kBytes
   one-center:          1. kBytes
   HF        :          4. kBytes
   nonlr-proj:         52. kBytes
   wavefun   :      18471. kBytes
 
  
  
 General timing and accounting informations for this job:
 ========================================================
  
                  Total CPU time used (sec):     1079.827
                            User time (sec):      962.597
                          System time (sec):      117.230
                         Elapsed time (sec):     1087.100
  
                   Maximum memory used (kb):     2501612.
                   Average memory used (kb):           0.
  
                          Minor page faults:       177205
                          Major page faults:            0
                 Voluntary context switches:        58490
 
 PROFILE, used timers:      34
 =============================
 
 index                 routine                    time                            calls level
----------------------------------------------------------------------------------------------
    1    total_time                         1087.101314                                1   1
    2      w1_copy                               0.062909                            110   2
    3      fftwav_mpi                           12.068205                            108   2
    4      fftext_mpi                            0.138093                              2   2
    5      overl                                 0.000079                            103   2
    6      orth1                                 0.037907                             52   2
    7      lincom                                0.079754                            103   2
    8      fock_acc                             39.659178                             17   2
    9        w1_copy                               0.032311                           51   3
   10        fftwav_mpi                            2.607013                           51   3
   11        fock_charge_mu                        1.796662                           17   3
   12          racc0mu_hf                            0.045674                         17   4
   13        rpromu_hf                             0.046428                           17   3
   14        overl1                                0.000020                           34   3
   15        fftext_mpi                            1.147094                           34   3
   16      hamilt_local                          3.669123                             34   2
   17        vhamil                                0.832779                           34   3
   18        kinhamil                              2.836260                           34   3
   19          fftext_mpi                            2.813223                         34   4
   20      eccp                                  2.007344                            102   2
   21      w1_dscal                              0.397565                             34   2
   22      pdssyex_zheevx                        0.094806                             34   2
   23      eddiag                               44.075771                             17   2
   24        fock_acc                             39.791687                           17   3
   25          w1_copy                               0.029341                         51   4
   26          fftwav_mpi                            3.011539                         51   4
   27          fock_charge_mu                        1.781188                         17   4
   28            racc0mu_hf                            0.031532                       17   5
   29          rpromu_hf                             0.048179                         17   4
   30          overl1                                0.000017                         34   4
   31          fftext_mpi                            1.127689                         34   4
   32        fftwav_mpi                            3.607076                           34   3
   33        eccp                                  0.541780                           34   3
   34      rpro1_hf                              0.133764                             32   2
 
 Flat profile
 ============
 
             routine name                   CPU           calls
 ---------------------------------------------------------------
 total_time                            984.676814           1
 fock_acc                               67.823385          34
 fftwav_mpi                             21.293833         244
 fftext_mpi                              5.226099         104
 fock_charge_mu                          3.500644          34
 eccp                                    2.549124         136
 vhamil                                  0.832779          34
 w1_dscal                                0.397565          34
 eddiag                                  0.135228          17
 rpro1_hf                                0.133764          32
 w1_copy                                 0.124561         212
 pdssyex_zheevx                          0.094806          34
 rpromu_hf                               0.094607          34
 lincom                                  0.079754         103
 racc0mu_hf                              0.077206          34
 orth1                                   0.037907          52
 kinhamil                                0.023037          34
 hamilt_local                            0.000084          34
 overl                                   0.000079         103
 overl1                                  0.000036          68
 ---------------------------------------------------------------
  summed up times    1087.10131382942     
 
Profiling took   0.004239  0.003555  0.003377  0.003353 seconds
Profiling took   0.000706 seconds
