
 Primary working directories    : /scratch/sirous/116692/molpro.chEARJsFms
 Secondary working directories  : /scratch/sirous/116692/molpro.chEARJsFms
 Wavefunction directory         : /scratch/sirous/116692/
 Main file repository           : /scratch/sirous/116692/molpro.chEARJsFms/

 id        : karlovklimes

 Nodes                      nprocs
 nc-06.cc.karlov.mff.cuni.cz    4

 Using customized tuning parameters: mindgm=1; mindgv=20; mindgc=4; mindgr=1; noblas=0; minvec=7
 default implementation of scratch files=sf  


 Variables initialized (934), CPU time= 0.01 sec
 ***,CH3C6H4CN+CF3CN+BF3
 memory,500,m
 gdirect
 gthresh,energy=1.d-8,twoint=1.d-19,oneint=1.d-19,zero=1.d-15,orbital=1.d-8,grid=1.d-8
 symmetry,nosym
 geomtyp=xyz
                                                                                 ! Geometry
 geometry={
 O1        0.000000000    0.427206000     0.000000000
 O2        0.000000000    2.227206000     0.000000000
 H1        0.029703868    2.781377461     -0.785012070
 H2        0.013651768    2.853273520     0.729441819
 H3        0.017607753    -0.159535840     -0.761351599
 H4        -0.013377840    -0.168366698     0.754550510
 }
 
 
 
 basis=avqz
 
 
 
                                                                                 ! Dimer Calculation
 {rks,pbe,accu=1.d-8;orbital,2101.2}
 eab_PBE=energy
 
 
                                                                                 !monomer A
 dummy,2,3,4;                                                                    ! NOW MONOMER B IS DUMMY
 {rks,pbe,accu=1.d-8;orbital,2201.2}
 ea_PBE=energy
                                                                                 !monomer B
 dummy,1,5,6;                                                                    !NOW MONOMER A IS DUMMY
 {rks,pbe,accu=1.d-8;orbital,2301.2}
 eb_PBE=energy
 
 E_AB_int=eab_PBE-ea_PBE-eb_PBE
 
 
 text,results in hartree
 show,E_AB_int
 
 Commands  initialized (763), CPU time= 0.01 sec, 617 directives.
 Default parameters read. Elapsed time= 0.20 sec

 Checking input...
 Passed
1


                                         ***  PROGRAM SYSTEM MOLPRO  ***
                                       Copyright, TTI GmbH Stuttgart, 2015
                                    Version 2019.2 linked Jun  8 2019 11:26:33


 **********************************************************************************************************************************
 LABEL *   CH3C6H4CN+CF3CN+BF3                                                           
  64 bit mpp version                                                                     DATE: 19-Nov-19          TIME: 17:30:24  
 **********************************************************************************************************************************

 SHA1:             8135a10abc80eafa5b3ae28ffc55be4890dc4c84
 **********************************************************************************************************************************

 THRESHOLDS:

 ZERO    =  1.00D-15  ONEINT  =  1.00D-19  TWOINT  =  1.00D-19  PREFAC  =  1.00D-14  XXXXXX  =  1.00D-09  EORDER  =  1.00D-04
 ENERGY  =  1.00D-08  ETEST   =  0.00D+00  EDENS   =  0.00D+00  THRDEDEF=  1.00D-06  GRADIENT=  1.00D-02  STEP    =  1.00D-03
 ORBITAL =  1.00D-08  CIVEC   =  1.00D-05  COEFF   =  1.00D-04  PRINTCI =  5.00D-02  PUNCHCI =  9.90D+01  OPTGRAD =  3.00D-04
 OPTENERG=  1.00D-06  OPTSTEP =  3.00D-04  THRGRAD =  1.00D-10  COMPRESS=  1.00D-11  VARMIN  =  1.00D-07  VARMAX  =  1.00D-03
 THRDOUB =  0.00D+00  THRDIV  =  1.00D-05  THRRED  =  1.00D-07  THRPSP  =  1.00D+00  THRDC   =  1.00D-10  THRCS   =  1.00D-10
 THRNRM  =  1.00D-08  THREQ   =  0.00D+00  THRDE   =  1.00D+00  THRREF  =  1.00D-05  SPARFAC =  1.00D+00  THRDLP  =  1.00D-07
 THRDIA  =  1.00D-10  THRDLS  =  1.00D-07  THRGPS  =  0.00D+00  THRKEX  =  0.00D+00  THRDIS  =  2.00D-01  THRVAR  =  1.00D-10
 THRLOC  =  1.00D-06  THRGAP  =  1.00D-06  THRLOCT = -1.00D+00  THRGAPT = -1.00D+00  THRORB  =  1.00D-06  THRMLTP =  0.00D+00
 THRCPQCI=  1.00D-10  KEXTA   =  0.00D+00  THRCOARS=  0.00D+00  SYMTOL  =  1.00D-06  GRADTOL =  1.00D-06  THROVL  =  1.00D-08
 THRORTH =  1.00D-08  GRID    =  1.00D-08  GRIDMAX =  1.00D-03  DTMAX   =  0.00D+00  THROCCDE=  1.00D-01  THROCCDE=  1.00D-01
 THRPRINT=  2.50D-01


 Variable memory set to  500000000 words,  buffer space 

 SETTING GEOMTYP        =    XYZ
 ZSYMEL=NOSYM

 SETTING BASIS          =    AVQZ


 Recomputing integrals since basis changed


 Using spherical harmonics

 Library entry O      S aug-cc-pVQZ          selected for orbital group  1
 Library entry O      P aug-cc-pVQZ          selected for orbital group  1
 Library entry O      D aug-cc-pVQZ          selected for orbital group  1
 Library entry O      F aug-cc-pVQZ          selected for orbital group  1
 Library entry O      G aug-cc-pVQZ          selected for orbital group  1
 Library entry H      S aug-cc-pVQZ          selected for orbital group  2
 Library entry H      P aug-cc-pVQZ          selected for orbital group  2
 Library entry H      D aug-cc-pVQZ          selected for orbital group  2
 Library entry H      F aug-cc-pVQZ          selected for orbital group  2


 PROGRAM * SEWARD (Integral evaluation for generally contracted gaussian basis sets)     Author: Roland Lindh, 1990

 Geometry written to block  1 of record 700


 Point group  C1  



 ATOMIC COORDINATES

 NR  ATOM    CHARGE       X              Y              Z

   1  O1      8.00    0.000000000    0.807302339    0.000000000
   2  O2      8.00    0.000000000    4.208809363    0.000000000
   3  H1      1.00    0.056132175    5.256041650   -1.483457817
   4  H2      1.00    0.025798103    5.391905511    1.378445262
   5  H3      1.00    0.033273831   -0.301479045   -1.438746007
   6  H4      1.00   -0.025280454   -0.318166948    1.425893811

 Bond lengths in Bohr (Angstrom)

 1-2  3.401507024  1-5  1.816726005  1-6  1.816726005  2-3  1.816726005  2-4  1.816726005
     ( 1.800000000)     ( 0.961370000)     ( 0.961370000)     ( 0.961370001)     ( 0.961370000)

 Bond angles

  1-2-3  125.20049048   1-2-4  130.63397370   2-1-5  127.61253191   2-1-6  128.27993340

  3-2-4  104.10699999   5-1-6  104.10700004

 NUCLEAR CHARGE:                   20
 NUMBER OF PRIMITIVE AOS:         464
 NUMBER OF SYMMETRY AOS:          378
 NUMBER OF CONTRACTIONS:          344   (  344A   )
 NUMBER OF CORE ORBITALS:           2   (    2A   )
 NUMBER OF VALENCE ORBITALS:       12   (   12A   )


 NUCLEAR REPULSION ENERGY   44.55095505


 Eigenvalues of metric

         1 0.107E-04 0.503E-04 0.511E-04 0.525E-04 0.729E-04 0.955E-04 0.276E-03 0.286E-03


 OPERATOR DM      FOR CENTER  0  COORDINATES:    0.000000    0.000000    0.000000


 **********************************************************************************************************************************
 DATASETS  * FILE   NREC   LENGTH (MB)   RECORD NAMES
              1      18       34.41       500      610      700      900      950      970     1000      129      960     1100   
                                          VAR    BASINP    GEOM    SYMINP    ZMAT    AOBASIS   BASIS     P2S    ABASIS      S 
                                         1400     1410     1200     1210     1080     1600     1650     1700   
                                           T        V       H0       H01     AOSYM     SMH    MOLCAS    OPER   

 PROGRAMS   *        TOTAL       INT
 CPU TIMES  *         0.52      0.34
 REAL TIME  *         1.49 SEC
 DISK USED  *        34.86 MB (local),      139.45 MB (total)
 GA USED    *         0.00 MB       (max)       0.00 MB       (current)
 **********************************************************************************************************************************

 Density functional group PBE=PBEX+PBEC
 Functional: PBEX(Automatically generated (new) PBEX)                          Gradient terms: 1
 Functional: PBEC(Automatically generated (new) PBEC)                          Gradient terms: 1
 Use libxcgrid:  F
 Use grid at  1800.2

 Functional: PBEX                      Factor:  1.0000
 Functional: PBEC                      Factor:  1.0000

 Generated new metagrid on record  1800.2 with target accuracy 1.0D-08 and 62784 points in CPU time    0.2
 Computed new grid on record 1800.1 in CPU time    0.2
  278712 words reserved for DFT integration

 PROGRAM * RKS-SCF (Restricted closed shell Kohn-Sham)     Authors: W. Meyer, H.-J. Werner, P.J. Knowles, 1993

 NUMBER OF ELECTRONS:      10+   10-    SPACE SYMMETRY=1    SPIN SYMMETRY: Singlet 
 CONVERGENCE THRESHOLDS:    1.00E-04 (Density)    1.00E-08 (Energy)
 INTEGRAL THRESHOLDS:       1.00E-11 (Initial)    1.00E-11 (Final)
 MAX. NUMBER OF ITERATIONS:       60
 INTERPOLATION TYPE:            DIIS
 INTERPOLATION STEPS:              2 (START)      1 (STEP)
 LEVEL SHIFTS:                  0.00 (CLOSED)  0.00 (OPEN) 



 Use fine grid record 1800.2 for energy threshold  1.0D-08
 Orbital guess generated from atomic densities. Full valence occupancy:   14

 Molecular orbital dump at record        2101.2

 Initial occupancy:  10

 Direct Fock-matrix evaluation.        Authors: Roland Lindh & Martin Schuetz (1993/96)

 Integral Threshold:                  0.1D-10
 Threshold for writing integrals:     0.1D-06
 Prescreening on density matrix:        ON 
 Calculation will be performed fully direct        

 ITERATION   DDIFF            GRAD            ENERGY        2-EL.EN.            DIPOLE MOMENTS         DIIS   CPU(IT)  CPU(TOT)
    1      0.000D+00      0.000D+00      -152.46709279    252.340331    0.04400   -0.00229   -0.05907    0     26.0     29.9     start
    2      0.000D+00      0.938D-02      -150.17316585    195.682458   -0.02337    0.04342    0.14309    1     25.0     54.8     diag
    3      0.218D-01      0.289D-01      -152.67698630    241.418370    0.02680   -0.00268   -0.03380    2     24.9     79.8     diag
    4      0.194D-01      0.109D-02      -152.68112470    239.306003    0.02842   -0.00151   -0.02860    3     24.3    104.1     diag
    5      0.138D-02      0.494D-03      -152.68174169    239.721060    0.02709   -0.00094   -0.02795    4     24.0    128.1     diag
    6      0.247D-03      0.102D-03      -152.68176799    239.843369    0.02749   -0.00203   -0.02930    5     23.4    151.5     diag
    7      0.485D-04      0.110D-04      -152.68176801    239.851691    0.02752   -0.00050   -0.02882    6     22.3    173.9     diag
    8      0.875D-05      0.107D-04      -152.68176723    239.860393    0.02749   -0.00331   -0.02918    0     22.3    196.1     orth

 Final occupancy:  10

 !RKS STATE  1.1 Energy              -152.681767226340
 Nuclear energy                        44.55095505
 One-electron energy                 -298.62250738
 Two-electron energy                  119.93019661
 Density functional                   -18.54041150     PBEX=-17.88007607 PBEC= -0.66033544
 Virial quotient                       -0.99949306
 !RKS STATE  1.1 Dipole moment          0.02749179    -0.00330620    -0.02917520
 Dipole moment /Debye                   0.06987258    -0.00840297    -0.07415110

 Orbital energies:

         1.1          2.1          3.1          4.1          5.1          6.1          7.1          8.1          9.1         10.1
    -18.722612   -18.720431    -0.932955    -0.893263    -0.478276    -0.450172    -0.420855    -0.273820    -0.218890    -0.197031

        11.1         12.1
     -0.034884    -0.004662


 HOMO     10.1    -0.197031 =      -5.3615eV
 LUMO     11.1    -0.034884 =      -0.9492eV
 LUMO-HOMO         0.162147 =       4.4122eV


 **********************************************************************************************************************************
 DATASETS  * FILE   NREC   LENGTH (MB)   RECORD NAMES
              1      19       34.41       500      610      700      900      950      970     1000      129      960     1100   
                                          VAR    BASINP    GEOM    SYMINP    ZMAT    AOBASIS   BASIS     P2S    ABASIS      S 
                                         1400     1410     1200     1210     1080     1600     1650     1700     1800   
                                           T        V       H0       H01     AOSYM     SMH    MOLCAS    OPER     GRID   

              2       5        5.27       700     1000      520     1800     2101   
                                         GEOM     BASIS   MCVARS    GRID      RKS  

 PROGRAMS   *        TOTAL   RKS-SCF       INT
 CPU TIMES  *       196.99    196.46      0.34
 REAL TIME  *       199.74 SEC
 DISK USED  *        46.89 MB (local),      187.54 MB (total)
 SF USED    *         1.42 MB
 GA USED    *         2.08 MB       (max)       2.07 MB       (current)
 **********************************************************************************************************************************
 SETTING EAB_PBE        =      -152.68176723  AU                              

 Dummy atoms: O2  H1  H2


 Recomputing one-electron integrals since nuclear charges changed


 PROGRAM * SEWARD (Integral evaluation for generally contracted gaussian basis sets)     Author: Roland Lindh, 1990

 Geometry written to block  1 of record 700


 Point group  C1  



 ATOMIC COORDINATES

 NR  ATOM    CHARGE       X              Y              Z

   1  O1      8.00    0.000000000    0.807302339    0.000000000
   2  O2      0.00    0.000000000    4.208809363    0.000000000
   3  H1      0.00    0.056132175    5.256041650   -1.483457817
   4  H2      0.00    0.025798103    5.391905511    1.378445262
   5  H3      1.00    0.033273831   -0.301479045   -1.438746007
   6  H4      1.00   -0.025280454   -0.318166948    1.425893811

 Bond lengths in Bohr (Angstrom)

 1-2  3.401507024  1-5  1.816726005  1-6  1.816726005  2-3  1.816726005  2-4  1.816726005
     ( 1.800000000)     ( 0.961370000)     ( 0.961370000)     ( 0.961370001)     ( 0.961370000)

 Bond angles

  1-2-3  125.20049048   1-2-4  130.63397370   2-1-5  127.61253191   2-1-6  128.27993340

  3-2-4  104.10699999   5-1-6  104.10700004

 NUCLEAR CHARGE:                   10
 NUMBER OF PRIMITIVE AOS:         464
 NUMBER OF SYMMETRY AOS:          378
 NUMBER OF CONTRACTIONS:          344   (  344A   )
 NUMBER OF CORE ORBITALS:           1   (    1A   )
 NUMBER OF VALENCE ORBITALS:        6   (    6A   )

 MOLECULE CHANGED: INITIALIZING OCCUPATION AND DUMP RECORDS


 NUCLEAR REPULSION ENERGY    9.15605699


 Eigenvalues of metric

         1 0.107E-04 0.503E-04 0.511E-04 0.525E-04 0.729E-04 0.955E-04 0.276E-03 0.286E-03


 OPERATOR DM      FOR CENTER  0  COORDINATES:    0.000000    0.000000    0.000000


 **********************************************************************************************************************************
 DATASETS  * FILE   NREC   LENGTH (MB)   RECORD NAMES
              1      19       34.41       500      610      700      900      950      970     1000      129      960     1100   
                                          VAR    BASINP    GEOM    SYMINP    ZMAT    AOBASIS   BASIS     P2S    ABASIS      S 
                                         1400     1410     1200     1210     1080     1600     1650     1700     1800   
                                           T        V       H0       H01     AOSYM     SMH    MOLCAS    OPER     GRID   

              2       5        5.27       700     1000      520     1800     2101   
                                         GEOM     BASIS   MCVARS    GRID      RKS  

 PROGRAMS   *        TOTAL       INT   RKS-SCF       INT
 CPU TIMES  *       197.12      0.13    196.46      0.34
 REAL TIME  *       199.91 SEC
 DISK USED  *        46.89 MB (local),      187.54 MB (total)
 SF USED    *         1.42 MB
 GA USED    *         2.08 MB       (max)       2.07 MB       (current)
 **********************************************************************************************************************************

 Density functional group PBE=PBEX+PBEC
 Functional: PBEX(Automatically generated (new) PBEX)                          Gradient terms: 1
 Functional: PBEC(Automatically generated (new) PBEC)                          Gradient terms: 1
 Use libxcgrid:  F
 Use grid at  1800.2

 Functional: PBEX                      Factor:  1.0000
 Functional: PBEC                      Factor:  1.0000

 Generated new metagrid on record  1800.2 with target accuracy 1.0D-08 and 62784 points in CPU time    0.1
 Computed new grid on record 1800.1 in CPU time    0.2
  278712 words reserved for DFT integration

 PROGRAM * RKS-SCF (Restricted closed shell Kohn-Sham)     Authors: W. Meyer, H.-J. Werner, P.J. Knowles, 1993

 NUMBER OF ELECTRONS:       5+    5-    SPACE SYMMETRY=1    SPIN SYMMETRY: Singlet 
 CONVERGENCE THRESHOLDS:    1.00E-04 (Density)    1.00E-08 (Energy)
 INTEGRAL THRESHOLDS:       1.00E-11 (Initial)    1.00E-11 (Final)
 MAX. NUMBER OF ITERATIONS:       60
 INTERPOLATION TYPE:            DIIS
 INTERPOLATION STEPS:              2 (START)      1 (STEP)
 LEVEL SHIFTS:                  0.00 (CLOSED)  0.00 (OPEN) 



 Use fine grid record 1800.2 for energy threshold  1.0D-08
 Orbital guess generated from atomic densities. Full valence occupancy:    7

 Molecular orbital dump at record        2201.2

 Initial occupancy:   5

 Direct Fock-matrix evaluation.        Authors: Roland Lindh & Martin Schuetz (1993/96)

 Integral Threshold:                  0.1D-10
 Threshold for writing integrals:     0.1D-06
 Prescreening on density matrix:        ON 
 Calculation will be performed fully direct        

 ITERATION   DDIFF            GRAD            ENERGY        2-EL.EN.            DIPOLE MOMENTS         DIIS   CPU(IT)  CPU(TOT)
    1      0.000D+00      0.000D+00       -76.30038497     98.211285    0.00394   -1.09984   -0.00633    0     26.0     30.4     start
    2      0.000D+00      0.841D-02       -75.91370344     81.817250   -0.00177    0.44605    0.00249    1     24.5     54.9     diag
    3      0.846D-02      0.190D-01       -76.38597983     93.603169    0.00264   -0.73772   -0.00424    2     24.5     79.5     diag
    4      0.605D-02      0.500D-03       -76.38639691     93.201441    0.00253   -0.70781   -0.00407    3     23.8    103.3     diag
    5      0.258D-03      0.109D-03       -76.38641013     93.251095    0.00252   -0.70633   -0.00406    4     22.9    126.2     diag
    6      0.283D-04      0.246D-04       -76.38641090     93.261885    0.00253   -0.70862   -0.00408    5     21.7    147.9     diag
    7      0.712D-05      0.984D-06       -76.38641090     93.261874    0.00253   -0.70851   -0.00408    6     18.8    166.7     diag
    8      0.278D-06      0.782D-07       -76.38641090     93.261974    0.00253   -0.70852   -0.00408    0     14.1    180.9     orth

 Final occupancy:   5

 !RKS STATE  1.1 Energy               -76.386410903799
 Nuclear energy                         9.15605699
 One-electron energy                 -122.93455301
 Two-electron energy                   46.63098708
 Density functional                    -9.23890196     PBEX=-8.91448727 PBEC=-0.32441469
 Virial quotient                       -1.00345330
 !RKS STATE  1.1 Dipole moment          0.00253286    -0.70852407    -0.00407737
 Dipole moment /Debye                   0.00643747    -1.80077061    -0.01036295

 Orbital energies:

         1.1          2.1          3.1          4.1          5.1          6.1          7.1
    -18.753961    -0.931030    -0.483389    -0.343734    -0.266305    -0.034604     0.015862


 HOMO      5.1    -0.266305 =      -7.2465eV
 LUMO      6.1    -0.034604 =      -0.9416eV
 LUMO-HOMO         0.231700 =       6.3049eV


 **********************************************************************************************************************************
 DATASETS  * FILE   NREC   LENGTH (MB)   RECORD NAMES
              1      19       34.41       500      610      700      900      950      970     1000      129      960     1100   
                                          VAR    BASINP    GEOM    SYMINP    ZMAT    AOBASIS   BASIS     P2S    ABASIS      S 
                                         1400     1410     1200     1210     1080     1600     1650     1700     1800   
                                           T        V       H0       H01     AOSYM     SMH    MOLCAS    OPER     GRID   

              2       6       12.51       700     1000      520     1800     2101     2201   
                                         GEOM     BASIS   MCVARS    GRID      RKS      RKS  

 PROGRAMS   *        TOTAL   RKS-SCF       INT   RKS-SCF       INT
 CPU TIMES  *       378.27    181.15      0.13    196.46      0.34
 REAL TIME  *       382.02 SEC
 DISK USED  *        54.13 MB (local),      216.51 MB (total)
 SF USED    *         1.42 MB
 GA USED    *         2.08 MB       (max)       2.07 MB       (current)
 **********************************************************************************************************************************
 SETTING EA_PBE         =       -76.38641090  AU                              

 Dummy atoms: O1  H3  H4


 Recomputing one-electron integrals since nuclear charges changed


 PROGRAM * SEWARD (Integral evaluation for generally contracted gaussian basis sets)     Author: Roland Lindh, 1990

 Geometry written to block  1 of record 700


 Point group  C1  



 ATOMIC COORDINATES

 NR  ATOM    CHARGE       X              Y              Z

   1  O1      0.00    0.000000000    0.807302339    0.000000000
   2  O2      8.00    0.000000000    4.208809363    0.000000000
   3  H1      1.00    0.056132175    5.256041650   -1.483457817
   4  H2      1.00    0.025798103    5.391905511    1.378445262
   5  H3      0.00    0.033273831   -0.301479045   -1.438746007
   6  H4      0.00   -0.025280454   -0.318166948    1.425893811

 Bond lengths in Bohr (Angstrom)

 1-2  3.401507024  1-5  1.816726005  1-6  1.816726005  2-3  1.816726005  2-4  1.816726005
     ( 1.800000000)     ( 0.961370000)     ( 0.961370000)     ( 0.961370001)     ( 0.961370000)

 Bond angles

  1-2-3  125.20049048   1-2-4  130.63397370   2-1-5  127.61253191   2-1-6  128.27993340

  3-2-4  104.10699999   5-1-6  104.10700004

 NUCLEAR CHARGE:                   10
 NUMBER OF PRIMITIVE AOS:         464
 NUMBER OF SYMMETRY AOS:          378
 NUMBER OF CONTRACTIONS:          344   (  344A   )
 NUMBER OF CORE ORBITALS:           1   (    1A   )
 NUMBER OF VALENCE ORBITALS:        6   (    6A   )

 MOLECULE CHANGED: INITIALIZING OCCUPATION AND DUMP RECORDS


 NUCLEAR REPULSION ENERGY    9.15605698


 Eigenvalues of metric

         1 0.107E-04 0.503E-04 0.511E-04 0.525E-04 0.729E-04 0.955E-04 0.276E-03 0.286E-03


 OPERATOR DM      FOR CENTER  0  COORDINATES:    0.000000    0.000000    0.000000


 **********************************************************************************************************************************
 DATASETS  * FILE   NREC   LENGTH (MB)   RECORD NAMES
              1      19       34.41       500      610      700      900      950      970     1000      129      960     1100   
                                          VAR    BASINP    GEOM    SYMINP    ZMAT    AOBASIS   BASIS     P2S    ABASIS      S 
                                         1400     1410     1200     1210     1080     1600     1650     1700     1800   
                                           T        V       H0       H01     AOSYM     SMH    MOLCAS    OPER     GRID   

              2       6       12.51       700     1000      520     1800     2101     2201   
                                         GEOM     BASIS   MCVARS    GRID      RKS      RKS  

 PROGRAMS   *        TOTAL       INT   RKS-SCF       INT   RKS-SCF       INT
 CPU TIMES  *       378.40      0.13    181.15      0.13    196.46      0.34
 REAL TIME  *       382.20 SEC
 DISK USED  *        54.13 MB (local),      216.51 MB (total)
 SF USED    *         1.42 MB
 GA USED    *         2.08 MB       (max)       2.07 MB       (current)
 **********************************************************************************************************************************

 Density functional group PBE=PBEX+PBEC
 Functional: PBEX(Automatically generated (new) PBEX)                          Gradient terms: 1
 Functional: PBEC(Automatically generated (new) PBEC)                          Gradient terms: 1
 Use libxcgrid:  F
 Use grid at  1800.2

 Functional: PBEX                      Factor:  1.0000
 Functional: PBEC                      Factor:  1.0000

  278712 words reserved for DFT integration

 PROGRAM * RKS-SCF (Restricted closed shell Kohn-Sham)     Authors: W. Meyer, H.-J. Werner, P.J. Knowles, 1993

 NUMBER OF ELECTRONS:       5+    5-    SPACE SYMMETRY=1    SPIN SYMMETRY: Singlet 
 CONVERGENCE THRESHOLDS:    1.00E-04 (Density)    1.00E-08 (Energy)
 INTEGRAL THRESHOLDS:       1.00E-11 (Initial)    1.00E-11 (Final)
 MAX. NUMBER OF ITERATIONS:       60
 INTERPOLATION TYPE:            DIIS
 INTERPOLATION STEPS:              2 (START)      1 (STEP)
 LEVEL SHIFTS:                  0.00 (CLOSED)  0.00 (OPEN) 



 Use fine grid record 1800.2 for energy threshold  1.0D-08
 Orbital guess generated from atomic densities. Full valence occupancy:    7

 Molecular orbital dump at record        2301.2

 Initial occupancy:   5

 Direct Fock-matrix evaluation.        Authors: Roland Lindh & Martin Schuetz (1993/96)

 Integral Threshold:                  0.1D-10
 Threshold for writing integrals:     0.1D-06
 Prescreening on density matrix:        ON 
 Calculation will be performed fully direct        

 ITERATION   DDIFF            GRAD            ENERGY        2-EL.EN.            DIPOLE MOMENTS         DIIS   CPU(IT)  CPU(TOT)
    1      0.000D+00      0.000D+00       -76.30038499     98.211282    0.04032    1.09791   -0.05169    0     25.6     29.8     start
    2      0.000D+00      0.841D-02       -75.91369385     81.817082   -0.01663   -0.44535    0.02075    1     24.6     54.3     diag
    3      0.850D-02      0.190D-01       -76.38597984     93.603176    0.02705    0.73643   -0.03468    2     24.4     78.7     diag
    4      0.613D-02      0.500D-03       -76.38639694     93.201435    0.02595    0.70657   -0.03328    3     23.8    102.5     diag
    5      0.259D-03      0.109D-03       -76.38641016     93.251093    0.02590    0.70509   -0.03321    4     22.7    125.3     diag
    6      0.283D-04      0.246D-04       -76.38641094     93.261884    0.02598    0.70738   -0.03331    5     22.0    147.2     diag
    7      0.712D-05      0.984D-06       -76.38641094     93.261872    0.02598    0.70727   -0.03331    6     18.8    166.0     diag
    8      0.277D-06      0.782D-07       -76.38641094     93.261973    0.02598    0.70728   -0.03331    0     14.3    180.3     orth

 Final occupancy:   5

 !RKS STATE  1.1 Energy               -76.386410938158
 Nuclear energy                         9.15605698
 One-electron energy                 -122.93455265
 Two-electron energy                   46.63098626
 Density functional                    -9.23890153     PBEX=-8.91448684 PBEC=-0.32441469
 Virial quotient                       -1.00345333
 !RKS STATE  1.1 Dipole moment          0.02597923     0.70728369    -0.03330898
 Dipole moment /Debye                   0.06602830     1.79761807    -0.08465743

 Orbital energies:

         1.1          2.1          3.1          4.1          5.1          6.1          7.1
    -18.753962    -0.931030    -0.483389    -0.343734    -0.266304    -0.034604     0.015859


 HOMO      5.1    -0.266304 =      -7.2465eV
 LUMO      6.1    -0.034604 =      -0.9416eV
 LUMO-HOMO         0.231701 =       6.3049eV


 **********************************************************************************************************************************
 DATASETS  * FILE   NREC   LENGTH (MB)   RECORD NAMES
              1      19       34.41       500      610      700      900      950      970     1000      129      960     1100   
                                          VAR    BASINP    GEOM    SYMINP    ZMAT    AOBASIS   BASIS     P2S    ABASIS      S 
                                         1400     1410     1200     1210     1080     1600     1650     1700     1800   
                                           T        V       H0       H01     AOSYM     SMH    MOLCAS    OPER     GRID   

              2       7       19.75       700     1000      520     1800     2101     2201     2301   
                                         GEOM     BASIS   MCVARS    GRID      RKS      RKS      RKS  

 PROGRAMS   *        TOTAL   RKS-SCF       INT   RKS-SCF       INT   RKS-SCF       INT
 CPU TIMES  *       558.82    180.41      0.13    181.15      0.13    196.46      0.34
 REAL TIME  *       563.60 SEC
 DISK USED  *        61.37 MB (local),      245.47 MB (total)
 SF USED    *         1.42 MB
 GA USED    *         2.08 MB       (max)       2.07 MB       (current)
 **********************************************************************************************************************************
 SETTING EB_PBE         =       -76.38641094  AU                              
 SETTING E_AB_INT       =         0.09105462  AU                              

 *** results in hartree
 E_AB_INT         =         0.09105462 AU
 Molecular orbitals read from record     2301.2  Type=RKS/CANONICAL (state 1.1)
 Occupation numbers read from record     2301.2  Type=RKS/RHF (state 1.1)
 Orbital energies read from record       2301.2  Type=RKS/CANONICAL (state 1.1)
 Redundancy group numbers read from rec  2301.2  Type=RKS/RHF (state 1.1)

 RPBE/aug-cc-pVQZ energy=    -76.386410938158

         RKS-SCF         RKS-SCF         RKS-SCF
    -76.38641094    -76.38641090   -152.68176723
 **********************************************************************************************************************************
 Molpro calculation terminated
