
 Primary working directories    : /scratch/sirous/116726/molpro.G2W1mmBOTH
 Secondary working directories  : /scratch/sirous/116726/molpro.G2W1mmBOTH
 Wavefunction directory         : /scratch/sirous/116726/
 Main file repository           : /scratch/sirous/116726/molpro.G2W1mmBOTH/

 id        : karlovklimes

 Nodes                      nprocs
 nc-02.cc.karlov.mff.cuni.cz    4

 Using customized tuning parameters: mindgm=1; mindgv=20; mindgc=4; mindgr=1; noblas=0; minvec=7
 default implementation of scratch files=sf  


 Variables initialized (934), CPU time= 0.00 sec
 ***,CH3C6H4CN+CF3CN+BF3
 memory,500,m
 gdirect
 gthresh,energy=1.d-8,twoint=1.d-19,oneint=1.d-19,zero=1.d-15,orbital=1.d-8,grid=1.d-8
 symmetry,nosym
 geomtyp=xyz
                                                                                 ! Geometry
 geometry={
 O1        0.000000000    -2.972794000     0.000000000
 O2        0.000000000    2.227206000     0.000000000
 H1        0.029703868    2.781377461     -0.785012070
 H2        0.013651768    2.853273520     0.729441819
 H3        0.017607753    -3.559535840     -0.761351599
 H4        -0.013377840    -3.568366698     0.754550510
 }
 
 
 
 basis=avqz
 
 
 
                                                                                 ! Dimer Calculation
 {rks,pbe,accu=1.d-8;orbital,2101.2}
 eab_PBE=energy
 
 
                                                                                 !monomer A
 dummy,2,3,4;                                                                    ! NOW MONOMER B IS DUMMY
 {rks,pbe,accu=1.d-8;orbital,2201.2}
 ea_PBE=energy
                                                                                 !monomer B
 dummy,1,5,6;                                                                    !NOW MONOMER A IS DUMMY
 {rks,pbe,accu=1.d-8;orbital,2301.2}
 eb_PBE=energy
 
 E_AB_int=eab_PBE-ea_PBE-eb_PBE
 
 
 text,results in hartree
 show,E_AB_int
 
 Commands  initialized (763), CPU time= 0.02 sec, 617 directives.
 Default parameters read. Elapsed time= 0.24 sec

 Checking input...
 Passed
1


                                         ***  PROGRAM SYSTEM MOLPRO  ***
                                       Copyright, TTI GmbH Stuttgart, 2015
                                    Version 2019.2 linked Jun  8 2019 11:26:33


 **********************************************************************************************************************************
 LABEL *   CH3C6H4CN+CF3CN+BF3                                                           
  64 bit mpp version                                                                     DATE: 19-Nov-19          TIME: 17:41:15  
 **********************************************************************************************************************************

 SHA1:             8135a10abc80eafa5b3ae28ffc55be4890dc4c84
 **********************************************************************************************************************************

 THRESHOLDS:

 ZERO    =  1.00D-15  ONEINT  =  1.00D-19  TWOINT  =  1.00D-19  PREFAC  =  1.00D-14  XXXXXX  =  1.00D-09  EORDER  =  1.00D-04
 ENERGY  =  1.00D-08  ETEST   =  0.00D+00  EDENS   =  0.00D+00  THRDEDEF=  1.00D-06  GRADIENT=  1.00D-02  STEP    =  1.00D-03
 ORBITAL =  1.00D-08  CIVEC   =  1.00D-05  COEFF   =  1.00D-04  PRINTCI =  5.00D-02  PUNCHCI =  9.90D+01  OPTGRAD =  3.00D-04
 OPTENERG=  1.00D-06  OPTSTEP =  3.00D-04  THRGRAD =  1.00D-10  COMPRESS=  1.00D-11  VARMIN  =  1.00D-07  VARMAX  =  1.00D-03
 THRDOUB =  0.00D+00  THRDIV  =  1.00D-05  THRRED  =  1.00D-07  THRPSP  =  1.00D+00  THRDC   =  1.00D-10  THRCS   =  1.00D-10
 THRNRM  =  1.00D-08  THREQ   =  0.00D+00  THRDE   =  1.00D+00  THRREF  =  1.00D-05  SPARFAC =  1.00D+00  THRDLP  =  1.00D-07
 THRDIA  =  1.00D-10  THRDLS  =  1.00D-07  THRGPS  =  0.00D+00  THRKEX  =  0.00D+00  THRDIS  =  2.00D-01  THRVAR  =  1.00D-10
 THRLOC  =  1.00D-06  THRGAP  =  1.00D-06  THRLOCT = -1.00D+00  THRGAPT = -1.00D+00  THRORB  =  1.00D-06  THRMLTP =  0.00D+00
 THRCPQCI=  1.00D-10  KEXTA   =  0.00D+00  THRCOARS=  0.00D+00  SYMTOL  =  1.00D-06  GRADTOL =  1.00D-06  THROVL  =  1.00D-08
 THRORTH =  1.00D-08  GRID    =  1.00D-08  GRIDMAX =  1.00D-03  DTMAX   =  0.00D+00  THROCCDE=  1.00D-01  THROCCDE=  1.00D-01
 THRPRINT=  2.50D-01


 Variable memory set to  500000000 words,  buffer space 

 SETTING GEOMTYP        =    XYZ
 ZSYMEL=NOSYM

 SETTING BASIS          =    AVQZ


 Recomputing integrals since basis changed


 Using spherical harmonics

 Library entry O      S aug-cc-pVQZ          selected for orbital group  1
 Library entry O      P aug-cc-pVQZ          selected for orbital group  1
 Library entry O      D aug-cc-pVQZ          selected for orbital group  1
 Library entry O      F aug-cc-pVQZ          selected for orbital group  1
 Library entry O      G aug-cc-pVQZ          selected for orbital group  1
 Library entry H      S aug-cc-pVQZ          selected for orbital group  2
 Library entry H      P aug-cc-pVQZ          selected for orbital group  2
 Library entry H      D aug-cc-pVQZ          selected for orbital group  2
 Library entry H      F aug-cc-pVQZ          selected for orbital group  2


 PROGRAM * SEWARD (Integral evaluation for generally contracted gaussian basis sets)     Author: Roland Lindh, 1990

 Geometry written to block  1 of record 700


 Point group  C1  



 ATOMIC COORDINATES

 NR  ATOM    CHARGE       X              Y              Z

   1  O1      8.00    0.000000000   -5.617766485    0.000000000
   2  O2      8.00    0.000000000    4.208809363    0.000000000
   3  H1      1.00    0.056132175    5.256041650   -1.483457817
   4  H2      1.00    0.025798103    5.391905511    1.378445262
   5  H3      1.00    0.033273831   -6.726547868   -1.438746007
   6  H4      1.00   -0.025280454   -6.743235771    1.425893811

 Bond lengths in Bohr (Angstrom)

 1-5  1.816726005  1-6  1.816726005  2-3  1.816726005  2-4  1.816726005
     ( 0.961370000)     ( 0.961370000)     ( 0.961370001)     ( 0.961370000)

 Bond angles

  3-2-4  104.10699999   5-1-6  104.10700004

 NUCLEAR CHARGE:                   20
 NUMBER OF PRIMITIVE AOS:         464
 NUMBER OF SYMMETRY AOS:          378
 NUMBER OF CONTRACTIONS:          344   (  344A   )
 NUMBER OF CORE ORBITALS:           2   (    2A   )
 NUMBER OF VALENCE ORBITALS:       12   (   12A   )


 NUCLEAR REPULSION ENERGY   28.05190080


 Eigenvalues of metric

         1 0.718E-04 0.756E-04 0.104E-03 0.105E-03 0.332E-03 0.358E-03 0.574E-03 0.579E-03


 OPERATOR DM      FOR CENTER  0  COORDINATES:    0.000000    0.000000    0.000000


 **********************************************************************************************************************************
 DATASETS  * FILE   NREC   LENGTH (MB)   RECORD NAMES
              1      18       34.41       500      610      700      900      950      970     1000      129      960     1100   
                                          VAR    BASINP    GEOM    SYMINP    ZMAT    AOBASIS   BASIS     P2S    ABASIS      S 
                                         1400     1410     1200     1210     1080     1600     1650     1700   
                                           T        V       H0       H01     AOSYM     SMH    MOLCAS    OPER   

 PROGRAMS   *        TOTAL       INT
 CPU TIMES  *         0.63      0.43
 REAL TIME  *         1.73 SEC
 DISK USED  *        34.86 MB (local),      139.45 MB (total)
 GA USED    *         0.00 MB       (max)       0.00 MB       (current)
 **********************************************************************************************************************************

 Density functional group PBE=PBEX+PBEC
 Functional: PBEX(Automatically generated (new) PBEX)                          Gradient terms: 1
 Functional: PBEC(Automatically generated (new) PBEC)                          Gradient terms: 1
 Use libxcgrid:  F
 Use grid at  1800.2

 Functional: PBEX                      Factor:  1.0000
 Functional: PBEC                      Factor:  1.0000

 Generated new metagrid on record  1800.2 with target accuracy 1.0D-08 and 62784 points in CPU time    0.2
 Computed new grid on record 1800.1 in CPU time    0.2
  278712 words reserved for DFT integration

 PROGRAM * RKS-SCF (Restricted closed shell Kohn-Sham)     Authors: W. Meyer, H.-J. Werner, P.J. Knowles, 1993

 NUMBER OF ELECTRONS:      10+   10-    SPACE SYMMETRY=1    SPIN SYMMETRY: Singlet 
 CONVERGENCE THRESHOLDS:    1.00E-04 (Density)    1.00E-08 (Energy)
 INTEGRAL THRESHOLDS:       1.00E-11 (Initial)    1.00E-11 (Final)
 MAX. NUMBER OF ITERATIONS:       60
 INTERPOLATION TYPE:            DIIS
 INTERPOLATION STEPS:              2 (START)      1 (STEP)
 LEVEL SHIFTS:                  0.00 (CLOSED)  0.00 (OPEN) 



 Use fine grid record 1800.2 for energy threshold  1.0D-08
 Orbital guess generated from atomic densities. Full valence occupancy:   14

 Molecular orbital dump at record        2101.2

 Initial occupancy:  10

 Direct Fock-matrix evaluation.        Authors: Roland Lindh & Martin Schuetz (1993/96)

 Integral Threshold:                  0.1D-10
 Threshold for writing integrals:     0.1D-06
 Prescreening on density matrix:        ON 
 Calculation will be performed fully direct        

 ITERATION   DDIFF            GRAD            ENERGY        2-EL.EN.            DIPOLE MOMENTS         DIIS   CPU(IT)  CPU(TOT)
    1      0.000D+00      0.000D+00      -152.59846805    216.324542    0.04427   -0.00194   -0.05803    0     14.8     18.2     start
    2      0.000D+00      0.849D-02      -151.80319718    182.695701   -0.01869    0.00065    0.02643    1     13.3     31.5     diag
    3      0.114D-01      0.194D-01      -152.77091233    206.957131    0.02960   -0.00131   -0.03849    2     13.2     44.8     diag
    4      0.792D-02      0.508D-03      -152.77177466    206.127594    0.02829   -0.00127   -0.03685    3     12.4     57.2     diag
    5      0.306D-03      0.113D-03      -152.77180314    206.235025    0.02826   -0.00124   -0.03674    4     11.4     68.6     diag
    6      0.417D-04      0.240D-04      -152.77180460    206.255517    0.02835   -0.00127   -0.03689    5     10.8     79.4     diag
    7      0.950D-05      0.121D-05      -152.77180461    206.255594    0.02835   -0.00123   -0.03688    6      9.6     89.0     diag
    8      0.507D-06      0.298D-06      -152.77180461    206.255858    0.02835   -0.00131   -0.03688    0      8.6     97.6     orth

 Final occupancy:  10

 !RKS STATE  1.1 Energy              -152.771804608017
 Nuclear energy                        28.05190080
 One-electron energy                 -265.47428488
 Two-electron energy                  103.12792900
 Density functional                   -18.47734952     PBEX=-17.82855755 PBEC= -0.64879198
 Virial quotient                       -1.00343598
 !RKS STATE  1.1 Dipole moment          0.02834921    -0.00130806    -0.03688108
 Dipole moment /Debye                   0.07205179    -0.00332455    -0.09373622

 Orbital energies:

         1.1          2.1          3.1          4.1          5.1          6.1          7.1          8.1          9.1         10.1
    -18.747679   -18.747627    -0.924823    -0.924810    -0.477219    -0.477207    -0.337195    -0.336723    -0.259986    -0.259896

        11.1         12.1
     -0.032250    -0.027448


 HOMO     10.1    -0.259896 =      -7.0721eV
 LUMO     11.1    -0.032250 =      -0.8776eV
 LUMO-HOMO         0.227646 =       6.1946eV


 **********************************************************************************************************************************
 DATASETS  * FILE   NREC   LENGTH (MB)   RECORD NAMES
              1      19       34.41       500      610      700      900      950      970     1000      129      960     1100   
                                          VAR    BASINP    GEOM    SYMINP    ZMAT    AOBASIS   BASIS     P2S    ABASIS      S 
                                         1400     1410     1200     1210     1080     1600     1650     1700     1800   
                                           T        V       H0       H01     AOSYM     SMH    MOLCAS    OPER     GRID   

              2       5        5.27       700     1000      520     1800     2101   
                                         GEOM     BASIS   MCVARS    GRID      RKS  

 PROGRAMS   *        TOTAL   RKS-SCF       INT
 CPU TIMES  *        98.55     97.92      0.43
 REAL TIME  *       101.67 SEC
 DISK USED  *        46.89 MB (local),      187.54 MB (total)
 SF USED    *         1.42 MB
 GA USED    *         2.08 MB       (max)       2.07 MB       (current)
 **********************************************************************************************************************************
 SETTING EAB_PBE        =      -152.77180461  AU                              

 Dummy atoms: O2  H1  H2


 Recomputing one-electron integrals since nuclear charges changed


 PROGRAM * SEWARD (Integral evaluation for generally contracted gaussian basis sets)     Author: Roland Lindh, 1990

 Geometry written to block  1 of record 700


 Point group  C1  



 ATOMIC COORDINATES

 NR  ATOM    CHARGE       X              Y              Z

   1  O1      8.00    0.000000000   -5.617766485    0.000000000
   2  O2      0.00    0.000000000    4.208809363    0.000000000
   3  H1      0.00    0.056132175    5.256041650   -1.483457817
   4  H2      0.00    0.025798103    5.391905511    1.378445262
   5  H3      1.00    0.033273831   -6.726547868   -1.438746007
   6  H4      1.00   -0.025280454   -6.743235771    1.425893811

 Bond lengths in Bohr (Angstrom)

 1-5  1.816726005  1-6  1.816726005  2-3  1.816726005  2-4  1.816726005
     ( 0.961370000)     ( 0.961370000)     ( 0.961370001)     ( 0.961370000)

 Bond angles

  3-2-4  104.10699999   5-1-6  104.10700004

 NUCLEAR CHARGE:                   10
 NUMBER OF PRIMITIVE AOS:         464
 NUMBER OF SYMMETRY AOS:          378
 NUMBER OF CONTRACTIONS:          344   (  344A   )
 NUMBER OF CORE ORBITALS:           1   (    1A   )
 NUMBER OF VALENCE ORBITALS:        6   (    6A   )

 MOLECULE CHANGED: INITIALIZING OCCUPATION AND DUMP RECORDS


 NUCLEAR REPULSION ENERGY    9.15605699


 Eigenvalues of metric

         1 0.718E-04 0.756E-04 0.104E-03 0.105E-03 0.332E-03 0.358E-03 0.574E-03 0.579E-03


 OPERATOR DM      FOR CENTER  0  COORDINATES:    0.000000    0.000000    0.000000


 **********************************************************************************************************************************
 DATASETS  * FILE   NREC   LENGTH (MB)   RECORD NAMES
              1      19       34.41       500      610      700      900      950      970     1000      129      960     1100   
                                          VAR    BASINP    GEOM    SYMINP    ZMAT    AOBASIS   BASIS     P2S    ABASIS      S 
                                         1400     1410     1200     1210     1080     1600     1650     1700     1800   
                                           T        V       H0       H01     AOSYM     SMH    MOLCAS    OPER     GRID   

              2       5        5.27       700     1000      520     1800     2101   
                                         GEOM     BASIS   MCVARS    GRID      RKS  

 PROGRAMS   *        TOTAL       INT   RKS-SCF       INT
 CPU TIMES  *        98.69      0.13     97.92      0.43
 REAL TIME  *       101.86 SEC
 DISK USED  *        46.89 MB (local),      187.54 MB (total)
 SF USED    *         1.42 MB
 GA USED    *         2.08 MB       (max)       2.07 MB       (current)
 **********************************************************************************************************************************

 Density functional group PBE=PBEX+PBEC
 Functional: PBEX(Automatically generated (new) PBEX)                          Gradient terms: 1
 Functional: PBEC(Automatically generated (new) PBEC)                          Gradient terms: 1
 Use libxcgrid:  F
 Use grid at  1800.2

 Functional: PBEX                      Factor:  1.0000
 Functional: PBEC                      Factor:  1.0000

 Generated new metagrid on record  1800.2 with target accuracy 1.0D-08 and 62784 points in CPU time    0.2
 Computed new grid on record 1800.1 in CPU time    0.2
  278712 words reserved for DFT integration

 PROGRAM * RKS-SCF (Restricted closed shell Kohn-Sham)     Authors: W. Meyer, H.-J. Werner, P.J. Knowles, 1993

 NUMBER OF ELECTRONS:       5+    5-    SPACE SYMMETRY=1    SPIN SYMMETRY: Singlet 
 CONVERGENCE THRESHOLDS:    1.00E-04 (Density)    1.00E-08 (Energy)
 INTEGRAL THRESHOLDS:       1.00E-11 (Initial)    1.00E-11 (Final)
 MAX. NUMBER OF ITERATIONS:       60
 INTERPOLATION TYPE:            DIIS
 INTERPOLATION STEPS:              2 (START)      1 (STEP)
 LEVEL SHIFTS:                  0.00 (CLOSED)  0.00 (OPEN) 



 Use fine grid record 1800.2 for energy threshold  1.0D-08
 Orbital guess generated from atomic densities. Full valence occupancy:    7

 Molecular orbital dump at record        2201.2

 Initial occupancy:   5

 Direct Fock-matrix evaluation.        Authors: Roland Lindh & Martin Schuetz (1993/96)

 Integral Threshold:                  0.1D-10
 Threshold for writing integrals:     0.1D-06
 Prescreening on density matrix:        ON 
 Calculation will be performed fully direct        

 ITERATION   DDIFF            GRAD            ENERGY        2-EL.EN.            DIPOLE MOMENTS         DIIS   CPU(IT)  CPU(TOT)
    1      0.000D+00      0.000D+00       -76.30035892     98.210461    0.00394   -1.10003   -0.00633    0     13.7     17.3     start
    2      0.000D+00      0.841D-02       -75.91441859     81.828889   -0.00156    0.43699    0.00252    1     12.5     29.8     diag
    3      0.801D-02      0.190D-01       -76.38593708     93.602610    0.00264   -0.73786   -0.00424    2     12.6     42.4     diag
    4      0.557D-02      0.499D-03       -76.38635269     93.201764    0.00253   -0.70807   -0.00407    3     11.6     54.0     diag
    5      0.216D-03      0.109D-03       -76.38636579     93.250981    0.00253   -0.70655   -0.00406    4     10.3     64.3     diag
    6      0.281D-04      0.246D-04       -76.38636657     93.261847    0.00254   -0.70883   -0.00408    5      9.4     73.7     diag
    7      0.711D-05      0.971D-06       -76.38636657     93.261858    0.00254   -0.70872   -0.00408    6      7.6     81.3     diag
    8      0.253D-06      0.789D-07       -76.38636657     93.261960    0.00254   -0.70874   -0.00408    0      6.1     87.4     orth

 Final occupancy:   5

 !RKS STATE  1.1 Energy               -76.386366571390
 Nuclear energy                         9.15605699
 One-electron energy                 -122.93448641
 Two-electron energy                   46.63098024
 Density functional                    -9.23891739     PBEX=-8.91450396 PBEC=-0.32441343
 Virial quotient                       -1.00345142
 !RKS STATE  1.1 Dipole moment          0.00253628    -0.70873993    -0.00407709
 Dipole moment /Debye                   0.00644615    -1.80131923    -0.01036224

 Orbital energies:

         1.1          2.1          3.1          4.1          5.1          6.1          7.1
    -18.753897    -0.931048    -0.483401    -0.343743    -0.266316    -0.034488     0.015858


 HOMO      5.1    -0.266316 =      -7.2468eV
 LUMO      6.1    -0.034488 =      -0.9385eV
 LUMO-HOMO         0.231829 =       6.3084eV


 **********************************************************************************************************************************
 DATASETS  * FILE   NREC   LENGTH (MB)   RECORD NAMES
              1      19       34.41       500      610      700      900      950      970     1000      129      960     1100   
                                          VAR    BASINP    GEOM    SYMINP    ZMAT    AOBASIS   BASIS     P2S    ABASIS      S 
                                         1400     1410     1200     1210     1080     1600     1650     1700     1800   
                                           T        V       H0       H01     AOSYM     SMH    MOLCAS    OPER     GRID   

              2       6       12.51       700     1000      520     1800     2101     2201   
                                         GEOM     BASIS   MCVARS    GRID      RKS      RKS  

 PROGRAMS   *        TOTAL   RKS-SCF       INT   RKS-SCF       INT
 CPU TIMES  *       186.42     87.72      0.13     97.92      0.43
 REAL TIME  *       190.34 SEC
 DISK USED  *        54.13 MB (local),      216.51 MB (total)
 SF USED    *         1.42 MB
 GA USED    *         2.08 MB       (max)       2.07 MB       (current)
 **********************************************************************************************************************************
 SETTING EA_PBE         =       -76.38636657  AU                              

 Dummy atoms: O1  H3  H4


 Recomputing one-electron integrals since nuclear charges changed


 PROGRAM * SEWARD (Integral evaluation for generally contracted gaussian basis sets)     Author: Roland Lindh, 1990

 Geometry written to block  1 of record 700


 Point group  C1  



 ATOMIC COORDINATES

 NR  ATOM    CHARGE       X              Y              Z

   1  O1      0.00    0.000000000   -5.617766485    0.000000000
   2  O2      8.00    0.000000000    4.208809363    0.000000000
   3  H1      1.00    0.056132175    5.256041650   -1.483457817
   4  H2      1.00    0.025798103    5.391905511    1.378445262
   5  H3      0.00    0.033273831   -6.726547868   -1.438746007
   6  H4      0.00   -0.025280454   -6.743235771    1.425893811

 Bond lengths in Bohr (Angstrom)

 1-5  1.816726005  1-6  1.816726005  2-3  1.816726005  2-4  1.816726005
     ( 0.961370000)     ( 0.961370000)     ( 0.961370001)     ( 0.961370000)

 Bond angles

  3-2-4  104.10699999   5-1-6  104.10700004

 NUCLEAR CHARGE:                   10
 NUMBER OF PRIMITIVE AOS:         464
 NUMBER OF SYMMETRY AOS:          378
 NUMBER OF CONTRACTIONS:          344   (  344A   )
 NUMBER OF CORE ORBITALS:           1   (    1A   )
 NUMBER OF VALENCE ORBITALS:        6   (    6A   )

 MOLECULE CHANGED: INITIALIZING OCCUPATION AND DUMP RECORDS


 NUCLEAR REPULSION ENERGY    9.15605698


 Eigenvalues of metric

         1 0.718E-04 0.756E-04 0.104E-03 0.105E-03 0.332E-03 0.358E-03 0.574E-03 0.579E-03


 OPERATOR DM      FOR CENTER  0  COORDINATES:    0.000000    0.000000    0.000000


 **********************************************************************************************************************************
 DATASETS  * FILE   NREC   LENGTH (MB)   RECORD NAMES
              1      19       34.41       500      610      700      900      950      970     1000      129      960     1100   
                                          VAR    BASINP    GEOM    SYMINP    ZMAT    AOBASIS   BASIS     P2S    ABASIS      S 
                                         1400     1410     1200     1210     1080     1600     1650     1700     1800   
                                           T        V       H0       H01     AOSYM     SMH    MOLCAS    OPER     GRID   

              2       6       12.51       700     1000      520     1800     2101     2201   
                                         GEOM     BASIS   MCVARS    GRID      RKS      RKS  

 PROGRAMS   *        TOTAL       INT   RKS-SCF       INT   RKS-SCF       INT
 CPU TIMES  *       186.55      0.13     87.72      0.13     97.92      0.43
 REAL TIME  *       190.54 SEC
 DISK USED  *        54.13 MB (local),      216.51 MB (total)
 SF USED    *         1.42 MB
 GA USED    *         2.08 MB       (max)       2.07 MB       (current)
 **********************************************************************************************************************************

 Density functional group PBE=PBEX+PBEC
 Functional: PBEX(Automatically generated (new) PBEX)                          Gradient terms: 1
 Functional: PBEC(Automatically generated (new) PBEC)                          Gradient terms: 1
 Use libxcgrid:  F
 Use grid at  1800.2

 Functional: PBEX                      Factor:  1.0000
 Functional: PBEC                      Factor:  1.0000

  278712 words reserved for DFT integration

 PROGRAM * RKS-SCF (Restricted closed shell Kohn-Sham)     Authors: W. Meyer, H.-J. Werner, P.J. Knowles, 1993

 NUMBER OF ELECTRONS:       5+    5-    SPACE SYMMETRY=1    SPIN SYMMETRY: Singlet 
 CONVERGENCE THRESHOLDS:    1.00E-04 (Density)    1.00E-08 (Energy)
 INTEGRAL THRESHOLDS:       1.00E-11 (Initial)    1.00E-11 (Final)
 MAX. NUMBER OF ITERATIONS:       60
 INTERPOLATION TYPE:            DIIS
 INTERPOLATION STEPS:              2 (START)      1 (STEP)
 LEVEL SHIFTS:                  0.00 (CLOSED)  0.00 (OPEN) 



 Use fine grid record 1800.2 for energy threshold  1.0D-08
 Orbital guess generated from atomic densities. Full valence occupancy:    7

 Molecular orbital dump at record        2301.2

 Initial occupancy:   5

 Direct Fock-matrix evaluation.        Authors: Roland Lindh & Martin Schuetz (1993/96)

 Integral Threshold:                  0.1D-10
 Threshold for writing integrals:     0.1D-06
 Prescreening on density matrix:        ON 
 Calculation will be performed fully direct        

 ITERATION   DDIFF            GRAD            ENERGY        2-EL.EN.            DIPOLE MOMENTS         DIIS   CPU(IT)  CPU(TOT)
    1      0.000D+00      0.000D+00       -76.30035866     98.210464    0.04034    1.09810   -0.05170    0     13.9     17.6     start
    2      0.000D+00      0.841D-02       -75.91441679     81.828865   -0.01600   -0.43622    0.02056    1     12.5     30.2     diag
    3      0.801D-02      0.190D-01       -76.38593687     93.602613    0.02706    0.73656   -0.03469    2     12.5     42.7     diag
    4      0.557D-02      0.499D-03       -76.38635248     93.201765    0.02597    0.70682   -0.03328    3     11.6     54.3     diag
    5      0.216D-03      0.109D-03       -76.38636559     93.250982    0.02592    0.70531   -0.03321    4     10.4     64.7     diag
    6      0.281D-04      0.246D-04       -76.38636636     93.261848    0.02600    0.70758   -0.03332    5      9.5     74.1     diag
    7      0.711D-05      0.971D-06       -76.38636637     93.261859    0.02600    0.70748   -0.03332    6      7.5     81.7     diag
    8      0.253D-06      0.789D-07       -76.38636637     93.261962    0.02600    0.70749   -0.03332    0      6.1     87.8     orth

 Final occupancy:   5

 !RKS STATE  1.1 Energy               -76.386366365729
 Nuclear energy                         9.15605698
 One-electron energy                 -122.93448694
 Two-electron energy                   46.63098091
 Density functional                    -9.23891732     PBEX=-8.91450387 PBEC=-0.32441345
 Virial quotient                       -1.00345141
 !RKS STATE  1.1 Dipole moment          0.02599615     0.70749353    -0.03331645
 Dipole moment /Debye                   0.06607128     1.79815141    -0.08467642

 Orbital energies:

         1.1          2.1          3.1          4.1          5.1          6.1          7.1
    -18.753896    -0.931048    -0.483401    -0.343743    -0.266316    -0.034488     0.015855


 HOMO      5.1    -0.266316 =      -7.2468eV
 LUMO      6.1    -0.034488 =      -0.9385eV
 LUMO-HOMO         0.231828 =       6.3084eV


 **********************************************************************************************************************************
 DATASETS  * FILE   NREC   LENGTH (MB)   RECORD NAMES
              1      19       34.41       500      610      700      900      950      970     1000      129      960     1100   
                                          VAR    BASINP    GEOM    SYMINP    ZMAT    AOBASIS   BASIS     P2S    ABASIS      S 
                                         1400     1410     1200     1210     1080     1600     1650     1700     1800   
                                           T        V       H0       H01     AOSYM     SMH    MOLCAS    OPER     GRID   

              2       7       19.75       700     1000      520     1800     2101     2201     2301   
                                         GEOM     BASIS   MCVARS    GRID      RKS      RKS      RKS  

 PROGRAMS   *        TOTAL   RKS-SCF       INT   RKS-SCF       INT   RKS-SCF       INT
 CPU TIMES  *       274.45     87.90      0.13     87.72      0.13     97.92      0.43
 REAL TIME  *       279.21 SEC
 DISK USED  *        61.37 MB (local),      245.47 MB (total)
 SF USED    *         1.42 MB
 GA USED    *         2.08 MB       (max)       2.07 MB       (current)
 **********************************************************************************************************************************
 SETTING EB_PBE         =       -76.38636637  AU                              
 SETTING E_AB_INT       =         0.00092833  AU                              

 *** results in hartree
 E_AB_INT         =         0.00092833 AU
 Molecular orbitals read from record     2301.2  Type=RKS/CANONICAL (state 1.1)
 Occupation numbers read from record     2301.2  Type=RKS/RHF (state 1.1)
 Orbital energies read from record       2301.2  Type=RKS/CANONICAL (state 1.1)
 Redundancy group numbers read from rec  2301.2  Type=RKS/RHF (state 1.1)

 RPBE/aug-cc-pVQZ energy=    -76.386366365729

         RKS-SCF         RKS-SCF         RKS-SCF
    -76.38636637    -76.38636657   -152.77180461
 **********************************************************************************************************************************
 Molpro calculation terminated
