
 Primary working directories    : /scratch/sirous/116714/molpro.23d01L3YNf
 Secondary working directories  : /scratch/sirous/116714/molpro.23d01L3YNf
 Wavefunction directory         : /scratch/sirous/116714/
 Main file repository           : /scratch/sirous/116714/molpro.23d01L3YNf/

 id        : karlovklimes

 Nodes                      nprocs
 nc-07.cc.karlov.mff.cuni.cz    4

 Using customized tuning parameters: mindgm=1; mindgv=20; mindgc=4; mindgr=1; noblas=0; minvec=7
 default implementation of scratch files=sf  


 Variables initialized (934), CPU time= 0.01 sec
 ***,CH3C6H4CN+CF3CN+BF3
 memory,500,m
 gdirect
 gthresh,energy=1.d-8,twoint=1.d-19,oneint=1.d-19,zero=1.d-15,orbital=1.d-8,grid=1.d-8
 symmetry,nosym
 geomtyp=xyz
                                                                                 ! Geometry
 geometry={
 O1        0.000000000    -1.772794000     0.000000000
 O2        0.000000000    2.227206000     0.000000000
 H1        0.029703868    2.781377461     -0.785012070
 H2        0.013651768    2.853273520     0.729441819
 H3        0.017607753    -2.359535840     -0.761351599
 H4        -0.013377840    -2.368366698     0.754550510
 }
 
 
 
 basis=avqz
 
 
 
                                                                                 ! Dimer Calculation
 {rks,pbe,accu=1.d-8;orbital,2101.2}
 eab_PBE=energy
 
 
                                                                                 !monomer A
 dummy,2,3,4;                                                                    ! NOW MONOMER B IS DUMMY
 {rks,pbe,accu=1.d-8;orbital,2201.2}
 ea_PBE=energy
                                                                                 !monomer B
 dummy,1,5,6;                                                                    !NOW MONOMER A IS DUMMY
 {rks,pbe,accu=1.d-8;orbital,2301.2}
 eb_PBE=energy
 
 E_AB_int=eab_PBE-ea_PBE-eb_PBE
 
 
 text,results in hartree
 show,E_AB_int
 
 Commands  initialized (763), CPU time= 0.02 sec, 617 directives.
 Default parameters read. Elapsed time= 0.23 sec

 Checking input...
 Passed
1


                                         ***  PROGRAM SYSTEM MOLPRO  ***
                                       Copyright, TTI GmbH Stuttgart, 2015
                                    Version 2019.2 linked Jun  8 2019 11:26:33


 **********************************************************************************************************************************
 LABEL *   CH3C6H4CN+CF3CN+BF3                                                           
  64 bit mpp version                                                                     DATE: 19-Nov-19          TIME: 17:40:37  
 **********************************************************************************************************************************

 SHA1:             8135a10abc80eafa5b3ae28ffc55be4890dc4c84
 **********************************************************************************************************************************

 THRESHOLDS:

 ZERO    =  1.00D-15  ONEINT  =  1.00D-19  TWOINT  =  1.00D-19  PREFAC  =  1.00D-14  XXXXXX  =  1.00D-09  EORDER  =  1.00D-04
 ENERGY  =  1.00D-08  ETEST   =  0.00D+00  EDENS   =  0.00D+00  THRDEDEF=  1.00D-06  GRADIENT=  1.00D-02  STEP    =  1.00D-03
 ORBITAL =  1.00D-08  CIVEC   =  1.00D-05  COEFF   =  1.00D-04  PRINTCI =  5.00D-02  PUNCHCI =  9.90D+01  OPTGRAD =  3.00D-04
 OPTENERG=  1.00D-06  OPTSTEP =  3.00D-04  THRGRAD =  1.00D-10  COMPRESS=  1.00D-11  VARMIN  =  1.00D-07  VARMAX  =  1.00D-03
 THRDOUB =  0.00D+00  THRDIV  =  1.00D-05  THRRED  =  1.00D-07  THRPSP  =  1.00D+00  THRDC   =  1.00D-10  THRCS   =  1.00D-10
 THRNRM  =  1.00D-08  THREQ   =  0.00D+00  THRDE   =  1.00D+00  THRREF  =  1.00D-05  SPARFAC =  1.00D+00  THRDLP  =  1.00D-07
 THRDIA  =  1.00D-10  THRDLS  =  1.00D-07  THRGPS  =  0.00D+00  THRKEX  =  0.00D+00  THRDIS  =  2.00D-01  THRVAR  =  1.00D-10
 THRLOC  =  1.00D-06  THRGAP  =  1.00D-06  THRLOCT = -1.00D+00  THRGAPT = -1.00D+00  THRORB  =  1.00D-06  THRMLTP =  0.00D+00
 THRCPQCI=  1.00D-10  KEXTA   =  0.00D+00  THRCOARS=  0.00D+00  SYMTOL  =  1.00D-06  GRADTOL =  1.00D-06  THROVL  =  1.00D-08
 THRORTH =  1.00D-08  GRID    =  1.00D-08  GRIDMAX =  1.00D-03  DTMAX   =  0.00D+00  THROCCDE=  1.00D-01  THROCCDE=  1.00D-01
 THRPRINT=  2.50D-01


 Variable memory set to  500000000 words,  buffer space 

 SETTING GEOMTYP        =    XYZ
 ZSYMEL=NOSYM

 SETTING BASIS          =    AVQZ


 Recomputing integrals since basis changed


 Using spherical harmonics

 Library entry O      S aug-cc-pVQZ          selected for orbital group  1
 Library entry O      P aug-cc-pVQZ          selected for orbital group  1
 Library entry O      D aug-cc-pVQZ          selected for orbital group  1
 Library entry O      F aug-cc-pVQZ          selected for orbital group  1
 Library entry O      G aug-cc-pVQZ          selected for orbital group  1
 Library entry H      S aug-cc-pVQZ          selected for orbital group  2
 Library entry H      P aug-cc-pVQZ          selected for orbital group  2
 Library entry H      D aug-cc-pVQZ          selected for orbital group  2
 Library entry H      F aug-cc-pVQZ          selected for orbital group  2


 PROGRAM * SEWARD (Integral evaluation for generally contracted gaussian basis sets)     Author: Roland Lindh, 1990

 Geometry written to block  1 of record 700


 Point group  C1  



 ATOMIC COORDINATES

 NR  ATOM    CHARGE       X              Y              Z

   1  O1      8.00    0.000000000   -3.350095135    0.000000000
   2  O2      8.00    0.000000000    4.208809363    0.000000000
   3  H1      1.00    0.056132175    5.256041650   -1.483457817
   4  H2      1.00    0.025798103    5.391905511    1.378445262
   5  H3      1.00    0.033273831   -4.458876519   -1.438746007
   6  H4      1.00   -0.025280454   -4.475564422    1.425893811

 Bond lengths in Bohr (Angstrom)

 1-5  1.816726005  1-6  1.816726005  2-3  1.816726005  2-4  1.816726005
     ( 0.961370000)     ( 0.961370000)     ( 0.961370001)     ( 0.961370000)

 Bond angles

  3-2-4  104.10699999   5-1-6  104.10700004

 NUCLEAR CHARGE:                   20
 NUMBER OF PRIMITIVE AOS:         464
 NUMBER OF SYMMETRY AOS:          378
 NUMBER OF CONTRACTIONS:          344   (  344A   )
 NUMBER OF CORE ORBITALS:           2   (    2A   )
 NUMBER OF VALENCE ORBITALS:       12   (   12A   )


 NUCLEAR REPULSION ENERGY   30.81878809


 Eigenvalues of metric

         1 0.612E-04 0.759E-04 0.814E-04 0.111E-03 0.304E-03 0.347E-03 0.520E-03 0.576E-03


 OPERATOR DM      FOR CENTER  0  COORDINATES:    0.000000    0.000000    0.000000


 **********************************************************************************************************************************
 DATASETS  * FILE   NREC   LENGTH (MB)   RECORD NAMES
              1      18       34.41       500      610      700      900      950      970     1000      129      960     1100   
                                          VAR    BASINP    GEOM    SYMINP    ZMAT    AOBASIS   BASIS     P2S    ABASIS      S 
                                         1400     1410     1200     1210     1080     1600     1650     1700   
                                           T        V       H0       H01     AOSYM     SMH    MOLCAS    OPER   

 PROGRAMS   *        TOTAL       INT
 CPU TIMES  *         0.55      0.37
 REAL TIME  *         1.68 SEC
 DISK USED  *        34.86 MB (local),      139.45 MB (total)
 GA USED    *         0.00 MB       (max)       0.00 MB       (current)
 **********************************************************************************************************************************

 Density functional group PBE=PBEX+PBEC
 Functional: PBEX(Automatically generated (new) PBEX)                          Gradient terms: 1
 Functional: PBEC(Automatically generated (new) PBEC)                          Gradient terms: 1
 Use libxcgrid:  F
 Use grid at  1800.2

 Functional: PBEX                      Factor:  1.0000
 Functional: PBEC                      Factor:  1.0000

 Generated new metagrid on record  1800.2 with target accuracy 1.0D-08 and 62784 points in CPU time    0.2
 Computed new grid on record 1800.1 in CPU time    0.2
  278712 words reserved for DFT integration

 PROGRAM * RKS-SCF (Restricted closed shell Kohn-Sham)     Authors: W. Meyer, H.-J. Werner, P.J. Knowles, 1993

 NUMBER OF ELECTRONS:      10+   10-    SPACE SYMMETRY=1    SPIN SYMMETRY: Singlet 
 CONVERGENCE THRESHOLDS:    1.00E-04 (Density)    1.00E-08 (Energy)
 INTEGRAL THRESHOLDS:       1.00E-11 (Initial)    1.00E-11 (Final)
 MAX. NUMBER OF ITERATIONS:       60
 INTERPOLATION TYPE:            DIIS
 INTERPOLATION STEPS:              2 (START)      1 (STEP)
 LEVEL SHIFTS:                  0.00 (CLOSED)  0.00 (OPEN) 



 Use fine grid record 1800.2 for energy threshold  1.0D-08
 Orbital guess generated from atomic densities. Full valence occupancy:   14

 Molecular orbital dump at record        2101.2

 Initial occupancy:  10

 Direct Fock-matrix evaluation.        Authors: Roland Lindh & Martin Schuetz (1993/96)

 Integral Threshold:                  0.1D-10
 Threshold for writing integrals:     0.1D-06
 Prescreening on density matrix:        ON 
 Calculation will be performed fully direct        

 ITERATION   DDIFF            GRAD            ENERGY        2-EL.EN.            DIPOLE MOMENTS         DIIS   CPU(IT)  CPU(TOT)
    1      0.000D+00      0.000D+00      -152.59617850    222.130086    0.04427   -0.00194   -0.05803    0     18.1     21.7     start
    2      0.000D+00      0.851D-02      -151.77221356    187.743353   -0.01987    0.00052    0.03024    1     16.6     38.3     diag
    3      0.115D-01      0.196D-01      -152.77000521    212.654771    0.02952   -0.00132   -0.03796    2     16.6     54.9     diag
    4      0.802D-02      0.514D-03      -152.77090526    211.797121    0.02811   -0.00131   -0.03629    3     15.6     70.6     diag
    5      0.313D-03      0.118D-03      -152.77093708    211.916818    0.02812   -0.00126   -0.03612    4     14.5     85.1     diag
    6      0.446D-04      0.223D-04      -152.77093833    211.934690    0.02821   -0.00132   -0.03632    5     13.3     98.4     diag
    7      0.851D-05      0.158D-05      -152.77093834    211.934860    0.02820   -0.00123   -0.03629    6     11.7    110.1     diag
    8      0.775D-06      0.673D-06      -152.77093833    211.935190    0.02820   -0.00141   -0.03630    0     10.8    120.9     orth

 Final occupancy:  10

 !RKS STATE  1.1 Energy              -152.770938332236
 Nuclear energy                        30.81878809
 One-electron energy                 -271.08044076
 Two-electron energy                  105.96759502
 Density functional                   -18.47688068     PBEX=-17.82809877 PBEC= -0.64878191
 Virial quotient                       -1.00342230
 !RKS STATE  1.1 Dipole moment          0.02820017    -0.00140512    -0.03629989
 Dipole moment /Debye                   0.07167299    -0.00357122    -0.09225906

 Orbital energies:

         1.1          2.1          3.1          4.1          5.1          6.1          7.1          8.1          9.1         10.1
    -18.744164   -18.744034    -0.921312    -0.921218    -0.473814    -0.473666    -0.334645    -0.330832    -0.256639    -0.255909

        11.1         12.1
     -0.032245    -0.023282


 HOMO     10.1    -0.255909 =      -6.9636eV
 LUMO     11.1    -0.032245 =      -0.8774eV
 LUMO-HOMO         0.223663 =       6.0862eV


 **********************************************************************************************************************************
 DATASETS  * FILE   NREC   LENGTH (MB)   RECORD NAMES
              1      19       34.41       500      610      700      900      950      970     1000      129      960     1100   
                                          VAR    BASINP    GEOM    SYMINP    ZMAT    AOBASIS   BASIS     P2S    ABASIS      S 
                                         1400     1410     1200     1210     1080     1600     1650     1700     1800   
                                           T        V       H0       H01     AOSYM     SMH    MOLCAS    OPER     GRID   

              2       5        5.27       700     1000      520     1800     2101   
                                         GEOM     BASIS   MCVARS    GRID      RKS  

 PROGRAMS   *        TOTAL   RKS-SCF       INT
 CPU TIMES  *       121.83    121.28      0.37
 REAL TIME  *       125.36 SEC
 DISK USED  *        46.89 MB (local),      187.54 MB (total)
 SF USED    *         1.42 MB
 GA USED    *         2.08 MB       (max)       2.07 MB       (current)
 **********************************************************************************************************************************
 SETTING EAB_PBE        =      -152.77093833  AU                              

 Dummy atoms: O2  H1  H2


 Recomputing one-electron integrals since nuclear charges changed


 PROGRAM * SEWARD (Integral evaluation for generally contracted gaussian basis sets)     Author: Roland Lindh, 1990

 Geometry written to block  1 of record 700


 Point group  C1  



 ATOMIC COORDINATES

 NR  ATOM    CHARGE       X              Y              Z

   1  O1      8.00    0.000000000   -3.350095135    0.000000000
   2  O2      0.00    0.000000000    4.208809363    0.000000000
   3  H1      0.00    0.056132175    5.256041650   -1.483457817
   4  H2      0.00    0.025798103    5.391905511    1.378445262
   5  H3      1.00    0.033273831   -4.458876519   -1.438746007
   6  H4      1.00   -0.025280454   -4.475564422    1.425893811

 Bond lengths in Bohr (Angstrom)

 1-5  1.816726005  1-6  1.816726005  2-3  1.816726005  2-4  1.816726005
     ( 0.961370000)     ( 0.961370000)     ( 0.961370001)     ( 0.961370000)

 Bond angles

  3-2-4  104.10699999   5-1-6  104.10700004

 NUCLEAR CHARGE:                   10
 NUMBER OF PRIMITIVE AOS:         464
 NUMBER OF SYMMETRY AOS:          378
 NUMBER OF CONTRACTIONS:          344   (  344A   )
 NUMBER OF CORE ORBITALS:           1   (    1A   )
 NUMBER OF VALENCE ORBITALS:        6   (    6A   )

 MOLECULE CHANGED: INITIALIZING OCCUPATION AND DUMP RECORDS


 NUCLEAR REPULSION ENERGY    9.15605699


 Eigenvalues of metric

         1 0.612E-04 0.759E-04 0.814E-04 0.111E-03 0.304E-03 0.347E-03 0.520E-03 0.576E-03


 OPERATOR DM      FOR CENTER  0  COORDINATES:    0.000000    0.000000    0.000000


 **********************************************************************************************************************************
 DATASETS  * FILE   NREC   LENGTH (MB)   RECORD NAMES
              1      19       34.41       500      610      700      900      950      970     1000      129      960     1100   
                                          VAR    BASINP    GEOM    SYMINP    ZMAT    AOBASIS   BASIS     P2S    ABASIS      S 
                                         1400     1410     1200     1210     1080     1600     1650     1700     1800   
                                           T        V       H0       H01     AOSYM     SMH    MOLCAS    OPER     GRID   

              2       5        5.27       700     1000      520     1800     2101   
                                         GEOM     BASIS   MCVARS    GRID      RKS  

 PROGRAMS   *        TOTAL       INT   RKS-SCF       INT
 CPU TIMES  *       121.99      0.15    121.28      0.37
 REAL TIME  *       125.56 SEC
 DISK USED  *        46.89 MB (local),      187.54 MB (total)
 SF USED    *         1.42 MB
 GA USED    *         2.08 MB       (max)       2.07 MB       (current)
 **********************************************************************************************************************************

 Density functional group PBE=PBEX+PBEC
 Functional: PBEX(Automatically generated (new) PBEX)                          Gradient terms: 1
 Functional: PBEC(Automatically generated (new) PBEC)                          Gradient terms: 1
 Use libxcgrid:  F
 Use grid at  1800.2

 Functional: PBEX                      Factor:  1.0000
 Functional: PBEC                      Factor:  1.0000

 Generated new metagrid on record  1800.2 with target accuracy 1.0D-08 and 62784 points in CPU time    0.2
 Computed new grid on record 1800.1 in CPU time    0.2
  278712 words reserved for DFT integration

 PROGRAM * RKS-SCF (Restricted closed shell Kohn-Sham)     Authors: W. Meyer, H.-J. Werner, P.J. Knowles, 1993

 NUMBER OF ELECTRONS:       5+    5-    SPACE SYMMETRY=1    SPIN SYMMETRY: Singlet 
 CONVERGENCE THRESHOLDS:    1.00E-04 (Density)    1.00E-08 (Energy)
 INTEGRAL THRESHOLDS:       1.00E-11 (Initial)    1.00E-11 (Final)
 MAX. NUMBER OF ITERATIONS:       60
 INTERPOLATION TYPE:            DIIS
 INTERPOLATION STEPS:              2 (START)      1 (STEP)
 LEVEL SHIFTS:                  0.00 (CLOSED)  0.00 (OPEN) 



 Use fine grid record 1800.2 for energy threshold  1.0D-08
 Orbital guess generated from atomic densities. Full valence occupancy:    7

 Molecular orbital dump at record        2201.2

 Initial occupancy:   5

 Direct Fock-matrix evaluation.        Authors: Roland Lindh & Martin Schuetz (1993/96)

 Integral Threshold:                  0.1D-10
 Threshold for writing integrals:     0.1D-06
 Prescreening on density matrix:        ON 
 Calculation will be performed fully direct        

 ITERATION   DDIFF            GRAD            ENERGY        2-EL.EN.            DIPOLE MOMENTS         DIIS   CPU(IT)  CPU(TOT)
    1      0.000D+00      0.000D+00       -76.30036006     98.210476    0.00394   -1.10003   -0.00633    0     16.9     20.8     start
    2      0.000D+00      0.841D-02       -75.91436623     81.828008   -0.00156    0.43776    0.00253    1     15.7     36.5     diag
    3      0.802D-02      0.190D-01       -76.38593898     93.602627    0.00264   -0.73788   -0.00424    2     15.8     52.3     diag
    4      0.559D-02      0.499D-03       -76.38635468     93.201724    0.00253   -0.70808   -0.00407    3     14.4     66.7     diag
    5      0.215D-03      0.109D-03       -76.38636779     93.250965    0.00253   -0.70657   -0.00406    4     13.0     79.7     diag
    6      0.282D-04      0.246D-04       -76.38636857     93.261828    0.00254   -0.70885   -0.00408    5     11.9     91.6     diag
    7      0.712D-05      0.972D-06       -76.38636857     93.261838    0.00254   -0.70874   -0.00408    6      9.4    100.9     diag
    8      0.251D-06      0.789D-07       -76.38636857     93.261941    0.00254   -0.70876   -0.00408    0      7.2    108.1     orth

 Final occupancy:   5

 !RKS STATE  1.1 Energy               -76.386368573333
 Nuclear energy                         9.15605699
 One-electron energy                 -122.93448200
 Two-electron energy                   46.63097048
 Density functional                    -9.23891404     PBEX=-8.91450072 PBEC=-0.32441331
 Virial quotient                       -1.00345163
 !RKS STATE  1.1 Dipole moment          0.00253618    -0.70875903    -0.00407689
 Dipole moment /Debye                   0.00644590    -1.80136778    -0.01036175

 Orbital energies:

         1.1          2.1          3.1          4.1          5.1          6.1          7.1
    -18.753902    -0.931048    -0.483401    -0.343744    -0.266316    -0.034497     0.015870


 HOMO      5.1    -0.266316 =      -7.2468eV
 LUMO      6.1    -0.034497 =      -0.9387eV
 LUMO-HOMO         0.231819 =       6.3081eV


 **********************************************************************************************************************************
 DATASETS  * FILE   NREC   LENGTH (MB)   RECORD NAMES
              1      19       34.41       500      610      700      900      950      970     1000      129      960     1100   
                                          VAR    BASINP    GEOM    SYMINP    ZMAT    AOBASIS   BASIS     P2S    ABASIS      S 
                                         1400     1410     1200     1210     1080     1600     1650     1700     1800   
                                           T        V       H0       H01     AOSYM     SMH    MOLCAS    OPER     GRID   

              2       6       12.51       700     1000      520     1800     2101     2201   
                                         GEOM     BASIS   MCVARS    GRID      RKS      RKS  

 PROGRAMS   *        TOTAL   RKS-SCF       INT   RKS-SCF       INT
 CPU TIMES  *       230.42    108.43      0.15    121.28      0.37
 REAL TIME  *       234.98 SEC
 DISK USED  *        54.13 MB (local),      216.51 MB (total)
 SF USED    *         1.42 MB
 GA USED    *         2.08 MB       (max)       2.07 MB       (current)
 **********************************************************************************************************************************
 SETTING EA_PBE         =       -76.38636857  AU                              

 Dummy atoms: O1  H3  H4


 Recomputing one-electron integrals since nuclear charges changed


 PROGRAM * SEWARD (Integral evaluation for generally contracted gaussian basis sets)     Author: Roland Lindh, 1990

 Geometry written to block  1 of record 700


 Point group  C1  



 ATOMIC COORDINATES

 NR  ATOM    CHARGE       X              Y              Z

   1  O1      0.00    0.000000000   -3.350095135    0.000000000
   2  O2      8.00    0.000000000    4.208809363    0.000000000
   3  H1      1.00    0.056132175    5.256041650   -1.483457817
   4  H2      1.00    0.025798103    5.391905511    1.378445262
   5  H3      0.00    0.033273831   -4.458876519   -1.438746007
   6  H4      0.00   -0.025280454   -4.475564422    1.425893811

 Bond lengths in Bohr (Angstrom)

 1-5  1.816726005  1-6  1.816726005  2-3  1.816726005  2-4  1.816726005
     ( 0.961370000)     ( 0.961370000)     ( 0.961370001)     ( 0.961370000)

 Bond angles

  3-2-4  104.10699999   5-1-6  104.10700004

 NUCLEAR CHARGE:                   10
 NUMBER OF PRIMITIVE AOS:         464
 NUMBER OF SYMMETRY AOS:          378
 NUMBER OF CONTRACTIONS:          344   (  344A   )
 NUMBER OF CORE ORBITALS:           1   (    1A   )
 NUMBER OF VALENCE ORBITALS:        6   (    6A   )

 MOLECULE CHANGED: INITIALIZING OCCUPATION AND DUMP RECORDS


 NUCLEAR REPULSION ENERGY    9.15605698


 Eigenvalues of metric

         1 0.612E-04 0.759E-04 0.814E-04 0.111E-03 0.304E-03 0.347E-03 0.520E-03 0.576E-03


 OPERATOR DM      FOR CENTER  0  COORDINATES:    0.000000    0.000000    0.000000


 **********************************************************************************************************************************
 DATASETS  * FILE   NREC   LENGTH (MB)   RECORD NAMES
              1      19       34.41       500      610      700      900      950      970     1000      129      960     1100   
                                          VAR    BASINP    GEOM    SYMINP    ZMAT    AOBASIS   BASIS     P2S    ABASIS      S 
                                         1400     1410     1200     1210     1080     1600     1650     1700     1800   
                                           T        V       H0       H01     AOSYM     SMH    MOLCAS    OPER     GRID   

              2       6       12.51       700     1000      520     1800     2101     2201   
                                         GEOM     BASIS   MCVARS    GRID      RKS      RKS  

 PROGRAMS   *        TOTAL       INT   RKS-SCF       INT   RKS-SCF       INT
 CPU TIMES  *       230.57      0.14    108.43      0.15    121.28      0.37
 REAL TIME  *       235.17 SEC
 DISK USED  *        54.13 MB (local),      216.51 MB (total)
 SF USED    *         1.42 MB
 GA USED    *         2.08 MB       (max)       2.07 MB       (current)
 **********************************************************************************************************************************

 Density functional group PBE=PBEX+PBEC
 Functional: PBEX(Automatically generated (new) PBEX)                          Gradient terms: 1
 Functional: PBEC(Automatically generated (new) PBEC)                          Gradient terms: 1
 Use libxcgrid:  F
 Use grid at  1800.2

 Functional: PBEX                      Factor:  1.0000
 Functional: PBEC                      Factor:  1.0000

  278712 words reserved for DFT integration

 PROGRAM * RKS-SCF (Restricted closed shell Kohn-Sham)     Authors: W. Meyer, H.-J. Werner, P.J. Knowles, 1993

 NUMBER OF ELECTRONS:       5+    5-    SPACE SYMMETRY=1    SPIN SYMMETRY: Singlet 
 CONVERGENCE THRESHOLDS:    1.00E-04 (Density)    1.00E-08 (Energy)
 INTEGRAL THRESHOLDS:       1.00E-11 (Initial)    1.00E-11 (Final)
 MAX. NUMBER OF ITERATIONS:       60
 INTERPOLATION TYPE:            DIIS
 INTERPOLATION STEPS:              2 (START)      1 (STEP)
 LEVEL SHIFTS:                  0.00 (CLOSED)  0.00 (OPEN) 



 Use fine grid record 1800.2 for energy threshold  1.0D-08
 Orbital guess generated from atomic densities. Full valence occupancy:    7

 Molecular orbital dump at record        2301.2

 Initial occupancy:   5

 Direct Fock-matrix evaluation.        Authors: Roland Lindh & Martin Schuetz (1993/96)

 Integral Threshold:                  0.1D-10
 Threshold for writing integrals:     0.1D-06
 Prescreening on density matrix:        ON 
 Calculation will be performed fully direct        

 ITERATION   DDIFF            GRAD            ENERGY        2-EL.EN.            DIPOLE MOMENTS         DIIS   CPU(IT)  CPU(TOT)
    1      0.000D+00      0.000D+00       -76.30036003     98.210483    0.04034    1.09809   -0.05170    0     16.8     20.7     start
    2      0.000D+00      0.841D-02       -75.91436267     81.827951   -0.01604   -0.43702    0.02054    1     15.9     36.6     diag
    3      0.802D-02      0.190D-01       -76.38593904     93.602635    0.02706    0.73659   -0.03469    2     15.8     52.4     diag
    4      0.559D-02      0.499D-03       -76.38635476     93.201725    0.02598    0.70684   -0.03329    3     14.3     66.8     diag
    5      0.215D-03      0.109D-03       -76.38636787     93.250968    0.02592    0.70533   -0.03322    4     12.9     79.7     diag
    6      0.282D-04      0.246D-04       -76.38636865     93.261831    0.02600    0.70760   -0.03332    5     11.9     91.6     diag
    7      0.712D-05      0.972D-06       -76.38636865     93.261841    0.02600    0.70750   -0.03332    6      9.2    100.8     diag
    8      0.251D-06      0.789D-07       -76.38636865     93.261944    0.02600    0.70751   -0.03332    0      7.2    108.0     orth

 Final occupancy:   5

 !RKS STATE  1.1 Energy               -76.386368651397
 Nuclear energy                         9.15605698
 One-electron energy                 -122.93448320
 Two-electron energy                   46.63097188
 Density functional                    -9.23891432     PBEX=-8.91450099 PBEC=-0.32441333
 Virial quotient                       -1.00345162
 !RKS STATE  1.1 Dipole moment          0.02599964     0.70751336    -0.03331838
 Dipole moment /Debye                   0.06608016     1.79820181    -0.08468132

 Orbital energies:

         1.1          2.1          3.1          4.1          5.1          6.1          7.1
    -18.753902    -0.931048    -0.483400    -0.343744    -0.266316    -0.034498     0.015867


 HOMO      5.1    -0.266316 =      -7.2468eV
 LUMO      6.1    -0.034498 =      -0.9387eV
 LUMO-HOMO         0.231818 =       6.3081eV


 **********************************************************************************************************************************
 DATASETS  * FILE   NREC   LENGTH (MB)   RECORD NAMES
              1      19       34.41       500      610      700      900      950      970     1000      129      960     1100   
                                          VAR    BASINP    GEOM    SYMINP    ZMAT    AOBASIS   BASIS     P2S    ABASIS      S 
                                         1400     1410     1200     1210     1080     1600     1650     1700     1800   
                                           T        V       H0       H01     AOSYM     SMH    MOLCAS    OPER     GRID   

              2       7       19.75       700     1000      520     1800     2101     2201     2301   
                                         GEOM     BASIS   MCVARS    GRID      RKS      RKS      RKS  

 PROGRAMS   *        TOTAL   RKS-SCF       INT   RKS-SCF       INT   RKS-SCF       INT
 CPU TIMES  *       338.70    108.13      0.14    108.43      0.15    121.28      0.37
 REAL TIME  *       344.49 SEC
 DISK USED  *        61.37 MB (local),      245.47 MB (total)
 SF USED    *         1.42 MB
 GA USED    *         2.08 MB       (max)       2.07 MB       (current)
 **********************************************************************************************************************************
 SETTING EB_PBE         =       -76.38636865  AU                              
 SETTING E_AB_INT       =         0.00179889  AU                              

 *** results in hartree
 E_AB_INT         =         0.00179889 AU
 Molecular orbitals read from record     2301.2  Type=RKS/CANONICAL (state 1.1)
 Occupation numbers read from record     2301.2  Type=RKS/RHF (state 1.1)
 Orbital energies read from record       2301.2  Type=RKS/CANONICAL (state 1.1)
 Redundancy group numbers read from rec  2301.2  Type=RKS/RHF (state 1.1)

 RPBE/aug-cc-pVQZ energy=    -76.386368651397

         RKS-SCF         RKS-SCF         RKS-SCF
    -76.38636865    -76.38636857   -152.77093833
 **********************************************************************************************************************************
 Molpro calculation terminated
