 vasp.5.4.1 24Jun15 (build Jan 02 2020 16:21:29) gamma-only                     
  
 executed on           IFC15_impi date 2020.04.16  15:30:27
 running on   32 total cores
 distrk:  each k-point on   32 cores,    1 groups
 distr:  one band on NCORES_PER_BAND=   8 cores,    4 groups


--------------------------------------------------------------------------------------------------------


 INCAR:
 POTCAR:    PAW_PBE O 08Apr2002                   
 POTCAR:    PAW_PBE H 15Jun2001                   
 POTCAR:    PAW_PBE O 08Apr2002                   
   VRHFIN =O: s2p4                                                              
   LEXCH  = PE                                                                  
   EATOM  =   432.3788 eV,   31.7789 Ry                                         
                                                                                
   TITEL  = PAW_PBE O 08Apr2002                                                 
   LULTRA =        F    use ultrasoft PP ?                                      
   IUNSCR =        1    unscreen: 0-lin 1-nonlin 2-no                           
   RPACOR =    1.200    partial core radius                                     
   POMASS =   16.000; ZVAL   =    6.000    mass and valenz                      
   RCORE  =    1.520    outmost cutoff radius                                   
   RWIGS  =    1.550; RWIGS  =    0.820    wigner-seitz radius (au A)           
   ENMAX  =  400.000; ENMIN  =  300.000 eV                                      
   ICORE  =        2    local potential                                         
   LCOR   =        T    correct aug charges                                     
   LPAW   =        T    paw PP                                                  
   EAUG   =  605.392                                                            
   DEXC   =    0.000                                                            
   RMAX   =    1.553    core radius for proj-oper                               
   RAUG   =    1.300    factor for augmentation sphere                          
   RDEP   =    1.550    radius for radial grids                                 
   RDEPT  =    1.329    core radius for aug-charge                              
                                                                                
   Atomic configuration                                                         
    4 entries                                                                   
     n  l   j            E        occ.                                          
     1  0  0.50      -514.6923   2.0000                                         
     2  0  0.50       -23.9615   2.0000                                         
     2  1  0.50        -9.0305   4.0000                                         
     3  2  1.50        -9.5241   0.0000                                         
   Description                                                                  
     l       E           TYP  RCUT    TYP  RCUT                                 
     0    -23.9615318     23  1.200                                             
     0     -9.5240782     23  1.200                                             
     1     -9.0304911     23  1.520                                             
     1      8.1634956     23  1.520                                             
     2     -9.5240782      7  1.500                                             
  local pseudopotential read in
  partial core-charges read in
  partial kinetic energy density read in
  kinetic energy density of atom read in
  atomic valenz-charges read in
  non local Contribution for L=           0  read in
    real space projection operators read in
  non local Contribution for L=           0  read in
    real space projection operators read in
  non local Contribution for L=           1  read in
    real space projection operators read in
  non local Contribution for L=           1  read in
    real space projection operators read in
    PAW grid and wavefunctions read in
 
   number of l-projection  operators is LMAX  =           4
   number of lm-projection operators is LMMAX =           8
 
 POTCAR:    PAW_PBE H 15Jun2001                   
   VRHFIN =H: ultrasoft test                                                    
   LEXCH  = PE                                                                  
   EATOM  =    12.4884 eV,    0.9179 Ry                                         
                                                                                
   TITEL  = PAW_PBE H 15Jun2001                                                 
   LULTRA =        F    use ultrasoft PP ?                                      
   IUNSCR =        0    unscreen: 0-lin 1-nonlin 2-no                           
   RPACOR =    0.000    partial core radius                                     
   POMASS =    1.000; ZVAL   =    1.000    mass and valenz                      
   RCORE  =    1.100    outmost cutoff radius                                   
   RWIGS  =    0.700; RWIGS  =    0.370    wigner-seitz radius (au A)           
   ENMAX  =  250.000; ENMIN  =  200.000 eV                                      
   RCLOC  =    0.701    cutoff for local pot                                    
   LCOR   =        T    correct aug charges                                     
   LPAW   =        T    paw PP                                                  
   EAUG   =  400.000                                                            
   RMAX   =    1.123    core radius for proj-oper                               
   RAUG   =    1.200    factor for augmentation sphere                          
   RDEP   =    1.112    radius for radial grids                                 
   RDEPT  =    0.926    core radius for aug-charge                              
                                                                                
   Atomic configuration                                                         
    2 entries                                                                   
     n  l   j            E        occ.                                          
     1  0  0.50        -6.4927   1.0000                                         
     2  1  0.50        -3.4015   0.0000                                         
   Description                                                                  
     l       E           TYP  RCUT    TYP  RCUT                                 
     0     -6.4927494     23  1.100                                             
     0      6.8029130     23  1.100                                             
     1     -4.0817478     23  1.100                                             
  local pseudopotential read in
  atomic valenz-charges read in
  non local Contribution for L=           0  read in
    real space projection operators read in
  non local Contribution for L=           0  read in
    real space projection operators read in
  non local Contribution for L=           1  read in
    real space projection operators read in
    PAW grid and wavefunctions read in
 
   number of l-projection  operators is LMAX  =           3
   number of lm-projection operators is LMMAX =           5
 
  PAW_PBE O 08Apr2002                   :
 energy of atom  1       EATOM= -432.3788
 kinetic energy error for atom=    0.0005 (will be added to EATOM!!)
  PAW_PBE H 15Jun2001                   :
 energy of atom  2       EATOM=  -12.4884
 kinetic energy error for atom=    0.0000 (will be added to EATOM!!)
 
 
 POSCAR: O H                                     
  positions in cartesian coordinates
  No initial velocities read in
 exchange correlation table for  LEXCH =        8
   RHO(1)=    0.500       N(1)  =     2000
   RHO(2)=  100.500       N(2)  =     4000
 


--------------------------------------------------------------------------------------------------------


 ion  position               nearest neighbor table
   1  0.980  0.998  0.000-   2 0.96   3 0.96
   2  0.971  0.024  1.000-   1 0.96
   3  0.007  0.001  0.000-   1 0.96
 
  LATTYP: Found a simple cubic cell.
 ALAT       =    35.0000000000
  
  Lattice vectors:
  
 A1 = (  35.0000000000,   0.0000000000,   0.0000000000)
 A2 = (   0.0000000000,  35.0000000000,   0.0000000000)
 A3 = (   0.0000000000,   0.0000000000,  35.0000000000)


Analysis of symmetry for initial positions (statically):
=====================================================================
 Subroutine PRICEL returns:
 Original cell was already a primitive cell.
 

 Routine SETGRP: Setting up the symmetry group for a 
 simple cubic supercell.


 Subroutine GETGRP returns: Found  1 space group operations
 (whereof  1 operations were pure point group operations)
 out of a pool of 48 trial point group operations.


The static configuration has the point symmetry C_1 .


Analysis of symmetry for dynamics (positions and initial velocities):
=====================================================================
 Subroutine PRICEL returns:
 Original cell was already a primitive cell.
 

 Routine SETGRP: Setting up the symmetry group for a 
 simple cubic supercell.


 Subroutine GETGRP returns: Found  1 space group operations
 (whereof  1 operations were pure point group operations)
 out of a pool of 48 trial point group operations.


The dynamic configuration has the point symmetry C_1 .
 
 
 KPOINTS: automatic mesh                          

Automatic generation of k-mesh.
Space group operators:
 irot       det(A)        alpha          n_x          n_y          n_z        tau_x        tau_y        tau_z
    1     1.000000     0.000000     1.000000     0.000000     0.000000     0.000000     0.000000     0.000000
 
 Subroutine IBZKPT returns following result:
 ===========================================
 
 Found      1 irreducible k-points:
 
 Following reciprocal coordinates:
            Coordinates               Weight
  0.000000  0.000000  0.000000      1.000000
 
 Following cartesian coordinates:
            Coordinates               Weight
  0.000000  0.000000  0.000000      1.000000
 
 
 Subroutine IBZKPT_HF returns following result:
 ==============================================
 
 Found      1 k-points in 1st BZ
 the following      1 k-points will be used (e.g. in the exchange kernel)
 Following reciprocal coordinates:   # in IRBZ
  0.000000  0.000000  0.000000    1.00000000   1 t-inv F


--------------------------------------------------------------------------------------------------------




 Dimension of arrays:
   k-points           NKPTS =      1   k-points in BZ     NKDIM =      1   number of bands    NBANDS=      8
   number of dos      NEDOS =    301   number of ions     NIONS =      3
   non local maximal  LDIM  =      4   non local SUM 2l+1 LMDIM =      8
   total plane-waves  NPLWV = ******
   max r-space proj   IRMAX =      1   max aug-charges    IRDMAX=  33660
   dimension x,y,z NGX =   480 NGY =  480 NGZ =  480
   dimension x,y,z NGXF=   960 NGYF=  960 NGZF=  960
   support grid    NGXF=   960 NGYF=  960 NGZF=  960
   ions per type =               1   2
 NGX,Y,Z   is equivalent  to a cutoff of  22.80, 22.80, 22.80 a.u.
 NGXF,Y,Z  is equivalent  to a cutoff of  45.60, 45.60, 45.60 a.u.


 I would recommend the setting:
   dimension x,y,z NGX =   457 NGY =  457 NGZ =  457
 SYSTEM =  C                                       
 POSCAR =  O H                                     

 Startparameter for this run:
   NWRITE =      2    write-flag & timer
   PREC   = accura    normal or accurate (medium, high low for compatibility)
   ISTART =      0    job   : 0-new  1-cont  2-samecut
   ICHARG =      2    charge: 1-file 2-atom 10-const
   ISPIN  =      1    spin polarized calculation?
   LNONCOLLINEAR =      F non collinear calculations
   LSORBIT =      F    spin-orbit coupling
   INIWAV =      1    electr: 0-lowe 1-rand  2-diag
   LASPH  =      T    aspherical Exc in radial PAW
   METAGGA=      F    non-selfconsistent MetaGGA calc.

 Electronic Relaxation 1
   ENCUT  = 1600.0 eV 117.60 Ry   10.84 a.u. 114.15114.15114.15*2*pi/ulx,y,z
   ENINI  = 1600.0     initial cutoff
   ENAUG  =  605.4 eV  augmentation charge cutoff
   NELM   =     60;   NELMIN=  2; NELMDL= -5     # of ELM steps 
   EDIFF  = 0.1E-06   stopping-criterion for ELM
   LREAL  =      F    real-space projection
   NLSPLINE    = F    spline interpolate recip. space projectors
   LCOMPAT=      F    compatible to vasp.4.4
   GGA_COMPAT  = T    GGA compatible to vasp.4.4-vasp.4.6
   LMAXPAW     = -100 max onsite density
   LMAXMIX     =    2 max onsite mixed and CHGCAR
   VOSKOWN=      0    Vosko Wilk Nusair interpolation
   ROPT   =    0.00000   0.00000
 Ionic relaxation
   EDIFFG = 0.1E-05   stopping-criterion for IOM
   NSW    =      0    number of steps for IOM
   NBLOCK =      1;   KBLOCK =      1    inner block; outer block 
   IBRION =     -1    ionic relax: 0-MD 1-quasi-New 2-CG
   NFREE  =      0    steps in history (QN), initial steepest desc. (CG)
   ISIF   =      0    stress and relaxation
   IWAVPR =     10    prediction:  0-non 1-charg 2-wave 3-comb
   ISYM   =      3    0-nonsym 1-usesym 2-fastsym
   LCORR  =      T    Harris-Foulkes like correction to forces

   POTIM  = 0.5000    time-step for ionic-motion
   TEIN   =    0.0    initial temperature
   TEBEG  =    0.0;   TEEND  =   0.0 temperature during run
   SMASS  =  -3.00    Nose mass-parameter (am)
   estimated Nose-frequenzy (Omega)   =  0.10E-29 period in steps =****** mass=  -0.280E-25a.u.
   SCALEE = 1.0000    scale energy and forces
   NPACO  =    256;   APACO  = 16.0  distance and # of slots for P.C.
   PSTRESS=    0.0 pullay stress

  Mass of Ions in am
   POMASS =  16.00  1.00
  Ionic Valenz
   ZVAL   =   6.00  1.00
  Atomic Wigner-Seitz radii
   RWIGS  =  -1.00 -1.00
  virtual crystal weights 
   VCA    =   1.00  1.00
   NELECT =       8.0000    total number of electrons
   NUPDOWN=      -1.0000    fix difference up-down

 DOS related values:
   EMIN   =  10.00;   EMAX   =-10.00  energy-range for DOS
   EFERMI =   0.00
   ISMEAR =     0;   SIGMA  =   0.01  broadening in eV -4-tet -1-fermi 0-gaus

 Electronic relaxation 2 (details)
   IALGO  =     58    algorithm
   LDIAG  =      T    sub-space diagonalisation (order eigenvalues)
   LSUBROT=      F    optimize rotation matrix (better conditioning)
   TURBO    =      0    0=normal 1=particle mesh
   IRESTART =      0    0=no restart 2=restart with 2 vectors
   NREBOOT  =      0    no. of reboots
   NMIN     =      0    reboot dimension
   EREF     =   0.00    reference energy to select bands
   IMIX   =      4    mixing-type and parameters
     AMIX     =   0.40;   BMIX     =  1.00
     AMIX_MAG =   1.60;   BMIX_MAG =  1.00
     AMIN     =   0.10
     WC   =   100.;   INIMIX=   1;  MIXPRE=   1;  MAXMIX= -45

 Intra band minimization:
   WEIMIN = 0.0000     energy-eigenvalue tresh-hold
   EBREAK =  0.31E-08  absolut break condition
   DEPER  =   0.30     relativ break condition  

   TIME   =   0.40     timestep for ELM

  volume/ion in A,a.u.               =   14291.67     96444.93
  Fermi-wavevector in a.u.,A,eV,Ry     =   0.093548  0.176781  0.119069  0.008751
  Thomas-Fermi vector in A             =   0.652187
 
 Write flags
   LWAVE  =      F    write WAVECAR
   LCHARG =      T    write CHGCAR
   LVTOT  =      F    write LOCPOT, total local potential
   LVHAR  =      F    write LOCPOT, Hartree potential only
   LELF   =      F    write electronic localiz. function (ELF)
   LORBIT =      0    0 simple, 1 ext, 2 COOP (PROOUT)


 Dipole corrections
   LMONO  =      F    monopole corrections only (constant potential shift)
   LDIPOL =      F    correct potential (dipole corrections)
   IDIPOL =      0    1-x, 2-y, 3-z, 4-all directions 
   EPSILON=  1.0000000 bulk dielectric constant

 Exchange correlation treatment:
   GGA     =    --    GGA type
   LEXCH   =     8    internal setting for exchange type
   VOSKOWN=      0    Vosko Wilk Nusair interpolation
   EXXOEP  =     0    0=HF, 1=EXX-LHF (local Hartree Fock) 2=EXX OEP
   LHFCALC =     T    Hartree Fock is set to
   LSYMGRAD=     F    symmetrize gradient (conserves proper symmetry)
   PRECFOCK=normal    Normal, Fast or Accurate (Low or Medium for compatibility)
   LRHFCALC=     F    long range Hartree Fock
   LRSCOR  =     F    long range correlation only (use DFT for short range part)
   LTHOMAS =     F    Thomas Fermi screening in HF
   LMODELHF=     F    short range full HF, long range fraction AEXX
   ENCUT4O =  -1.0   cutoff for four orbital integrals eV
   LMAXFOCK=     4    L truncation for augmentation on plane wave grid
   LMAXFOCKAE=  -1    L truncation for all-electron charge restoration on plane wave grid
   NMAXFOCKAE=   1    number of basis functions for all-electron charge restoration
   LFOCKAEDFT=     F  apply the AE augmentation even for DFT
   NKREDX  =     1    reduce k-point grid by
   NKREDY  =     1    reduce k-point grid by
   NKREDZ  =     1    reduce k-point grid by
   SHIFTRED=     F    shift reduced grid of Gamma
   HFKIDENT=     F    idential grid for each k-point
   ODDONLY =     F    use only odd q-grid points
   EVENONLY=     F    use only even q-grid points
   HFALPHA =   -1.0000 decay constant for conv. correction
   MCALPHA =    0.0000 extent of test-charge in conv. correction in multipole expansion
   AEXX    =    1.0000 exact exchange contribution
   HFSCREEN=    0.0000 screening length (either q_TF or 0.3 A-1)
   HFSCREENC=   0.0000 screening length for correlation (either q_TF or 0.3 A-1)
   HFRCUT  =    0.0000 spherical cutoff for potential kernel
   ALDAX   =    0.0000 LDA exchange part
   AGGAX   =    0.0000 GGA exchange part
   ALDAC   =    0.0000 LDA correlation
   AGGAC   =    0.0000 GGA correlation
   NBANDSGWLOW=     1    first orbital included in HF term
   ENCUTFOCK=  -1.0 apply spherical cutoff to Coloumb kernel
 Linear response parameters
   LEPSILON=     F    determine dielectric tensor
   LRPA    =     F    only Hartree local field effects (RPA)
   LNABLA  =     F    use nabla operator in PAW spheres
   LVEL    =     F    velocity operator in full k-point grid
   LINTERFAST=   F  fast interpolation
   KINTER  =     0    interpolate to denser k-point grid
   CSHIFT  =0.1000    complex shift for real part using Kramers Kronig
   OMEGAMAX=  -1.0    maximum frequency
   DEG_THRESHOLD= 0.2000000E-02 threshold for treating states as degnerate
   RTIME   =    0.100 relaxation time in fs

 Orbital magnetization related:
   ORBITALMAG=     F  switch on orbital magnetization
   LCHIMAG   =     F  perturbation theory with respect to B field
   DQ        =  0.001000  dq finite difference perturbation B field



--------------------------------------------------------------------------------------------------------


 Static calculation
 charge density and potential will be updated during run
 non-spin polarized calculation
 Conjugate gradient for all bands (Freysoldt, et al. PRB 79, 241103 (2009))
 preconditioned conjugated gradient                                        
 perform sub-space diagonalisation
    before iterative eigenvector-optimisation
 modified Broyden-mixing scheme, WC =      100.0
 initial mixing is a Kerker type mixing with AMIX =  0.4000 and BMIX =      1.0000
 Hartree-type preconditioning will be used
 using additional bands            4
 reciprocal scheme for non local part
 use partial core corrections
 no Harris-corrections to forces 
 use gradient corrections 
 use of overlap-Matrix (Vanderbilt PP)
 Gauss-broadening in eV      SIGMA  =   0.01


--------------------------------------------------------------------------------------------------------


  energy-cutoff  :     1600.00
  volume of cell :    42875.00
      direct lattice vectors                 reciprocal lattice vectors
    35.000000000  0.000000000  0.000000000     0.028571429  0.000000000  0.000000000
     0.000000000 35.000000000  0.000000000     0.000000000  0.028571429  0.000000000
     0.000000000  0.000000000 35.000000000     0.000000000  0.000000000  0.028571429

  length of vectors
    35.000000000 35.000000000 35.000000000     0.028571429  0.028571429  0.028571429


 
 k-points in units of 2pi/SCALE and weight: automatic mesh                          
   0.00000000  0.00000000  0.00000000       1.000
 
 k-points in reciprocal lattice and weights: automatic mesh                          
   0.00000000  0.00000000  0.00000000       1.000
 
 position of ions in fractional coordinates (direct lattice) 
   0.97993726  0.99839828  0.00028406
   0.97079448  0.02419359  0.99967175
   0.00735774  0.00120347  0.00014911
 
 position of ions in cartesian coordinates  (Angst):
  34.29780395 34.94393974  0.00994226
  33.97780678  0.84677578 34.98851129
   0.25752106  0.04212150  0.00521900
 


--------------------------------------------------------------------------------------------------------


 use parallel FFT for wavefunctions z direction half grid
 k-point  1 :   0.0000 0.0000 0.0000  plane waves: 3115599

 maximum and minimum number of plane-waves per node :    389462   389421

 maximum number of plane-waves:   3115599
 maximum index in each direction: 
   IXMAX=  114   IYMAX=  114   IZMAX=  114
   IXMIN= -114   IYMIN= -114   IZMIN=    0

 NGX is ok and might be reduce to 458
 NGY is ok and might be reduce to 458
 NGZ is ok and might be reduce to 458

 parallel 3D FFT for wavefunctions:
    minimum data exchange during FFTs selected (reduces bandwidth)
 parallel 3D FFT for charge:
    minimum data exchange during FFTs selected (reduces bandwidth)


 FFT grid for exact exchange (Hartree Fock) 
  NGX =350; NGY =350; NGZ =350

 use parallel FFT for wavefunctions z direction half grid
 
 Radii for the augmentation spheres in the non-local exchange
 for species   1 augmentation radius   0.902 (default was   0.722)
       energy cutoff for augmentation   6400.0
 for species   2 augmentation radius   0.650 (default was   0.520)
       energy cutoff for augmentation   6400.0

 real space projection operators:
  total allocation   :        376.95 KBytes
  max/ min on nodes  :         54.56         35.02

 Maximum index for augmentation-charges in exchange          459
  SETUP_FOCK is finished

 total amount of memory used by VASP on root node  3635492. kBytes
========================================================================

   base      :      30000. kBytes
   nonl-proj :      68538. kBytes
   fftplans  :    1395487. kBytes
   grid      :    2104012. kBytes
   one-center:          1. kBytes
   HF        :          4. kBytes
   nonlr-proj:         67. kBytes
   wavefun   :      37383. kBytes
 
     INWAV:  cpu time    0.0000: real time    0.0001
 Broyden mixing: mesh for mixing (old mesh)
   NGX =229   NGY =229   NGZ =229
  (NGX  =960   NGY  =960   NGZ  =960)
  gives a total of ****** points

 initial charge density was supplied:
 charge density of overlapping atoms calculated
 number of electron       8.0000000 magnetization 
 keeping initial charge density in first step


--------------------------------------------------------------------------------------------------------


 Maximum index for augmentation-charges          787 (set IRDMAX)


--------------------------------------------------------------------------------------------------------


 FEWALD executed in parallel
    FEWALD:  cpu time    0.0003: real time    0.0003


----------------------------------------- Iteration    1(   1)  ---------------------------------------


    POTLOK:  cpu time   14.0606: real time   14.1001
    SETDIJ:  cpu time    0.0521: real time    0.0523
    TRIAL :  cpu time    2.8432: real time    2.8548
    CORREC:  cpu time    0.0000: real time    0.0000
    --------------------------------------------
      LOOP:  cpu time   17.0449: real time   17.0981

 eigenvalue-minimisations  :    16
 total energy-change (2. order) : 0.6186478E+02  (-0.1107318E+03)
 number of electron       8.0000000 magnetization 
 augmentation part        8.0000000 magnetization 

 Free energy of the ion-electron system (eV)
  ---------------------------------------------------
  alpha Z        PSCENC =         0.00523035
  Ewald energy   TEWEN  =       151.91321730
  -Hartree energ DENC   =      -509.56818431
  -exchange      EXHF   =         0.00000000
  -V(xc)+E(xc)   XCENC  =         0.00000000
  PAW double counting   =       380.06540654     -379.12638818
  entropy T*S    EENTRO =        -0.00000000
  eigenvalues    EBANDS =       -13.91238589
  atomic energy  EATOM  =       432.48788473
  ---------------------------------------------------
  free energy    TOTEN  =        61.86478054 eV

  energy without entropy =       61.86478054  energy(sigma->0) =       61.86478054
  exchange ACFDT corr.  =         0.00000000  see jH, gK, PRB 81, 115126


--------------------------------------------------------------------------------------------------------




----------------------------------------- Iteration    1(   2)  ---------------------------------------


    TRIAL :  cpu time    2.7725: real time    2.7838
    CORREC:  cpu time    0.0002: real time    0.0002
    --------------------------------------------
      LOOP:  cpu time    2.7748: real time    2.7888

 eigenvalue-minimisations  :    16
 total energy-change (2. order) :-0.7123113E+01  (-0.7122268E+01)
 number of electron       8.0000000 magnetization 
 augmentation part        8.0000000 magnetization 

 Free energy of the ion-electron system (eV)
  ---------------------------------------------------
  alpha Z        PSCENC =         0.00523035
  Ewald energy   TEWEN  =       151.91321730
  -Hartree energ DENC   =      -509.56818431
  -exchange      EXHF   =         0.00000000
  -V(xc)+E(xc)   XCENC  =         0.00000000
  PAW double counting   =       380.06540654     -379.12638818
  entropy T*S    EENTRO =        -0.00370958
  eigenvalues    EBANDS =       -21.03178910
  atomic energy  EATOM  =       432.48788473
  ---------------------------------------------------
  free energy    TOTEN  =        54.74166776 eV

  energy without entropy =       54.74537734  energy(sigma->0) =       54.74352255
  exchange ACFDT corr.  =         0.00000000  see jH, gK, PRB 81, 115126


--------------------------------------------------------------------------------------------------------




----------------------------------------- Iteration    1(   3)  ---------------------------------------


    TRIAL :  cpu time    4.5588: real time    4.5773
    CORREC:  cpu time    0.0002: real time    0.0002
    --------------------------------------------
      LOOP:  cpu time    4.5608: real time    4.5820

 eigenvalue-minimisations  :    32
 total energy-change (2. order) :-0.1372501E+01  (-0.1367655E+01)
 number of electron       8.0000000 magnetization 
 augmentation part        8.0000000 magnetization 

 Free energy of the ion-electron system (eV)
  ---------------------------------------------------
  alpha Z        PSCENC =         0.00523035
  Ewald energy   TEWEN  =       151.91321730
  -Hartree energ DENC   =      -509.56818431
  -exchange      EXHF   =         0.00000000
  -V(xc)+E(xc)   XCENC  =         0.00000000
  PAW double counting   =       380.06540654     -379.12638818
  entropy T*S    EENTRO =        -0.01199125
  eigenvalues    EBANDS =       -22.39600810
  atomic energy  EATOM  =       432.48788473
  ---------------------------------------------------
  free energy    TOTEN  =        53.36916708 eV

  energy without entropy =       53.38115833  energy(sigma->0) =       53.37516270
  exchange ACFDT corr.  =         0.00000000  see jH, gK, PRB 81, 115126


--------------------------------------------------------------------------------------------------------




----------------------------------------- Iteration    1(   4)  ---------------------------------------


    TRIAL :  cpu time    3.6638: real time    3.6791
    CORREC:  cpu time    0.0002: real time    0.0002
    --------------------------------------------
      LOOP:  cpu time    3.6658: real time    3.6835

 eigenvalue-minimisations  :    24
 total energy-change (2. order) :-0.9991128E+00  (-0.9976032E+00)
 number of electron       8.0000000 magnetization 
 augmentation part        8.0000000 magnetization 

 Free energy of the ion-electron system (eV)
  ---------------------------------------------------
  alpha Z        PSCENC =         0.00523035
  Ewald energy   TEWEN  =       151.91321730
  -Hartree energ DENC   =      -509.56818431
  -exchange      EXHF   =         0.00000000
  -V(xc)+E(xc)   XCENC  =         0.00000000
  PAW double counting   =       380.06540654     -379.12638818
  entropy T*S    EENTRO =        -0.01615100
  eigenvalues    EBANDS =       -23.39096120
  atomic energy  EATOM  =       432.48788473
  ---------------------------------------------------
  free energy    TOTEN  =        52.37005423 eV

  energy without entropy =       52.38620524  energy(sigma->0) =       52.37812973
  exchange ACFDT corr.  =         0.00000000  see jH, gK, PRB 81, 115126


--------------------------------------------------------------------------------------------------------




----------------------------------------- Iteration    1(   5)  ---------------------------------------


    TRIAL :  cpu time    2.7680: real time    2.7798
    CORREC:  cpu time    0.0002: real time    0.0002
    CHARGE:  cpu time    1.9213: real time    1.9301
    --------------------------------------------
      LOOP:  cpu time    4.6913: real time    4.7142

 eigenvalue-minimisations  :    16
 total energy-change (2. order) :-0.4046681E-01  (-0.3987642E-01)
 number of electron       8.0000000 magnetization 
 augmentation part       -0.0056008 magnetization 

 Free energy of the ion-electron system (eV)
  ---------------------------------------------------
  alpha Z        PSCENC =         0.00523035
  Ewald energy   TEWEN  =       151.91321730
  -Hartree energ DENC   =      -509.56818431
  -exchange      EXHF   =         0.00000000
  -V(xc)+E(xc)   XCENC  =         0.00000000
  PAW double counting   =       380.06540654     -379.12638818
  entropy T*S    EENTRO =        -0.01817989
  eigenvalues    EBANDS =       -23.42939912
  atomic energy  EATOM  =       432.48788473
  ---------------------------------------------------
  free energy    TOTEN  =        52.32958742 eV

  energy without entropy =       52.34776732  energy(sigma->0) =       52.33867737
  exchange ACFDT corr.  =         0.00000000  see jH, gK, PRB 81, 115126


--------------------------------------------------------------------------------------------------------




----------------------------------------- Iteration    1(   6)  ---------------------------------------


    POTLOK:  cpu time   15.3536: real time   15.3956
    SETDIJ:  cpu time    0.0524: real time    0.0525
    TRIAL :  cpu time    9.2695: real time    9.3202
    CORREC:  cpu time   25.2527: real time   25.3489
    CHARGE:  cpu time    1.8693: real time    1.8775
    --------------------------------------------
      LOOP:  cpu time   51.8015: real time   52.0014

 eigenvalue-minimisations  :     0
 total energy-change (2. order) : 0.1205311E+03  (-0.5225370E+02)
 number of electron       8.0000000 magnetization 
 augmentation part        0.0008713 magnetization 

 Free energy of the ion-electron system (eV)
  ---------------------------------------------------
  alpha Z        PSCENC =         0.00523035
  Ewald energy   TEWEN  =       151.91321730
  -Hartree energ DENC   =      -108.09553431
  -exchange      EXHF   =        38.53886555
  -V(xc)+E(xc)   XCENC  =         0.00000000
  PAW double counting   =       129.64226696     -129.40964247
  entropy T*S    EENTRO =        -0.01077558
  eigenvalues    EBANDS =      -342.20339185
  atomic energy  EATOM  =       432.48788473
  ---------------------------------------------------
  free energy    TOTEN  =       172.86071637 eV

  energy without entropy =      172.87149195  energy(sigma->0) =      172.86610416
  exchange ACFDT corr.  =        -0.95121228  see jH, gK, PRB 81, 115126


--------------------------------------------------------------------------------------------------------




----------------------------------------- Iteration    1(   7)  ---------------------------------------


    POTLOK:  cpu time   15.3566: real time   15.3987
    SETDIJ:  cpu time    0.0528: real time    0.0530
    TRIAL :  cpu time    9.1889: real time    9.2386
    CORREC:  cpu time   25.2655: real time   25.3599
    CHARGE:  cpu time    1.8669: real time    1.8754
    --------------------------------------------
      LOOP:  cpu time   51.7352: real time   51.9326

 eigenvalue-minimisations  :     0
 total energy-change (2. order) :-0.3711643E+02  (-0.2224849E+02)
 number of electron       8.0000000 magnetization 
 augmentation part        0.0175465 magnetization 

 Free energy of the ion-electron system (eV)
  ---------------------------------------------------
  alpha Z        PSCENC =         0.00523035
  Ewald energy   TEWEN  =       151.91321730
  -Hartree energ DENC   =      -138.14062532
  -exchange      EXHF   =        47.07532917
  -V(xc)+E(xc)   XCENC  =         0.00000000
  PAW double counting   =       178.08834215     -177.64573177
  entropy T*S    EENTRO =        -0.00060837
  eigenvalues    EBANDS =      -358.02858342
  atomic energy  EATOM  =       432.48788473
  ---------------------------------------------------
  free energy    TOTEN  =       135.74428760 eV

  energy without entropy =      135.74489597  energy(sigma->0) =      135.74459179
  exchange ACFDT corr.  =        -0.56419148  see jH, gK, PRB 81, 115126


--------------------------------------------------------------------------------------------------------




----------------------------------------- Iteration    1(   8)  ---------------------------------------


    POTLOK:  cpu time   15.3786: real time   15.4204
    SETDIJ:  cpu time    0.0523: real time    0.0525
    TRIAL :  cpu time    9.2133: real time    9.2636
    CORREC:  cpu time   22.6146: real time   22.7020
    CHARGE:  cpu time    1.6308: real time    1.6387
    --------------------------------------------
      LOOP:  cpu time   48.8903: real time   49.0806

 eigenvalue-minimisations  :     0
 total energy-change (2. order) :-0.1711607E+02  (-0.1450027E+02)
 number of electron       8.0000000 magnetization 
 augmentation part        0.0694312 magnetization 

 Free energy of the ion-electron system (eV)
  ---------------------------------------------------
  alpha Z        PSCENC =         0.00523035
  Ewald energy   TEWEN  =       151.91321730
  -Hartree energ DENC   =      -158.70283192
  -exchange      EXHF   =        52.95458730
  -V(xc)+E(xc)   XCENC  =         0.00000000
  PAW double counting   =       200.64800040     -199.99326159
  entropy T*S    EENTRO =        -0.00000000
  eigenvalues    EBANDS =      -360.68399653
  atomic energy  EATOM  =       432.48788473
  ---------------------------------------------------
  free energy    TOTEN  =       118.62822167 eV

  energy without entropy =      118.62822167  energy(sigma->0) =      118.62822167
  exchange ACFDT corr.  =        -0.01914245  see jH, gK, PRB 81, 115126


--------------------------------------------------------------------------------------------------------




----------------------------------------- Iteration    1(   9)  ---------------------------------------


    POTLOK:  cpu time   15.4115: real time   15.4537
    SETDIJ:  cpu time    0.0516: real time    0.0521
    TRIAL :  cpu time    6.7899: real time    6.8320
    CORREC:  cpu time   22.5409: real time   22.6289
    CHARGE:  cpu time    1.6376: real time    1.6457
    --------------------------------------------
      LOOP:  cpu time   46.4338: real time   46.6173

 eigenvalue-minimisations  :     0
 total energy-change (2. order) :-0.1312849E+02  (-0.1865067E+02)
 number of electron       8.0000000 magnetization 
 augmentation part        0.1141851 magnetization 

 Free energy of the ion-electron system (eV)
  ---------------------------------------------------
  alpha Z        PSCENC =         0.00523035
  Ewald energy   TEWEN  =       151.91321730
  -Hartree energ DENC   =      -182.78285040
  -exchange      EXHF   =        58.00475807
  -V(xc)+E(xc)   XCENC  =         0.00000000
  PAW double counting   =       213.88567768     -213.05787490
  entropy T*S    EENTRO =        -0.00000000
  eigenvalues    EBANDS =      -354.95631313
  atomic energy  EATOM  =       432.48788473
  ---------------------------------------------------
  free energy    TOTEN  =       105.49972972 eV

  energy without entropy =      105.49972972  energy(sigma->0) =      105.49972972
  exchange ACFDT corr.  =         0.00000000  see jH, gK, PRB 81, 115126


--------------------------------------------------------------------------------------------------------




----------------------------------------- Iteration    1(  10)  ---------------------------------------


    POTLOK:  cpu time   16.1514: real time   16.1957
    SETDIJ:  cpu time    0.1795: real time    0.1800
    TRIAL :  cpu time    6.8940: real time    6.9373
    CORREC:  cpu time   23.5280: real time   23.6185
    CHARGE:  cpu time    1.6230: real time    1.6305
    --------------------------------------------
      LOOP:  cpu time   48.3797: real time   48.5681

 eigenvalue-minimisations  :     0
 total energy-change (2. order) :-0.1835204E+02  (-0.2258880E+02)
 number of electron       8.0000000 magnetization 
 augmentation part        0.1292369 magnetization 

 Free energy of the ion-electron system (eV)
  ---------------------------------------------------
  alpha Z        PSCENC =         0.00523035
  Ewald energy   TEWEN  =       151.91321730
  -Hartree energ DENC   =      -229.79275329
  -exchange      EXHF   =        64.63894754
  -V(xc)+E(xc)   XCENC  =         0.00000000
  PAW double counting   =       220.56647430     -219.50881532
  entropy T*S    EENTRO =        -0.00000000
  eigenvalues    EBANDS =      -333.16249218
  atomic energy  EATOM  =       432.48788473
  ---------------------------------------------------
  free energy    TOTEN  =        87.14769345 eV

  energy without entropy =       87.14769345  energy(sigma->0) =       87.14769345
  exchange ACFDT corr.  =         0.00000000  see jH, gK, PRB 81, 115126


--------------------------------------------------------------------------------------------------------




----------------------------------------- Iteration    1(  11)  ---------------------------------------


    POTLOK:  cpu time   16.1367: real time   16.1810
    SETDIJ:  cpu time    0.1836: real time    0.1843
    TRIAL :  cpu time    6.8835: real time    6.9268
    CORREC:  cpu time   23.5158: real time   23.6064
    CHARGE:  cpu time    1.6237: real time    1.6317
    --------------------------------------------
      LOOP:  cpu time   48.3813: real time   48.5708

 eigenvalue-minimisations  :     0
 total energy-change (2. order) :-0.2015977E+02  (-0.1924573E+02)
 number of electron       8.0000000 magnetization 
 augmentation part        0.1489555 magnetization 

 Free energy of the ion-electron system (eV)
  ---------------------------------------------------
  alpha Z        PSCENC =         0.00523035
  Ewald energy   TEWEN  =       151.91321730
  -Hartree energ DENC   =      -286.68952269
  -exchange      EXHF   =        71.56912361
  -V(xc)+E(xc)   XCENC  =         0.00000000
  PAW double counting   =       233.08674688     -231.81336166
  entropy T*S    EENTRO =        -0.00000000
  eigenvalues    EBANDS =      -303.57139688
  atomic energy  EATOM  =       432.48788473
  ---------------------------------------------------
  free energy    TOTEN  =        66.98792164 eV

  energy without entropy =       66.98792164  energy(sigma->0) =       66.98792164
  exchange ACFDT corr.  =         0.00000000  see jH, gK, PRB 81, 115126


--------------------------------------------------------------------------------------------------------




----------------------------------------- Iteration    1(  12)  ---------------------------------------


    POTLOK:  cpu time   16.1337: real time   16.1780
    SETDIJ:  cpu time    0.1816: real time    0.1821
    TRIAL :  cpu time    6.8368: real time    6.8799
    CORREC:  cpu time   23.4565: real time   23.5480
    CHARGE:  cpu time    1.6222: real time    1.6297
    --------------------------------------------
      LOOP:  cpu time   48.2716: real time   48.4609

 eigenvalue-minimisations  :     0
 total energy-change (2. order) :-0.1754497E+02  (-0.1276789E+02)
 number of electron       8.0000000 magnetization 
 augmentation part        0.1796420 magnetization 

 Free energy of the ion-electron system (eV)
  ---------------------------------------------------
  alpha Z        PSCENC =         0.00523035
  Ewald energy   TEWEN  =       151.91321730
  -Hartree energ DENC   =      -327.07911526
  -exchange      EXHF   =        75.97305104
  -V(xc)+E(xc)   XCENC  =         0.00000000
  PAW double counting   =       248.59873467     -247.34550295
  entropy T*S    EENTRO =         0.00000000
  eigenvalues    EBANDS =      -285.11054619
  atomic energy  EATOM  =       432.48788473
  ---------------------------------------------------
  free energy    TOTEN  =        49.44295369 eV

  energy without entropy =       49.44295369  energy(sigma->0) =       49.44295369
  exchange ACFDT corr.  =        -0.00000000  see jH, gK, PRB 81, 115126


--------------------------------------------------------------------------------------------------------




----------------------------------------- Iteration    1(  13)  ---------------------------------------


    POTLOK:  cpu time   16.1384: real time   16.1827
    SETDIJ:  cpu time    0.1809: real time    0.1816
    TRIAL :  cpu time    6.9192: real time    6.9619
    CORREC:  cpu time   23.3926: real time   23.4834
    CHARGE:  cpu time    1.6244: real time    1.6323
    --------------------------------------------
      LOOP:  cpu time   48.2928: real time   48.4814

 eigenvalue-minimisations  :     0
 total energy-change (2. order) :-0.1298171E+02  (-0.9386422E+01)
 number of electron       8.0000000 magnetization 
 augmentation part        0.2175554 magnetization 

 Free energy of the ion-electron system (eV)
  ---------------------------------------------------
  alpha Z        PSCENC =         0.00523035
  Ewald energy   TEWEN  =       151.91321730
  -Hartree energ DENC   =      -353.65810920
  -exchange      EXHF   =        78.12717782
  -V(xc)+E(xc)   XCENC  =         0.00000000
  PAW double counting   =       268.27338050     -267.17451112
  entropy T*S    EENTRO =        -0.00000000
  eigenvalues    EBANDS =      -273.51302935
  atomic energy  EATOM  =       432.48788473
  ---------------------------------------------------
  free energy    TOTEN  =        36.46124104 eV

  energy without entropy =       36.46124104  energy(sigma->0) =       36.46124104
  exchange ACFDT corr.  =         0.00000000  see jH, gK, PRB 81, 115126


--------------------------------------------------------------------------------------------------------




----------------------------------------- Iteration    1(  14)  ---------------------------------------


    POTLOK:  cpu time   16.1550: real time   16.1993
    SETDIJ:  cpu time    0.1788: real time    0.1792
    TRIAL :  cpu time    6.8998: real time    6.9435
    CORREC:  cpu time   23.4332: real time   23.5243
    CHARGE:  cpu time    1.6185: real time    1.6260
    --------------------------------------------
      LOOP:  cpu time   48.3229: real time   48.5122

 eigenvalue-minimisations  :     0
 total energy-change (2. order) :-0.1026160E+02  (-0.8835758E+01)
 number of electron       8.0000000 magnetization 
 augmentation part        0.2776530 magnetization 

 Free energy of the ion-electron system (eV)
  ---------------------------------------------------
  alpha Z        PSCENC =         0.00523035
  Ewald energy   TEWEN  =       151.91321730
  -Hartree energ DENC   =      -380.42840866
  -exchange      EXHF   =        80.68646696
  -V(xc)+E(xc)   XCENC  =         0.00000000
  PAW double counting   =       301.47877218     -300.44068540
  entropy T*S    EENTRO =        -0.00000000
  eigenvalues    EBANDS =      -259.50283849
  atomic energy  EATOM  =       432.48788473
  ---------------------------------------------------
  free energy    TOTEN  =        26.19963897 eV

  energy without entropy =       26.19963897  energy(sigma->0) =       26.19963897
  exchange ACFDT corr.  =         0.00000000  see jH, gK, PRB 81, 115126


--------------------------------------------------------------------------------------------------------




----------------------------------------- Iteration    1(  15)  ---------------------------------------


    POTLOK:  cpu time   16.2043: real time   16.2490
    SETDIJ:  cpu time    0.1789: real time    0.1793
    TRIAL :  cpu time    6.9017: real time    6.9441
    CORREC:  cpu time   23.5180: real time   23.6086
    CHARGE:  cpu time    1.6318: real time    1.6398
    --------------------------------------------
      LOOP:  cpu time   48.4752: real time   48.6642

 eigenvalue-minimisations  :     0
 total energy-change (2. order) :-0.9888658E+01  (-0.8279161E+01)
 number of electron       8.0000000 magnetization 
 augmentation part        0.3660296 magnetization 

 Free energy of the ion-electron system (eV)
  ---------------------------------------------------
  alpha Z        PSCENC =         0.00523035
  Ewald energy   TEWEN  =       151.91321730
  -Hartree energ DENC   =      -412.15100970
  -exchange      EXHF   =        84.40937694
  -V(xc)+E(xc)   XCENC  =         0.00000000
  PAW double counting   =       352.60424017     -351.54698951
  entropy T*S    EENTRO =        -0.00000000
  eigenvalues    EBANDS =      -241.41096885
  atomic energy  EATOM  =       432.48788473
  ---------------------------------------------------
  free energy    TOTEN  =        16.31098142 eV

  energy without entropy =       16.31098142  energy(sigma->0) =       16.31098142
  exchange ACFDT corr.  =         0.00000000  see jH, gK, PRB 81, 115126


--------------------------------------------------------------------------------------------------------




----------------------------------------- Iteration    1(  16)  ---------------------------------------


    POTLOK:  cpu time   16.1757: real time   16.2200
    SETDIJ:  cpu time    0.1736: real time    0.1740
    TRIAL :  cpu time    6.8143: real time    6.8571
    CORREC:  cpu time   23.4987: real time   23.5899
    CHARGE:  cpu time    1.6326: real time    1.6402
    --------------------------------------------
      LOOP:  cpu time   48.3345: real time   48.5600

 eigenvalue-minimisations  :     0
 total energy-change (2. order) :-0.9295316E+01  (-0.1061191E+02)
 number of electron       8.0000000 magnetization 
 augmentation part        0.5992820 magnetization 

 Free energy of the ion-electron system (eV)
  ---------------------------------------------------
  alpha Z        PSCENC =         0.00523035
  Ewald energy   TEWEN  =       151.91321730
  -Hartree energ DENC   =      -445.21687098
  -exchange      EXHF   =        89.01240613
  -V(xc)+E(xc)   XCENC  =         0.00000000
  PAW double counting   =       416.57525005     -415.48051092
  entropy T*S    EENTRO =        -0.00000000
  eigenvalues    EBANDS =      -222.28094123
  atomic energy  EATOM  =       432.48788473
  ---------------------------------------------------
  free energy    TOTEN  =         7.01566544 eV

  energy without entropy =        7.01566544  energy(sigma->0) =        7.01566544
  exchange ACFDT corr.  =         0.00000000  see jH, gK, PRB 81, 115126


--------------------------------------------------------------------------------------------------------




----------------------------------------- Iteration    1(  17)  ---------------------------------------


    POTLOK:  cpu time   16.1874: real time   16.2318
    SETDIJ:  cpu time    0.1784: real time    0.1788
    TRIAL :  cpu time    6.8693: real time    6.9131
    CORREC:  cpu time   23.4750: real time   23.5651
    CHARGE:  cpu time    1.6343: real time    1.6421
    --------------------------------------------
      LOOP:  cpu time   48.3830: real time   48.5717

 eigenvalue-minimisations  :     0
 total energy-change (2. order) :-0.1614932E+02  (-0.1225311E+02)
 number of electron       8.0000000 magnetization 
 augmentation part        0.6713122 magnetization 

 Free energy of the ion-electron system (eV)
  ---------------------------------------------------
  alpha Z        PSCENC =         0.00523035
  Ewald energy   TEWEN  =       151.91321730
  -Hartree energ DENC   =      -504.61381962
  -exchange      EXHF   =        97.83619446
  -V(xc)+E(xc)   XCENC  =         0.00000000
  PAW double counting   =       549.89998497     -548.98305875
  entropy T*S    EENTRO =        -0.00000000
  eigenvalues    EBANDS =      -187.67928578
  atomic energy  EATOM  =       432.48788473
  ---------------------------------------------------
  free energy    TOTEN  =        -9.13365234 eV

  energy without entropy =       -9.13365234  energy(sigma->0) =       -9.13365234
  exchange ACFDT corr.  =         0.00000000  see jH, gK, PRB 81, 115126


--------------------------------------------------------------------------------------------------------




----------------------------------------- Iteration    1(  18)  ---------------------------------------


    POTLOK:  cpu time   16.1870: real time   16.2313
    SETDIJ:  cpu time    0.1806: real time    0.1811
    TRIAL :  cpu time    6.8903: real time    6.9335
    CORREC:  cpu time   23.5665: real time   23.6571
    CHARGE:  cpu time    1.6351: real time    1.6430
    --------------------------------------------
      LOOP:  cpu time   48.4952: real time   48.6844

 eigenvalue-minimisations  :     0
 total energy-change (2. order) :-0.1266626E+02  (-0.4092512E+01)
 number of electron       8.0000000 magnetization 
 augmentation part        0.7089682 magnetization 

 Free energy of the ion-electron system (eV)
  ---------------------------------------------------
  alpha Z        PSCENC =         0.00523035
  Ewald energy   TEWEN  =       151.91321730
  -Hartree energ DENC   =      -524.97885205
  -exchange      EXHF   =       100.65449250
  -V(xc)+E(xc)   XCENC  =         0.00000000
  PAW double counting   =       596.63368497     -595.75636398
  entropy T*S    EENTRO =        -0.00000000
  eigenvalues    EBANDS =      -182.75920376
  atomic energy  EATOM  =       432.48788473
  ---------------------------------------------------
  free energy    TOTEN  =       -21.79990993 eV

  energy without entropy =      -21.79990993  energy(sigma->0) =      -21.79990993
  exchange ACFDT corr.  =         0.00000000  see jH, gK, PRB 81, 115126


--------------------------------------------------------------------------------------------------------




----------------------------------------- Iteration    1(  19)  ---------------------------------------


    POTLOK:  cpu time   16.2000: real time   16.2445
    SETDIJ:  cpu time    0.1762: real time    0.1766
    TRIAL :  cpu time    6.9714: real time    7.0154
    CORREC:  cpu time   23.5367: real time   23.6271
    CHARGE:  cpu time    1.6333: real time    1.6410
    --------------------------------------------
      LOOP:  cpu time   48.5555: real time   48.7449

 eigenvalue-minimisations  :     0
 total energy-change (2. order) :-0.4375116E+01  (-0.1690682E+01)
 number of electron       8.0000000 magnetization 
 augmentation part        0.7112695 magnetization 

 Free energy of the ion-electron system (eV)
  ---------------------------------------------------
  alpha Z        PSCENC =         0.00523035
  Ewald energy   TEWEN  =       151.91321730
  -Hartree energ DENC   =      -545.46449270
  -exchange      EXHF   =       104.39845788
  -V(xc)+E(xc)   XCENC  =         0.00000000
  PAW double counting   =       636.81692599     -635.90028719
  entropy T*S    EENTRO =        -0.00000000
  eigenvalues    EBANDS =      -170.43196274
  atomic energy  EATOM  =       432.48788473
  ---------------------------------------------------
  free energy    TOTEN  =       -26.17502638 eV

  energy without entropy =      -26.17502638  energy(sigma->0) =      -26.17502638
  exchange ACFDT corr.  =         0.00000000  see jH, gK, PRB 81, 115126


--------------------------------------------------------------------------------------------------------




----------------------------------------- Iteration    1(  20)  ---------------------------------------


    POTLOK:  cpu time   16.1922: real time   16.2366
    SETDIJ:  cpu time    0.1797: real time    0.1801
    TRIAL :  cpu time    6.9150: real time    6.9592
    CORREC:  cpu time   23.5033: real time   23.5940
    CHARGE:  cpu time    1.6344: real time    1.6424
    --------------------------------------------
      LOOP:  cpu time   48.4633: real time   48.6533

 eigenvalue-minimisations  :     0
 total energy-change (2. order) :-0.1817600E+01  (-0.6797487E+00)
 number of electron       8.0000000 magnetization 
 augmentation part        0.6915868 magnetization 

 Free energy of the ion-electron system (eV)
  ---------------------------------------------------
  alpha Z        PSCENC =         0.00523035
  Ewald energy   TEWEN  =       151.91321730
  -Hartree energ DENC   =      -550.52806084
  -exchange      EXHF   =       105.63253343
  -V(xc)+E(xc)   XCENC  =         0.00000000
  PAW double counting   =       647.94362406     -647.01678543
  entropy T*S    EENTRO =        -0.00000000
  eigenvalues    EBANDS =      -168.43027043
  atomic energy  EATOM  =       432.48788473
  ---------------------------------------------------
  free energy    TOTEN  =       -27.99262682 eV

  energy without entropy =      -27.99262682  energy(sigma->0) =      -27.99262682
  exchange ACFDT corr.  =         0.00000000  see jH, gK, PRB 81, 115126


--------------------------------------------------------------------------------------------------------




----------------------------------------- Iteration    1(  21)  ---------------------------------------


    POTLOK:  cpu time   16.1912: real time   16.2356
    SETDIJ:  cpu time    0.1786: real time    0.1791
    TRIAL :  cpu time    6.9163: real time    6.9589
    CORREC:  cpu time   23.5300: real time   23.6210
    CHARGE:  cpu time    1.6304: real time    1.6383
    --------------------------------------------
      LOOP:  cpu time   48.4840: real time   48.6730

 eigenvalue-minimisations  :     0
 total energy-change (2. order) :-0.7340663E+00  (-0.2531096E+00)
 number of electron       8.0000000 magnetization 
 augmentation part        0.6853195 magnetization 

 Free energy of the ion-electron system (eV)
  ---------------------------------------------------
  alpha Z        PSCENC =         0.00523035
  Ewald energy   TEWEN  =       151.91321730
  -Hartree energ DENC   =      -547.70480323
  -exchange      EXHF   =       105.41857930
  -V(xc)+E(xc)   XCENC  =         0.00000000
  PAW double counting   =       642.28300274     -641.33196072
  entropy T*S    EENTRO =        -0.00000000
  eigenvalues    EBANDS =      -171.79784362
  atomic energy  EATOM  =       432.48788473
  ---------------------------------------------------
  free energy    TOTEN  =       -28.72669314 eV

  energy without entropy =      -28.72669314  energy(sigma->0) =      -28.72669314
  exchange ACFDT corr.  =         0.00000000  see jH, gK, PRB 81, 115126


--------------------------------------------------------------------------------------------------------




----------------------------------------- Iteration    1(  22)  ---------------------------------------


    POTLOK:  cpu time   16.2022: real time   16.2466
    SETDIJ:  cpu time    0.1775: real time    0.1779
    TRIAL :  cpu time    6.9037: real time    6.9474
    CORREC:  cpu time   23.4893: real time   23.5801
    CHARGE:  cpu time    1.6315: real time    1.6390
    --------------------------------------------
      LOOP:  cpu time   48.4398: real time   48.6291

 eigenvalue-minimisations  :     0
 total energy-change (2. order) :-0.2717095E+00  (-0.1077302E+00)
 number of electron       8.0000000 magnetization 
 augmentation part        0.6857241 magnetization 

 Free energy of the ion-electron system (eV)
  ---------------------------------------------------
  alpha Z        PSCENC =         0.00523035
  Ewald energy   TEWEN  =       151.91321730
  -Hartree energ DENC   =      -548.14516656
  -exchange      EXHF   =       105.64369281
  -V(xc)+E(xc)   XCENC  =         0.00000000
  PAW double counting   =       639.52696160     -638.55605592
  entropy T*S    EENTRO =        -0.00000000
  eigenvalues    EBANDS =      -171.87416692
  atomic energy  EATOM  =       432.48788473
  ---------------------------------------------------
  free energy    TOTEN  =       -28.99840260 eV

  energy without entropy =      -28.99840260  energy(sigma->0) =      -28.99840260
  exchange ACFDT corr.  =         0.00000000  see jH, gK, PRB 81, 115126


--------------------------------------------------------------------------------------------------------




----------------------------------------- Iteration    1(  23)  ---------------------------------------


    POTLOK:  cpu time   16.2220: real time   16.2668
    SETDIJ:  cpu time    0.1801: real time    0.1805
    TRIAL :  cpu time    6.8338: real time    6.8777
    CORREC:  cpu time   23.5133: real time   23.6043
    CHARGE:  cpu time    1.6403: real time    1.6482
    --------------------------------------------
      LOOP:  cpu time   48.4300: real time   48.6206

 eigenvalue-minimisations  :     0
 total energy-change (2. order) :-0.1157957E+00  (-0.4797545E-01)
 number of electron       8.0000000 magnetization 
 augmentation part        0.6888730 magnetization 

 Free energy of the ion-electron system (eV)
  ---------------------------------------------------
  alpha Z        PSCENC =         0.00523035
  Ewald energy   TEWEN  =       151.91321730
  -Hartree energ DENC   =      -547.96529695
  -exchange      EXHF   =       105.63331905
  -V(xc)+E(xc)   XCENC  =         0.00000000
  PAW double counting   =       634.97323336     -634.00242407
  entropy T*S    EENTRO =        -0.00000000
  eigenvalues    EBANDS =      -172.15936206
  atomic energy  EATOM  =       432.48788473
  ---------------------------------------------------
  free energy    TOTEN  =       -29.11419829 eV

  energy without entropy =      -29.11419829  energy(sigma->0) =      -29.11419829
  exchange ACFDT corr.  =         0.00000000  see jH, gK, PRB 81, 115126


--------------------------------------------------------------------------------------------------------




----------------------------------------- Iteration    1(  24)  ---------------------------------------


    POTLOK:  cpu time   16.1854: real time   16.2298
    SETDIJ:  cpu time    0.1748: real time    0.1753
    TRIAL :  cpu time    6.8932: real time    6.9367
    CORREC:  cpu time   23.5035: real time   23.5946
    CHARGE:  cpu time    1.6339: real time    1.6421
    --------------------------------------------
      LOOP:  cpu time   48.4332: real time   48.6231

 eigenvalue-minimisations  :     0
 total energy-change (2. order) :-0.5062920E-01  (-0.1536944E-01)
 number of electron       8.0000000 magnetization 
 augmentation part        0.6878377 magnetization 

 Free energy of the ion-electron system (eV)
  ---------------------------------------------------
  alpha Z        PSCENC =         0.00523035
  Ewald energy   TEWEN  =       151.91321730
  -Hartree energ DENC   =      -548.60704023
  -exchange      EXHF   =       105.73470184
  -V(xc)+E(xc)   XCENC  =         0.00000000
  PAW double counting   =       633.89508108     -632.92863912
  entropy T*S    EENTRO =        -0.00000000
  eigenvalues    EBANDS =      -171.66526344
  atomic energy  EATOM  =       432.48788473
  ---------------------------------------------------
  free energy    TOTEN  =       -29.16482749 eV

  energy without entropy =      -29.16482749  energy(sigma->0) =      -29.16482749
  exchange ACFDT corr.  =         0.00000000  see jH, gK, PRB 81, 115126


--------------------------------------------------------------------------------------------------------




----------------------------------------- Iteration    1(  25)  ---------------------------------------


    POTLOK:  cpu time   16.2183: real time   16.2628
    SETDIJ:  cpu time    0.1768: real time    0.1772
    TRIAL :  cpu time    6.8662: real time    6.9087
    CORREC:  cpu time   23.5005: real time   23.5915
    CHARGE:  cpu time    1.6329: real time    1.6404
    --------------------------------------------
      LOOP:  cpu time   48.4326: real time   48.6213

 eigenvalue-minimisations  :     0
 total energy-change (2. order) :-0.1565936E-01  (-0.6014585E-02)
 number of electron       8.0000000 magnetization 
 augmentation part        0.6863795 magnetization 

 Free energy of the ion-electron system (eV)
  ---------------------------------------------------
  alpha Z        PSCENC =         0.00523035
  Ewald energy   TEWEN  =       151.91321730
  -Hartree energ DENC   =      -548.02705862
  -exchange      EXHF   =       105.61628768
  -V(xc)+E(xc)   XCENC  =         0.00000000
  PAW double counting   =       632.62752758     -631.66298646
  entropy T*S    EENTRO =        -0.00000000
  eigenvalues    EBANDS =      -172.14058942
  atomic energy  EATOM  =       432.48788473
  ---------------------------------------------------
  free energy    TOTEN  =       -29.18048685 eV

  energy without entropy =      -29.18048685  energy(sigma->0) =      -29.18048685
  exchange ACFDT corr.  =         0.00000000  see jH, gK, PRB 81, 115126


--------------------------------------------------------------------------------------------------------




----------------------------------------- Iteration    1(  26)  ---------------------------------------


    POTLOK:  cpu time   16.1925: real time   16.2372
    SETDIJ:  cpu time    0.1747: real time    0.1751
    TRIAL :  cpu time    6.9157: real time    6.9586
    CORREC:  cpu time   23.4826: real time   23.5734
    CHARGE:  cpu time    1.6278: real time    1.6355
    --------------------------------------------
      LOOP:  cpu time   48.4338: real time   48.6229

 eigenvalue-minimisations  :     0
 total energy-change (2. order) :-0.6052736E-02  (-0.1801652E-02)
 number of electron       8.0000000 magnetization 
 augmentation part        0.6856481 magnetization 

 Free energy of the ion-electron system (eV)
  ---------------------------------------------------
  alpha Z        PSCENC =         0.00523035
  Ewald energy   TEWEN  =       151.91321730
  -Hartree energ DENC   =      -548.01561626
  -exchange      EXHF   =       105.60824226
  -V(xc)+E(xc)   XCENC  =         0.00000000
  PAW double counting   =       632.83133228     -631.86003333
  entropy T*S    EENTRO =        -0.00000000
  eigenvalues    EBANDS =      -172.15679691
  atomic energy  EATOM  =       432.48788473
  ---------------------------------------------------
  free energy    TOTEN  =       -29.18653959 eV

  energy without entropy =      -29.18653959  energy(sigma->0) =      -29.18653959
  exchange ACFDT corr.  =         0.00000000  see jH, gK, PRB 81, 115126


--------------------------------------------------------------------------------------------------------




----------------------------------------- Iteration    1(  27)  ---------------------------------------


    POTLOK:  cpu time   16.2762: real time   16.3208
    SETDIJ:  cpu time    0.1821: real time    0.1826
    TRIAL :  cpu time    6.8557: real time    6.8999
    CORREC:  cpu time   23.6430: real time   23.7351
    CHARGE:  cpu time    1.6386: real time    1.6464
    --------------------------------------------
      LOOP:  cpu time   48.6347: real time   48.8267

 eigenvalue-minimisations  :     0
 total energy-change (2. order) :-0.1792320E-02  (-0.6090702E-03)
 number of electron       8.0000000 magnetization 
 augmentation part        0.6850135 magnetization 

 Free energy of the ion-electron system (eV)
  ---------------------------------------------------
  alpha Z        PSCENC =         0.00523035
  Ewald energy   TEWEN  =       151.91321730
  -Hartree energ DENC   =      -548.19955696
  -exchange      EXHF   =       105.64020586
  -V(xc)+E(xc)   XCENC  =         0.00000000
  PAW double counting   =       633.49220234     -632.51512632
  entropy T*S    EENTRO =        -0.00000000
  eigenvalues    EBANDS =      -172.01238922
  atomic energy  EATOM  =       432.48788473
  ---------------------------------------------------
  free energy    TOTEN  =       -29.18833191 eV

  energy without entropy =      -29.18833191  energy(sigma->0) =      -29.18833191
  exchange ACFDT corr.  =         0.00000000  see jH, gK, PRB 81, 115126


--------------------------------------------------------------------------------------------------------




----------------------------------------- Iteration    1(  28)  ---------------------------------------


    POTLOK:  cpu time   16.2640: real time   16.3086
    SETDIJ:  cpu time    0.1795: real time    0.1800
    TRIAL :  cpu time    6.9036: real time    6.9469
    CORREC:  cpu time   23.5961: real time   23.6875
    CHARGE:  cpu time    1.6404: real time    1.6485
    --------------------------------------------
      LOOP:  cpu time   48.6223: real time   48.8125

 eigenvalue-minimisations  :     0
 total energy-change (2. order) :-0.6072305E-03  (-0.2475131E-03)
 number of electron       8.0000000 magnetization 
 augmentation part        0.6849969 magnetization 

 Free energy of the ion-electron system (eV)
  ---------------------------------------------------
  alpha Z        PSCENC =         0.00523035
  Ewald energy   TEWEN  =       151.91321730
  -Hartree energ DENC   =      -548.12076766
  -exchange      EXHF   =       105.62539034
  -V(xc)+E(xc)   XCENC  =         0.00000000
  PAW double counting   =       633.60390596     -632.62457447
  entropy T*S    EENTRO =        -0.00000000
  eigenvalues    EBANDS =      -172.07922569
  atomic energy  EATOM  =       432.48788473
  ---------------------------------------------------
  free energy    TOTEN  =       -29.18893914 eV

  energy without entropy =      -29.18893914  energy(sigma->0) =      -29.18893914
  exchange ACFDT corr.  =         0.00000000  see jH, gK, PRB 81, 115126


--------------------------------------------------------------------------------------------------------




----------------------------------------- Iteration    1(  29)  ---------------------------------------


    POTLOK:  cpu time   16.2930: real time   16.3377
    SETDIJ:  cpu time    0.1793: real time    0.1798
    TRIAL :  cpu time    6.9816: real time    7.0254
    CORREC:  cpu time   23.6805: real time   23.7713
    CHARGE:  cpu time    1.6464: real time    1.6545
    --------------------------------------------
      LOOP:  cpu time   48.8164: real time   49.0064

 eigenvalue-minimisations  :     0
 total energy-change (2. order) :-0.2464963E-03  (-0.9302454E-04)
 number of electron       8.0000000 magnetization 
 augmentation part        0.6850522 magnetization 

 Free energy of the ion-electron system (eV)
  ---------------------------------------------------
  alpha Z        PSCENC =         0.00523035
  Ewald energy   TEWEN  =       151.91321730
  -Hartree energ DENC   =      -548.14793835
  -exchange      EXHF   =       105.63041167
  -V(xc)+E(xc)   XCENC  =         0.00000000
  PAW double counting   =       633.77138577     -632.79144092
  entropy T*S    EENTRO =        -0.00000000
  eigenvalues    EBANDS =      -172.05793619
  atomic energy  EATOM  =       432.48788473
  ---------------------------------------------------
  free energy    TOTEN  =       -29.18918563 eV

  energy without entropy =      -29.18918563  energy(sigma->0) =      -29.18918563
  exchange ACFDT corr.  =        -0.00000000  see jH, gK, PRB 81, 115126


--------------------------------------------------------------------------------------------------------




----------------------------------------- Iteration    1(  30)  ---------------------------------------


    POTLOK:  cpu time   16.2641: real time   16.3087
    SETDIJ:  cpu time    0.1813: real time    0.1818
    TRIAL :  cpu time    6.9357: real time    6.9793
    CORREC:  cpu time   23.5377: real time   23.6285
    CHARGE:  cpu time    1.6475: real time    1.6552
    --------------------------------------------
      LOOP:  cpu time   48.6047: real time   48.7948

 eigenvalue-minimisations  :     0
 total energy-change (2. order) :-0.9297557E-04  (-0.3569461E-04)
 number of electron       8.0000000 magnetization 
 augmentation part        0.6850017 magnetization 

 Free energy of the ion-electron system (eV)
  ---------------------------------------------------
  alpha Z        PSCENC =         0.00523035
  Ewald energy   TEWEN  =       151.91321730
  -Hartree energ DENC   =      -548.18174072
  -exchange      EXHF   =       105.63672053
  -V(xc)+E(xc)   XCENC  =         0.00000000
  PAW double counting   =       633.84229031     -632.86221961
  entropy T*S    EENTRO =        -0.00000000
  eigenvalues    EBANDS =      -172.03066151
  atomic energy  EATOM  =       432.48788473
  ---------------------------------------------------
  free energy    TOTEN  =       -29.18927861 eV

  energy without entropy =      -29.18927861  energy(sigma->0) =      -29.18927861
  exchange ACFDT corr.  =         0.00000000  see jH, gK, PRB 81, 115126


--------------------------------------------------------------------------------------------------------




----------------------------------------- Iteration    1(  31)  ---------------------------------------


    POTLOK:  cpu time   16.2051: real time   16.2498
    SETDIJ:  cpu time    0.1768: real time    0.1772
    TRIAL :  cpu time    6.9519: real time    6.9950
    CORREC:  cpu time   23.4533: real time   23.5432
    CHARGE:  cpu time    1.6431: real time    1.6511
    --------------------------------------------
      LOOP:  cpu time   48.4702: real time   48.6590

 eigenvalue-minimisations  :     0
 total energy-change (2. order) :-0.3569167E-04  (-0.1430475E-04)
 number of electron       8.0000000 magnetization 
 augmentation part        0.6850409 magnetization 

 Free energy of the ion-electron system (eV)
  ---------------------------------------------------
  alpha Z        PSCENC =         0.00523035
  Ewald energy   TEWEN  =       151.91321730
  -Hartree energ DENC   =      -548.16147343
  -exchange      EXHF   =       105.63313153
  -V(xc)+E(xc)   XCENC  =         0.00000000
  PAW double counting   =       633.76763533     -632.78765613
  entropy T*S    EENTRO =        -0.00000000
  eigenvalues    EBANDS =      -172.04728399
  atomic energy  EATOM  =       432.48788473
  ---------------------------------------------------
  free energy    TOTEN  =       -29.18931430 eV

  energy without entropy =      -29.18931430  energy(sigma->0) =      -29.18931430
  exchange ACFDT corr.  =         0.00000000  see jH, gK, PRB 81, 115126


--------------------------------------------------------------------------------------------------------




----------------------------------------- Iteration    1(  32)  ---------------------------------------


    POTLOK:  cpu time   16.1560: real time   16.2003
    SETDIJ:  cpu time    0.1770: real time    0.1774
    TRIAL :  cpu time    6.9063: real time    6.9494
    CORREC:  cpu time   23.2308: real time   23.3208
    CHARGE:  cpu time    1.6427: real time    1.6505
    --------------------------------------------
      LOOP:  cpu time   48.1520: real time   48.3406

 eigenvalue-minimisations  :     0
 total energy-change (2. order) :-0.1431290E-04  (-0.5870198E-05)
 number of electron       8.0000000 magnetization 
 augmentation part        0.6850992 magnetization 

 Free energy of the ion-electron system (eV)
  ---------------------------------------------------
  alpha Z        PSCENC =         0.00523035
  Ewald energy   TEWEN  =       151.91321730
  -Hartree energ DENC   =      -548.16532150
  -exchange      EXHF   =       105.63394126
  -V(xc)+E(xc)   XCENC  =         0.00000000
  PAW double counting   =       633.73882088     -632.75901795
  entropy T*S    EENTRO =        -0.00000000
  eigenvalues    EBANDS =      -172.04408368
  atomic energy  EATOM  =       432.48788473
  ---------------------------------------------------
  free energy    TOTEN  =       -29.18932861 eV

  energy without entropy =      -29.18932861  energy(sigma->0) =      -29.18932861
  exchange ACFDT corr.  =         0.00000000  see jH, gK, PRB 81, 115126


--------------------------------------------------------------------------------------------------------




----------------------------------------- Iteration    1(  33)  ---------------------------------------


    POTLOK:  cpu time   15.8857: real time   15.9293
    SETDIJ:  cpu time    0.1783: real time    0.1788
    TRIAL :  cpu time    6.9488: real time    6.9936
    CORREC:  cpu time   23.0151: real time   23.1056
    CHARGE:  cpu time    1.6355: real time    1.6431
    --------------------------------------------
      LOOP:  cpu time   47.7001: real time   47.8896

 eigenvalue-minimisations  :     0
 total energy-change (2. order) :-0.5874690E-05  (-0.2933873E-05)
 number of electron       8.0000000 magnetization 
 augmentation part        0.6851250 magnetization 

 Free energy of the ion-electron system (eV)
  ---------------------------------------------------
  alpha Z        PSCENC =         0.00523035
  Ewald energy   TEWEN  =       151.91321730
  -Hartree energ DENC   =      -548.17320115
  -exchange      EXHF   =       105.63543354
  -V(xc)+E(xc)   XCENC  =         0.00000000
  PAW double counting   =       633.73242190     -632.75280702
  entropy T*S    EENTRO =        -0.00000000
  eigenvalues    EBANDS =      -172.03751415
  atomic energy  EATOM  =       432.48788473
  ---------------------------------------------------
  free energy    TOTEN  =       -29.18933449 eV

  energy without entropy =      -29.18933449  energy(sigma->0) =      -29.18933449
  exchange ACFDT corr.  =         0.00000000  see jH, gK, PRB 81, 115126


--------------------------------------------------------------------------------------------------------




----------------------------------------- Iteration    1(  34)  ---------------------------------------


    POTLOK:  cpu time   15.7051: real time   15.7483
    SETDIJ:  cpu time    0.1774: real time    0.1778
    TRIAL :  cpu time    6.9085: real time    6.9524
    CORREC:  cpu time   22.8707: real time   22.9600
    CHARGE:  cpu time    1.6384: real time    1.6464
    --------------------------------------------
      LOOP:  cpu time   47.3390: real time   47.5265

 eigenvalue-minimisations  :     0
 total energy-change (2. order) :-0.2930930E-05  (-0.1414308E-05)
 number of electron       8.0000000 magnetization 
 augmentation part        0.6851396 magnetization 

 Free energy of the ion-electron system (eV)
  ---------------------------------------------------
  alpha Z        PSCENC =         0.00523035
  Ewald energy   TEWEN  =       151.91321730
  -Hartree energ DENC   =      -548.17214751
  -exchange      EXHF   =       105.63525663
  -V(xc)+E(xc)   XCENC  =         0.00000000
  PAW double counting   =       633.72055483     -632.74107246
  entropy T*S    EENTRO =        -0.00000000
  eigenvalues    EBANDS =      -172.03826130
  atomic energy  EATOM  =       432.48788473
  ---------------------------------------------------
  free energy    TOTEN  =       -29.18933742 eV

  energy without entropy =      -29.18933742  energy(sigma->0) =      -29.18933742
  exchange ACFDT corr.  =         0.00000000  see jH, gK, PRB 81, 115126


--------------------------------------------------------------------------------------------------------




----------------------------------------- Iteration    1(  35)  ---------------------------------------


    POTLOK:  cpu time   15.5848: real time   15.6275
    SETDIJ:  cpu time    0.1788: real time    0.1795
    TRIAL :  cpu time    6.9246: real time    6.9678
    CORREC:  cpu time   22.7579: real time   22.8471
    CHARGE:  cpu time    1.6473: real time    1.6552
    --------------------------------------------
      LOOP:  cpu time   47.1318: real time   47.3183

 eigenvalue-minimisations  :     0
 total energy-change (2. order) :-0.1414199E-05  (-0.7059469E-06)
 number of electron       8.0000000 magnetization 
 augmentation part        0.6851568 magnetization 

 Free energy of the ion-electron system (eV)
  ---------------------------------------------------
  alpha Z        PSCENC =         0.00523035
  Ewald energy   TEWEN  =       151.91321730
  -Hartree energ DENC   =      -548.16956387
  -exchange      EXHF   =       105.63475507
  -V(xc)+E(xc)   XCENC  =         0.00000000
  PAW double counting   =       633.71477249     -632.73538208
  entropy T*S    EENTRO =        -0.00000000
  eigenvalues    EBANDS =      -172.04025283
  atomic energy  EATOM  =       432.48788473
  ---------------------------------------------------
  free energy    TOTEN  =       -29.18933883 eV

  energy without entropy =      -29.18933883  energy(sigma->0) =      -29.18933883
  exchange ACFDT corr.  =         0.00000000  see jH, gK, PRB 81, 115126


--------------------------------------------------------------------------------------------------------




----------------------------------------- Iteration    1(  36)  ---------------------------------------


    POTLOK:  cpu time   15.4361: real time   15.4787
    SETDIJ:  cpu time    0.1841: real time    0.1846
    TRIAL :  cpu time    6.8967: real time    6.9405
    CORREC:  cpu time   22.8421: real time   22.9306
    CHARGE:  cpu time    1.6426: real time    1.6500
    --------------------------------------------
      LOOP:  cpu time   47.0359: real time   47.2211

 eigenvalue-minimisations  :     0
 total energy-change (2. order) :-0.7052454E-06  (-0.2963464E-06)
 number of electron       8.0000000 magnetization 
 augmentation part        0.6851648 magnetization 

 Free energy of the ion-electron system (eV)
  ---------------------------------------------------
  alpha Z        PSCENC =         0.00523035
  Ewald energy   TEWEN  =       151.91321730
  -Hartree energ DENC   =      -548.17157238
  -exchange      EXHF   =       105.63506460
  -V(xc)+E(xc)   XCENC  =         0.00000000
  PAW double counting   =       633.72207747     -632.74274214
  entropy T*S    EENTRO =        -0.00000000
  eigenvalues    EBANDS =      -172.03849947
  atomic energy  EATOM  =       432.48788473
  ---------------------------------------------------
  free energy    TOTEN  =       -29.18933954 eV

  energy without entropy =      -29.18933954  energy(sigma->0) =      -29.18933954
  exchange ACFDT corr.  =        -0.00000000  see jH, gK, PRB 81, 115126


--------------------------------------------------------------------------------------------------------




----------------------------------------- Iteration    1(  37)  ---------------------------------------


    POTLOK:  cpu time   15.3688: real time   15.4112
    SETDIJ:  cpu time    0.1770: real time    0.1774
    TRIAL :  cpu time    6.9216: real time    6.9651
    CORREC:  cpu time   22.7129: real time   22.8018
    CHARGE:  cpu time    1.6438: real time    1.6514
    --------------------------------------------
      LOOP:  cpu time   46.8630: real time   47.0486

 eigenvalue-minimisations  :     0
 total energy-change (2. order) :-0.2963689E-06  (-0.1050612E-06)
 number of electron       8.0000000 magnetization 
 augmentation part        0.6851664 magnetization 

 Free energy of the ion-electron system (eV)
  ---------------------------------------------------
  alpha Z        PSCENC =         0.00523035
  Ewald energy   TEWEN  =       151.91321730
  -Hartree energ DENC   =      -548.17235456
  -exchange      EXHF   =       105.63513704
  -V(xc)+E(xc)   XCENC  =         0.00000000
  PAW double counting   =       633.72836638     -632.74905822
  entropy T*S    EENTRO =        -0.00000000
  eigenvalues    EBANDS =      -172.03776286
  atomic energy  EATOM  =       432.48788473
  ---------------------------------------------------
  free energy    TOTEN  =       -29.18933984 eV

  energy without entropy =      -29.18933984  energy(sigma->0) =      -29.18933984
  exchange ACFDT corr.  =        -0.00000000  see jH, gK, PRB 81, 115126


--------------------------------------------------------------------------------------------------------




----------------------------------------- Iteration    1(  38)  ---------------------------------------


    POTLOK:  cpu time   15.3276: real time   15.3699
    SETDIJ:  cpu time    0.1804: real time    0.1809
    TRIAL :  cpu time    6.9361: real time    6.9797
    CORREC:  cpu time   22.7004: real time   22.7894
    CHARGE:  cpu time    1.6528: real time    1.6605
    --------------------------------------------
      LOOP:  cpu time   46.8371: real time   47.0228

 eigenvalue-minimisations  :     0
 total energy-change (2. order) :-0.1050461E-06  (-0.4047934E-07)
 number of electron       8.0000000 magnetization 
 augmentation part        0.6851674 magnetization 

 Free energy of the ion-electron system (eV)
  ---------------------------------------------------
  alpha Z        PSCENC =         0.00523035
  Ewald energy   TEWEN  =       151.91321730
  -Hartree energ DENC   =      -548.17133935
  -exchange      EXHF   =       105.63489074
  -V(xc)+E(xc)   XCENC  =         0.00000000
  PAW double counting   =       633.73042416     -632.75113427
  entropy T*S    EENTRO =        -0.00000000
  eigenvalues    EBANDS =      -172.03851361
  atomic energy  EATOM  =       432.48788473
  ---------------------------------------------------
  free energy    TOTEN  =       -29.18933994 eV

  energy without entropy =      -29.18933994  energy(sigma->0) =      -29.18933994
  exchange ACFDT corr.  =        -0.00000000  see jH, gK, PRB 81, 115126


--------------------------------------------------------------------------------------------------------




----------------------------------------- Iteration    1(  39)  ---------------------------------------


    POTLOK:  cpu time   15.2803: real time   15.3224
    SETDIJ:  cpu time    0.1817: real time    0.1822
    TRIAL :  cpu time    6.9421: real time    6.9856
    CORREC:  cpu time   22.6883: real time   22.7772
    CHARGE:  cpu time    1.6398: real time    1.6476
    --------------------------------------------
      LOOP:  cpu time   46.7671: real time   46.9526

 eigenvalue-minimisations  :     0
 total energy-change (2. order) :-0.4046575E-07  (-0.1862126E-07)
 number of electron       8.0000000 magnetization 
 augmentation part        0.6851681 magnetization 

 Free energy of the ion-electron system (eV)
  ---------------------------------------------------
  alpha Z        PSCENC =         0.00523035
  Ewald energy   TEWEN  =       151.91321730
  -Hartree energ DENC   =      -548.17153949
  -exchange      EXHF   =       105.63489008
  -V(xc)+E(xc)   XCENC  =         0.00000000
  PAW double counting   =       633.73306313     -632.75377667
  entropy T*S    EENTRO =        -0.00000000
  eigenvalues    EBANDS =      -172.03830941
  atomic energy  EATOM  =       432.48788473
  ---------------------------------------------------
  free energy    TOTEN  =       -29.18933998 eV

  energy without entropy =      -29.18933998  energy(sigma->0) =      -29.18933998
  exchange ACFDT corr.  =        -0.00000000  see jH, gK, PRB 81, 115126


--------------------------------------------------------------------------------------------------------


  average scaling for gradient   1.7417


 average (electrostatic) potential at core
  the test charge radii are     0.7215  0.5201
  (the norm of the test charge is              1.0000)
       1 -53.3015       2 -26.1627       3 -26.1520
 
 
 
 E-fermi : -13.8121     XC(G=0):   0.0000     alpha+bet : -0.0030


 k-point     1 :       0.0000    0.0000    0.0000
  band No.  band energies     occupation 
      1     -36.8423      2.00000
      2     -19.4037      2.00000
      3     -15.8760      2.00000
      4     -13.8971      2.00000
      5       0.0112      0.00000
      6       0.1164      0.00000
      7       0.1233      0.00000
      8       0.1323      0.00000


--------------------------------------------------------------------------------------------------------


 soft charge-density along one line, spin component           1
         0         1         2         3         4         5         6         7         8         9
 total charge-density along one line
 
 pseudopotential strength for first ion, spin component:           1
  9.367 -11.184  -0.144   0.004  -0.090   0.180  -0.005   0.113
-11.184  13.347   0.185  -0.005   0.116  -0.233   0.006  -0.146
 -0.144   0.185  -5.513   0.006   0.065   6.029  -0.008  -0.088
  0.004  -0.005   0.006  -5.258  -0.001  -0.008   5.687   0.001
 -0.090   0.116   0.065  -0.001  -5.575  -0.088   0.001   6.113
  0.180  -0.233   6.029  -0.008  -0.088  -6.234   0.011   0.118
 -0.005   0.006  -0.008   5.687   0.001   0.011  -5.774  -0.002
  0.113  -0.146  -0.088   0.001   6.113   0.118  -0.002  -6.347
 total augmentation occupancy for first ion, spin component:           1
  3.056   0.616   0.458  -0.012   0.283   0.201  -0.005   0.125
  0.616   0.185   0.422  -0.011   0.264   0.096  -0.002   0.060
  0.458   0.422   2.607  -0.007  -0.061   0.503  -0.007  -0.073
 -0.012  -0.011  -0.007   2.333   0.001  -0.007   0.216   0.001
  0.283   0.264  -0.061   0.001   2.652  -0.073   0.001   0.569
  0.201   0.096   0.503  -0.007  -0.073   0.103  -0.002  -0.024
 -0.005  -0.002  -0.007   0.216   0.001  -0.002   0.020   0.000
  0.125   0.060  -0.073   0.001   0.569  -0.024   0.000   0.125


------------------------ aborting loop because EDIFF is reached ----------------------------------------


    FORLOC:  cpu time    0.8308: real time    0.8332
    FORHF :  cpu time    3.5672: real time    3.5791
    FORNL :  cpu time    0.0925: real time    0.0927
    FORCOR:  cpu time   13.9977: real time   14.0361
    OFIELD:  cpu time    0.0460: real time    0.0461

 VOLUME and BASIS-vectors are now :
 -----------------------------------------------------------------------------
  energy-cutoff  :     1600.00
  volume of cell :    42875.00
      direct lattice vectors                 reciprocal lattice vectors
    35.000000000  0.000000000  0.000000000     0.028571429  0.000000000  0.000000000
     0.000000000 35.000000000  0.000000000     0.000000000  0.028571429  0.000000000
     0.000000000  0.000000000 35.000000000     0.000000000  0.000000000  0.028571429

  length of vectors
    35.000000000 35.000000000 35.000000000     0.028571429  0.028571429  0.028571429


 FORCES acting on ions:
    Electron-Ion                     Ewald-Force                    Non-Local-Force
 -----------------------------------------------------------------------------------------------
   0.332E+02 0.535E+02 -.140E+01   -.609E+02 -.981E+02 0.256E+01   0.131E+02 0.209E+02 -.545E+00
   0.335E+02 -.842E+02 0.199E+01   -.368E+02 0.920E+02 -.217E+01   0.268E+01 -.694E+01 0.164E+00
   -.898E+02 -.577E+01 0.358E+00   0.977E+02 0.609E+01 -.385E+00   -.727E+01 -.531E+00 0.306E-01
 -----------------------------------------------------------------------------------------------
   -.231E+02 -.365E+02 0.952E+00   0.000E+00 -.888E-14 0.555E-16   0.854E+01 0.134E+02 -.351E+00
 
 
 POSITION                                       TOTAL-FORCE (eV/Angst)
 -----------------------------------------------------------------------------------
     34.29780     34.94394      0.00994         1.031476      1.089870     -0.029109
     33.97781      0.84678     34.98851         0.030283     -0.757251      0.018472
      0.25752      0.04212      0.00522        -1.061759     -0.332619      0.010637
 -----------------------------------------------------------------------------------
    total drift:                               -0.000411     -0.000689      0.000624


--------------------------------------------------------------------------------------------------------



  FREE ENERGIE OF THE ION-ELECTRON SYSTEM (eV)
  ---------------------------------------------------
  free  energy   TOTEN  =       -29.18933998 eV

  energy  without entropy=      -29.18933998  energy(sigma->0) =      -29.18933998
 


--------------------------------------------------------------------------------------------------------


    POTLOK:  cpu time   15.4595: real time   15.5022


--------------------------------------------------------------------------------------------------------


     LOOP+:  cpu time 2284.4116: real time 2292.7272
    4ORBIT:  cpu time    0.0000: real time    0.0000

 total amount of memory used by VASP on root node  3635492. kBytes
========================================================================

   base      :      30000. kBytes
   nonl-proj :      68538. kBytes
   fftplans  :    1395487. kBytes
   grid      :    2104012. kBytes
   one-center:          1. kBytes
   HF        :          4. kBytes
   nonlr-proj:         67. kBytes
   wavefun   :      37383. kBytes
 
  
  
 General timing and accounting informations for this job:
 ========================================================
  
                  Total CPU time used (sec):     3046.045
                            User time (sec):     2752.924
                          System time (sec):      293.121
                         Elapsed time (sec):     3056.956
  
                   Maximum memory used (kb):     5345176.
                   Average memory used (kb):           0.
  
                          Minor page faults:       693111
                          Major page faults:            5
                 Voluntary context switches:       217485
 
 PROFILE, used timers:      39
 =============================
 
 index                 routine                    time                            calls level
----------------------------------------------------------------------------------------------
    1    total_time                         3056.957169                                1   1
    2      w1_copy                               0.448431                            325   2
    3      fftwav_mpi                           55.478113                            251   2
    4      fftext_mpi                            0.266356                              2   2
    5      overl                                 0.000201                            267   2
    6      orth1                                 0.314389                            152   2
    7      lincom                                0.360065                            205   2
    8      eccp                                  8.659490                            214   2
    9      hamiltmu                              7.258766                             18   2
   10        vhamil                                1.849868                           36   3
   11        overl1                                0.000033                           36   3
   12        kinhamil                              4.655417                           36   3
   13          fftext_mpi                            4.605445                         36   4
   14      fock_acc                            177.136254                             34   2
   15        w1_copy                               0.257239                          105   3
   16        fftwav_mpi                           11.857318                          105   3
   17        fock_charge_mu                        7.451516                           37   3
   18          racc0mu_hf                            0.043464                         37   4
   19        rpromu_hf                             0.189167                           37   3
   20        overl1                                0.000068                           68   3
   21        fftext_mpi                            5.085437                           68   3
   22      hamilt_local                         14.517647                             68   2
   23        vhamil                                3.408960                           68   3
   24        kinhamil                             11.108492                           68   3
   25          fftext_mpi                           11.018266                         68   4
   26      w1_dscal                              1.622811                             68   2
   27      pdssyex_zheevx                        0.384613                             68   2
   28      eddiag                              192.328535                             34   2
   29        fock_acc                            175.357758                           34   3
   30          w1_copy                               0.169890                        104   4
   31          fftwav_mpi                           11.377656                        104   4
   32          fock_charge_mu                        7.310815                         36   4
   33            racc0mu_hf                            0.032148                       36   5
   34          rpromu_hf                             0.192302                         36   4
   35          overl1                                0.000055                         68   4
   36          fftext_mpi                            5.108637                         68   4
   37        fftwav_mpi                           14.211418                           68   3
   38        eccp                                  2.571510                           68   3
   39      rpro1_hf                              0.047160                             32   2
 
 Flat profile
 ============
 
             routine name                   CPU           calls
 ---------------------------------------------------------------
 total_time                           2598.134338           1
 fock_acc                              303.493911          68
 fftwav_mpi                             92.924505         528
 fftext_mpi                             26.084141         242
 fock_charge_mu                         14.686719          73
 eccp                                   11.231000         282
 vhamil                                  5.258828         104
 w1_dscal                                1.622811          68
 w1_copy                                 0.875560         534
 hamiltmu                                0.753448          18
 pdssyex_zheevx                          0.384613          68
 rpromu_hf                               0.381469          73
 lincom                                  0.360065         205
 orth1                                   0.314389         152
 eddiag                                  0.187850          34
 kinhamil                                0.140198         104
 racc0mu_hf                              0.075612          73
 rpro1_hf                                0.047160          32
 overl                                   0.000201         267
 hamilt_local                            0.000195          68
 overl1                                  0.000157         172
 ---------------------------------------------------------------
  summed up times    3056.95716905594     
 
Profiling took   0.005466  0.003802  0.003371  0.003349 seconds
Profiling took   0.001900 seconds
