 vasp.5.4.1 24Jun15 (build Jan 02 2020 16:21:29) gamma-only                     
  
 executed on           IFC15_impi date 2020.04.16  16:41:50
 running on   32 total cores
 distrk:  each k-point on   32 cores,    1 groups
 distr:  one band on NCORES_PER_BAND=   8 cores,    4 groups


--------------------------------------------------------------------------------------------------------


 INCAR:
 POTCAR:    PAW_PBE O 08Apr2002                   
 POTCAR:    PAW_PBE H 15Jun2001                   
 POTCAR:    PAW_PBE O 08Apr2002                   
   VRHFIN =O: s2p4                                                              
   LEXCH  = PE                                                                  
   EATOM  =   432.3788 eV,   31.7789 Ry                                         
                                                                                
   TITEL  = PAW_PBE O 08Apr2002                                                 
   LULTRA =        F    use ultrasoft PP ?                                      
   IUNSCR =        1    unscreen: 0-lin 1-nonlin 2-no                           
   RPACOR =    1.200    partial core radius                                     
   POMASS =   16.000; ZVAL   =    6.000    mass and valenz                      
   RCORE  =    1.520    outmost cutoff radius                                   
   RWIGS  =    1.550; RWIGS  =    0.820    wigner-seitz radius (au A)           
   ENMAX  =  400.000; ENMIN  =  300.000 eV                                      
   ICORE  =        2    local potential                                         
   LCOR   =        T    correct aug charges                                     
   LPAW   =        T    paw PP                                                  
   EAUG   =  605.392                                                            
   DEXC   =    0.000                                                            
   RMAX   =    1.553    core radius for proj-oper                               
   RAUG   =    1.300    factor for augmentation sphere                          
   RDEP   =    1.550    radius for radial grids                                 
   RDEPT  =    1.329    core radius for aug-charge                              
                                                                                
   Atomic configuration                                                         
    4 entries                                                                   
     n  l   j            E        occ.                                          
     1  0  0.50      -514.6923   2.0000                                         
     2  0  0.50       -23.9615   2.0000                                         
     2  1  0.50        -9.0305   4.0000                                         
     3  2  1.50        -9.5241   0.0000                                         
   Description                                                                  
     l       E           TYP  RCUT    TYP  RCUT                                 
     0    -23.9615318     23  1.200                                             
     0     -9.5240782     23  1.200                                             
     1     -9.0304911     23  1.520                                             
     1      8.1634956     23  1.520                                             
     2     -9.5240782      7  1.500                                             
  local pseudopotential read in
  partial core-charges read in
  partial kinetic energy density read in
  kinetic energy density of atom read in
  atomic valenz-charges read in
  non local Contribution for L=           0  read in
    real space projection operators read in
  non local Contribution for L=           0  read in
    real space projection operators read in
  non local Contribution for L=           1  read in
    real space projection operators read in
  non local Contribution for L=           1  read in
    real space projection operators read in
    PAW grid and wavefunctions read in
 
   number of l-projection  operators is LMAX  =           4
   number of lm-projection operators is LMMAX =           8
 
 POTCAR:    PAW_PBE H 15Jun2001                   
   VRHFIN =H: ultrasoft test                                                    
   LEXCH  = PE                                                                  
   EATOM  =    12.4884 eV,    0.9179 Ry                                         
                                                                                
   TITEL  = PAW_PBE H 15Jun2001                                                 
   LULTRA =        F    use ultrasoft PP ?                                      
   IUNSCR =        0    unscreen: 0-lin 1-nonlin 2-no                           
   RPACOR =    0.000    partial core radius                                     
   POMASS =    1.000; ZVAL   =    1.000    mass and valenz                      
   RCORE  =    1.100    outmost cutoff radius                                   
   RWIGS  =    0.700; RWIGS  =    0.370    wigner-seitz radius (au A)           
   ENMAX  =  250.000; ENMIN  =  200.000 eV                                      
   RCLOC  =    0.701    cutoff for local pot                                    
   LCOR   =        T    correct aug charges                                     
   LPAW   =        T    paw PP                                                  
   EAUG   =  400.000                                                            
   RMAX   =    1.123    core radius for proj-oper                               
   RAUG   =    1.200    factor for augmentation sphere                          
   RDEP   =    1.112    radius for radial grids                                 
   RDEPT  =    0.926    core radius for aug-charge                              
                                                                                
   Atomic configuration                                                         
    2 entries                                                                   
     n  l   j            E        occ.                                          
     1  0  0.50        -6.4927   1.0000                                         
     2  1  0.50        -3.4015   0.0000                                         
   Description                                                                  
     l       E           TYP  RCUT    TYP  RCUT                                 
     0     -6.4927494     23  1.100                                             
     0      6.8029130     23  1.100                                             
     1     -4.0817478     23  1.100                                             
  local pseudopotential read in
  atomic valenz-charges read in
  non local Contribution for L=           0  read in
    real space projection operators read in
  non local Contribution for L=           0  read in
    real space projection operators read in
  non local Contribution for L=           1  read in
    real space projection operators read in
    PAW grid and wavefunctions read in
 
   number of l-projection  operators is LMAX  =           3
   number of lm-projection operators is LMMAX =           5
 
  PAW_PBE O 08Apr2002                   :
 energy of atom  1       EATOM= -432.3788
 kinetic energy error for atom=    0.0005 (will be added to EATOM!!)
  PAW_PBE H 15Jun2001                   :
 energy of atom  2       EATOM=  -12.4884
 kinetic energy error for atom=    0.0000 (will be added to EATOM!!)
 
 
 POSCAR: O H                                     
  positions in cartesian coordinates
  No initial velocities read in
 exchange correlation table for  LEXCH =        8
   RHO(1)=    0.500       N(1)  =     2000
   RHO(2)=  100.500       N(2)  =     4000
 


--------------------------------------------------------------------------------------------------------


 ion  position               nearest neighbor table
   1  0.980  0.997  0.999-   2 0.96   3 0.97
   2  0.970  0.022  0.000-   1 0.96
   3  0.008  0.001  1.000-   1 0.97
 
  LATTYP: Found a simple cubic cell.
 ALAT       =    35.0000000000
  
  Lattice vectors:
  
 A1 = (  35.0000000000,   0.0000000000,   0.0000000000)
 A2 = (   0.0000000000,  35.0000000000,   0.0000000000)
 A3 = (   0.0000000000,   0.0000000000,  35.0000000000)


Analysis of symmetry for initial positions (statically):
=====================================================================
 Subroutine PRICEL returns:
 Original cell was already a primitive cell.
 

 Routine SETGRP: Setting up the symmetry group for a 
 simple cubic supercell.


 Subroutine GETGRP returns: Found  1 space group operations
 (whereof  1 operations were pure point group operations)
 out of a pool of 48 trial point group operations.


The static configuration has the point symmetry C_1 .


Analysis of symmetry for dynamics (positions and initial velocities):
=====================================================================
 Subroutine PRICEL returns:
 Original cell was already a primitive cell.
 

 Routine SETGRP: Setting up the symmetry group for a 
 simple cubic supercell.


 Subroutine GETGRP returns: Found  1 space group operations
 (whereof  1 operations were pure point group operations)
 out of a pool of 48 trial point group operations.


The dynamic configuration has the point symmetry C_1 .
 
 
 KPOINTS: automatic mesh                          

Automatic generation of k-mesh.
Space group operators:
 irot       det(A)        alpha          n_x          n_y          n_z        tau_x        tau_y        tau_z
    1     1.000000     0.000000     1.000000     0.000000     0.000000     0.000000     0.000000     0.000000
 
 Subroutine IBZKPT returns following result:
 ===========================================
 
 Found      1 irreducible k-points:
 
 Following reciprocal coordinates:
            Coordinates               Weight
  0.000000  0.000000  0.000000      1.000000
 
 Following cartesian coordinates:
            Coordinates               Weight
  0.000000  0.000000  0.000000      1.000000
 
 
 Subroutine IBZKPT_HF returns following result:
 ==============================================
 
 Found      1 k-points in 1st BZ
 the following      1 k-points will be used (e.g. in the exchange kernel)
 Following reciprocal coordinates:   # in IRBZ
  0.000000  0.000000  0.000000    1.00000000   1 t-inv F


--------------------------------------------------------------------------------------------------------




 Dimension of arrays:
   k-points           NKPTS =      1   k-points in BZ     NKDIM =      1   number of bands    NBANDS=      8
   number of dos      NEDOS =    301   number of ions     NIONS =      3
   non local maximal  LDIM  =      4   non local SUM 2l+1 LMDIM =      8
   total plane-waves  NPLWV = ******
   max r-space proj   IRMAX =      1   max aug-charges    IRDMAX=  33660
   dimension x,y,z NGX =   480 NGY =  480 NGZ =  480
   dimension x,y,z NGXF=   960 NGYF=  960 NGZF=  960
   support grid    NGXF=   960 NGYF=  960 NGZF=  960
   ions per type =               1   2
 NGX,Y,Z   is equivalent  to a cutoff of  22.80, 22.80, 22.80 a.u.
 NGXF,Y,Z  is equivalent  to a cutoff of  45.60, 45.60, 45.60 a.u.


 I would recommend the setting:
   dimension x,y,z NGX =   457 NGY =  457 NGZ =  457
 SYSTEM =  C                                       
 POSCAR =  O H                                     

 Startparameter for this run:
   NWRITE =      2    write-flag & timer
   PREC   = accura    normal or accurate (medium, high low for compatibility)
   ISTART =      0    job   : 0-new  1-cont  2-samecut
   ICHARG =      2    charge: 1-file 2-atom 10-const
   ISPIN  =      1    spin polarized calculation?
   LNONCOLLINEAR =      F non collinear calculations
   LSORBIT =      F    spin-orbit coupling
   INIWAV =      1    electr: 0-lowe 1-rand  2-diag
   LASPH  =      T    aspherical Exc in radial PAW
   METAGGA=      F    non-selfconsistent MetaGGA calc.

 Electronic Relaxation 1
   ENCUT  = 1600.0 eV 117.60 Ry   10.84 a.u. 114.15114.15114.15*2*pi/ulx,y,z
   ENINI  = 1600.0     initial cutoff
   ENAUG  =  605.4 eV  augmentation charge cutoff
   NELM   =     60;   NELMIN=  2; NELMDL= -5     # of ELM steps 
   EDIFF  = 0.1E-06   stopping-criterion for ELM
   LREAL  =      F    real-space projection
   NLSPLINE    = F    spline interpolate recip. space projectors
   LCOMPAT=      F    compatible to vasp.4.4
   GGA_COMPAT  = T    GGA compatible to vasp.4.4-vasp.4.6
   LMAXPAW     = -100 max onsite density
   LMAXMIX     =    2 max onsite mixed and CHGCAR
   VOSKOWN=      0    Vosko Wilk Nusair interpolation
   ROPT   =    0.00000   0.00000
 Ionic relaxation
   EDIFFG = 0.1E-05   stopping-criterion for IOM
   NSW    =      0    number of steps for IOM
   NBLOCK =      1;   KBLOCK =      1    inner block; outer block 
   IBRION =     -1    ionic relax: 0-MD 1-quasi-New 2-CG
   NFREE  =      0    steps in history (QN), initial steepest desc. (CG)
   ISIF   =      0    stress and relaxation
   IWAVPR =     10    prediction:  0-non 1-charg 2-wave 3-comb
   ISYM   =      3    0-nonsym 1-usesym 2-fastsym
   LCORR  =      T    Harris-Foulkes like correction to forces

   POTIM  = 0.5000    time-step for ionic-motion
   TEIN   =    0.0    initial temperature
   TEBEG  =    0.0;   TEEND  =   0.0 temperature during run
   SMASS  =  -3.00    Nose mass-parameter (am)
   estimated Nose-frequenzy (Omega)   =  0.10E-29 period in steps =****** mass=  -0.280E-25a.u.
   SCALEE = 1.0000    scale energy and forces
   NPACO  =    256;   APACO  = 16.0  distance and # of slots for P.C.
   PSTRESS=    0.0 pullay stress

  Mass of Ions in am
   POMASS =  16.00  1.00
  Ionic Valenz
   ZVAL   =   6.00  1.00
  Atomic Wigner-Seitz radii
   RWIGS  =  -1.00 -1.00
  virtual crystal weights 
   VCA    =   1.00  1.00
   NELECT =       8.0000    total number of electrons
   NUPDOWN=      -1.0000    fix difference up-down

 DOS related values:
   EMIN   =  10.00;   EMAX   =-10.00  energy-range for DOS
   EFERMI =   0.00
   ISMEAR =     0;   SIGMA  =   0.01  broadening in eV -4-tet -1-fermi 0-gaus

 Electronic relaxation 2 (details)
   IALGO  =     58    algorithm
   LDIAG  =      T    sub-space diagonalisation (order eigenvalues)
   LSUBROT=      F    optimize rotation matrix (better conditioning)
   TURBO    =      0    0=normal 1=particle mesh
   IRESTART =      0    0=no restart 2=restart with 2 vectors
   NREBOOT  =      0    no. of reboots
   NMIN     =      0    reboot dimension
   EREF     =   0.00    reference energy to select bands
   IMIX   =      4    mixing-type and parameters
     AMIX     =   0.40;   BMIX     =  1.00
     AMIX_MAG =   1.60;   BMIX_MAG =  1.00
     AMIN     =   0.10
     WC   =   100.;   INIMIX=   1;  MIXPRE=   1;  MAXMIX= -45

 Intra band minimization:
   WEIMIN = 0.0000     energy-eigenvalue tresh-hold
   EBREAK =  0.31E-08  absolut break condition
   DEPER  =   0.30     relativ break condition  

   TIME   =   0.40     timestep for ELM

  volume/ion in A,a.u.               =   14291.67     96444.93
  Fermi-wavevector in a.u.,A,eV,Ry     =   0.093548  0.176781  0.119069  0.008751
  Thomas-Fermi vector in A             =   0.652187
 
 Write flags
   LWAVE  =      F    write WAVECAR
   LCHARG =      T    write CHGCAR
   LVTOT  =      F    write LOCPOT, total local potential
   LVHAR  =      F    write LOCPOT, Hartree potential only
   LELF   =      F    write electronic localiz. function (ELF)
   LORBIT =      0    0 simple, 1 ext, 2 COOP (PROOUT)


 Dipole corrections
   LMONO  =      F    monopole corrections only (constant potential shift)
   LDIPOL =      F    correct potential (dipole corrections)
   IDIPOL =      0    1-x, 2-y, 3-z, 4-all directions 
   EPSILON=  1.0000000 bulk dielectric constant

 Exchange correlation treatment:
   GGA     =    --    GGA type
   LEXCH   =     8    internal setting for exchange type
   VOSKOWN=      0    Vosko Wilk Nusair interpolation
   EXXOEP  =     0    0=HF, 1=EXX-LHF (local Hartree Fock) 2=EXX OEP
   LHFCALC =     T    Hartree Fock is set to
   LSYMGRAD=     F    symmetrize gradient (conserves proper symmetry)
   PRECFOCK=normal    Normal, Fast or Accurate (Low or Medium for compatibility)
   LRHFCALC=     F    long range Hartree Fock
   LRSCOR  =     F    long range correlation only (use DFT for short range part)
   LTHOMAS =     F    Thomas Fermi screening in HF
   LMODELHF=     F    short range full HF, long range fraction AEXX
   ENCUT4O =  -1.0   cutoff for four orbital integrals eV
   LMAXFOCK=     4    L truncation for augmentation on plane wave grid
   LMAXFOCKAE=  -1    L truncation for all-electron charge restoration on plane wave grid
   NMAXFOCKAE=   1    number of basis functions for all-electron charge restoration
   LFOCKAEDFT=     F  apply the AE augmentation even for DFT
   NKREDX  =     1    reduce k-point grid by
   NKREDY  =     1    reduce k-point grid by
   NKREDZ  =     1    reduce k-point grid by
   SHIFTRED=     F    shift reduced grid of Gamma
   HFKIDENT=     F    idential grid for each k-point
   ODDONLY =     F    use only odd q-grid points
   EVENONLY=     F    use only even q-grid points
   HFALPHA =   -1.0000 decay constant for conv. correction
   MCALPHA =    0.0000 extent of test-charge in conv. correction in multipole expansion
   AEXX    =    1.0000 exact exchange contribution
   HFSCREEN=    0.0000 screening length (either q_TF or 0.3 A-1)
   HFSCREENC=   0.0000 screening length for correlation (either q_TF or 0.3 A-1)
   HFRCUT  =    0.0000 spherical cutoff for potential kernel
   ALDAX   =    0.0000 LDA exchange part
   AGGAX   =    0.0000 GGA exchange part
   ALDAC   =    0.0000 LDA correlation
   AGGAC   =    0.0000 GGA correlation
   NBANDSGWLOW=     1    first orbital included in HF term
   ENCUTFOCK=  -1.0 apply spherical cutoff to Coloumb kernel
 Linear response parameters
   LEPSILON=     F    determine dielectric tensor
   LRPA    =     F    only Hartree local field effects (RPA)
   LNABLA  =     F    use nabla operator in PAW spheres
   LVEL    =     F    velocity operator in full k-point grid
   LINTERFAST=   F  fast interpolation
   KINTER  =     0    interpolate to denser k-point grid
   CSHIFT  =0.1000    complex shift for real part using Kramers Kronig
   OMEGAMAX=  -1.0    maximum frequency
   DEG_THRESHOLD= 0.2000000E-02 threshold for treating states as degnerate
   RTIME   =    0.100 relaxation time in fs

 Orbital magnetization related:
   ORBITALMAG=     F  switch on orbital magnetization
   LCHIMAG   =     F  perturbation theory with respect to B field
   DQ        =  0.001000  dq finite difference perturbation B field



--------------------------------------------------------------------------------------------------------


 Static calculation
 charge density and potential will be updated during run
 non-spin polarized calculation
 Conjugate gradient for all bands (Freysoldt, et al. PRB 79, 241103 (2009))
 preconditioned conjugated gradient                                        
 perform sub-space diagonalisation
    before iterative eigenvector-optimisation
 modified Broyden-mixing scheme, WC =      100.0
 initial mixing is a Kerker type mixing with AMIX =  0.4000 and BMIX =      1.0000
 Hartree-type preconditioning will be used
 using additional bands            4
 reciprocal scheme for non local part
 use partial core corrections
 no Harris-corrections to forces 
 use gradient corrections 
 use of overlap-Matrix (Vanderbilt PP)
 Gauss-broadening in eV      SIGMA  =   0.01


--------------------------------------------------------------------------------------------------------


  energy-cutoff  :     1600.00
  volume of cell :    42875.00
      direct lattice vectors                 reciprocal lattice vectors
    35.000000000  0.000000000  0.000000000     0.028571429  0.000000000  0.000000000
     0.000000000 35.000000000  0.000000000     0.000000000  0.028571429  0.000000000
     0.000000000  0.000000000 35.000000000     0.000000000  0.000000000  0.028571429

  length of vectors
    35.000000000 35.000000000 35.000000000     0.028571429  0.028571429  0.028571429


 
 k-points in units of 2pi/SCALE and weight: automatic mesh                          
   0.00000000  0.00000000  0.00000000       1.000
 
 k-points in reciprocal lattice and weights: automatic mesh                          
   0.00000000  0.00000000  0.00000000       1.000
 
 position of ions in fractional coordinates (direct lattice) 
   0.98035815  0.99680730  0.99943927
   0.97011081  0.02216966  0.00036305
   0.00782979  0.00073859  0.99990008
 
 position of ions in cartesian coordinates  (Angst):
  34.31253510 34.88825567 34.98037453
  33.95387846  0.77593821  0.01270684
   0.27404252  0.02585065 34.99650274
 


--------------------------------------------------------------------------------------------------------


 use parallel FFT for wavefunctions z direction half grid
 k-point  1 :   0.0000 0.0000 0.0000  plane waves: 3115599

 maximum and minimum number of plane-waves per node :    389462   389421

 maximum number of plane-waves:   3115599
 maximum index in each direction: 
   IXMAX=  114   IYMAX=  114   IZMAX=  114
   IXMIN= -114   IYMIN= -114   IZMIN=    0

 NGX is ok and might be reduce to 458
 NGY is ok and might be reduce to 458
 NGZ is ok and might be reduce to 458

 parallel 3D FFT for wavefunctions:
    minimum data exchange during FFTs selected (reduces bandwidth)
 parallel 3D FFT for charge:
    minimum data exchange during FFTs selected (reduces bandwidth)


 FFT grid for exact exchange (Hartree Fock) 
  NGX =350; NGY =350; NGZ =350

 use parallel FFT for wavefunctions z direction half grid
 
 Radii for the augmentation spheres in the non-local exchange
 for species   1 augmentation radius   0.902 (default was   0.722)
       energy cutoff for augmentation   6400.0
 for species   2 augmentation radius   0.650 (default was   0.520)
       energy cutoff for augmentation   6400.0

 real space projection operators:
  total allocation   :        377.72 KBytes
  max/ min on nodes  :         54.14         35.16

 Maximum index for augmentation-charges in exchange          454
  SETUP_FOCK is finished

 total amount of memory used by VASP on root node  3635491. kBytes
========================================================================

   base      :      30000. kBytes
   nonl-proj :      68538. kBytes
   fftplans  :    1395487. kBytes
   grid      :    2104012. kBytes
   one-center:          1. kBytes
   HF        :          4. kBytes
   nonlr-proj:         66. kBytes
   wavefun   :      37383. kBytes
 
     INWAV:  cpu time    0.0000: real time    0.0002
 Broyden mixing: mesh for mixing (old mesh)
   NGX =229   NGY =229   NGZ =229
  (NGX  =960   NGY  =960   NGZ  =960)
  gives a total of ****** points

 initial charge density was supplied:
 charge density of overlapping atoms calculated
 number of electron       8.0000000 magnetization 
 keeping initial charge density in first step


--------------------------------------------------------------------------------------------------------


 Maximum index for augmentation-charges          804 (set IRDMAX)


--------------------------------------------------------------------------------------------------------


 FEWALD executed in parallel
    FEWALD:  cpu time    0.0002: real time    0.0002


----------------------------------------- Iteration    1(   1)  ---------------------------------------


    POTLOK:  cpu time   14.0474: real time   14.0830
    SETDIJ:  cpu time    0.0524: real time    0.0525
    TRIAL :  cpu time    2.8427: real time    2.8524
    CORREC:  cpu time    0.0000: real time    0.0000
    --------------------------------------------
      LOOP:  cpu time   17.0316: real time   17.0788

 eigenvalue-minimisations  :    16
 total energy-change (2. order) : 0.6161902E+02  (-0.1106703E+03)
 number of electron       8.0000000 magnetization 
 augmentation part        8.0000000 magnetization 

 Free energy of the ion-electron system (eV)
  ---------------------------------------------------
  alpha Z        PSCENC =         0.00523035
  Ewald energy   TEWEN  =       151.26891132
  -Hartree energ DENC   =      -509.25695942
  -exchange      EXHF   =         0.00000000
  -V(xc)+E(xc)   XCENC  =         0.00000000
  PAW double counting   =       380.06540654     -379.12638818
  entropy T*S    EENTRO =        -0.00000000
  eigenvalues    EBANDS =       -13.82506577
  atomic energy  EATOM  =       432.48788473
  ---------------------------------------------------
  free energy    TOTEN  =        61.61901957 eV

  energy without entropy =       61.61901957  energy(sigma->0) =       61.61901957
  exchange ACFDT corr.  =         0.00000000  see jH, gK, PRB 81, 115126


--------------------------------------------------------------------------------------------------------




----------------------------------------- Iteration    1(   2)  ---------------------------------------


    TRIAL :  cpu time    2.7693: real time    2.7796
    CORREC:  cpu time    0.0002: real time    0.0002
    --------------------------------------------
      LOOP:  cpu time    2.7714: real time    2.7844

 eigenvalue-minimisations  :    16
 total energy-change (2. order) :-0.7106393E+01  (-0.7105562E+01)
 number of electron       8.0000000 magnetization 
 augmentation part        8.0000000 magnetization 

 Free energy of the ion-electron system (eV)
  ---------------------------------------------------
  alpha Z        PSCENC =         0.00523035
  Ewald energy   TEWEN  =       151.26891132
  -Hartree energ DENC   =      -509.25695942
  -exchange      EXHF   =         0.00000000
  -V(xc)+E(xc)   XCENC  =         0.00000000
  PAW double counting   =       380.06540654     -379.12638818
  entropy T*S    EENTRO =        -0.00366861
  eigenvalues    EBANDS =       -20.92779036
  atomic energy  EATOM  =       432.48788473
  ---------------------------------------------------
  free energy    TOTEN  =        54.51262636 eV

  energy without entropy =       54.51629498  energy(sigma->0) =       54.51446067
  exchange ACFDT corr.  =         0.00000000  see jH, gK, PRB 81, 115126


--------------------------------------------------------------------------------------------------------




----------------------------------------- Iteration    1(   3)  ---------------------------------------


    TRIAL :  cpu time    4.5552: real time    4.5711
    CORREC:  cpu time    0.0002: real time    0.0002
    --------------------------------------------
      LOOP:  cpu time    4.5571: real time    4.5757

 eigenvalue-minimisations  :    32
 total energy-change (2. order) :-0.1295787E+01  (-0.1290932E+01)
 number of electron       8.0000000 magnetization 
 augmentation part        8.0000000 magnetization 

 Free energy of the ion-electron system (eV)
  ---------------------------------------------------
  alpha Z        PSCENC =         0.00523035
  Ewald energy   TEWEN  =       151.26891132
  -Hartree energ DENC   =      -509.25695942
  -exchange      EXHF   =         0.00000000
  -V(xc)+E(xc)   XCENC  =         0.00000000
  PAW double counting   =       380.06540654     -379.12638818
  entropy T*S    EENTRO =        -0.01185663
  eigenvalues    EBANDS =       -22.21538940
  atomic energy  EATOM  =       432.48788473
  ---------------------------------------------------
  free energy    TOTEN  =        53.21683931 eV

  energy without entropy =       53.22869594  energy(sigma->0) =       53.22276762
  exchange ACFDT corr.  =         0.00000000  see jH, gK, PRB 81, 115126


--------------------------------------------------------------------------------------------------------




----------------------------------------- Iteration    1(   4)  ---------------------------------------


    TRIAL :  cpu time    3.6635: real time    3.6769
    CORREC:  cpu time    0.0002: real time    0.0002
    --------------------------------------------
      LOOP:  cpu time    3.6654: real time    3.6816

 eigenvalue-minimisations  :    24
 total energy-change (2. order) :-0.1033928E+01  (-0.1032356E+01)
 number of electron       8.0000000 magnetization 
 augmentation part        8.0000000 magnetization 

 Free energy of the ion-electron system (eV)
  ---------------------------------------------------
  alpha Z        PSCENC =         0.00523035
  Ewald energy   TEWEN  =       151.26891132
  -Hartree energ DENC   =      -509.25695942
  -exchange      EXHF   =         0.00000000
  -V(xc)+E(xc)   XCENC  =         0.00000000
  PAW double counting   =       380.06540654     -379.12638818
  entropy T*S    EENTRO =        -0.01611644
  eigenvalues    EBANDS =       -23.24505746
  atomic energy  EATOM  =       432.48788473
  ---------------------------------------------------
  free energy    TOTEN  =        52.18291144 eV

  energy without entropy =       52.19902788  energy(sigma->0) =       52.19096966
  exchange ACFDT corr.  =         0.00000000  see jH, gK, PRB 81, 115126


--------------------------------------------------------------------------------------------------------




----------------------------------------- Iteration    1(   5)  ---------------------------------------


    TRIAL :  cpu time    2.7674: real time    2.7774
    CORREC:  cpu time    0.0002: real time    0.0002
    CHARGE:  cpu time    1.9086: real time    1.9165
    --------------------------------------------
      LOOP:  cpu time    4.6780: real time    4.6984

 eigenvalue-minimisations  :    16
 total energy-change (2. order) :-0.4300678E-01  (-0.4242630E-01)
 number of electron       8.0000000 magnetization 
 augmentation part       -0.0073488 magnetization 

 Free energy of the ion-electron system (eV)
  ---------------------------------------------------
  alpha Z        PSCENC =         0.00523035
  Ewald energy   TEWEN  =       151.26891132
  -Hartree energ DENC   =      -509.25695942
  -exchange      EXHF   =         0.00000000
  -V(xc)+E(xc)   XCENC  =         0.00000000
  PAW double counting   =       380.06540654     -379.12638818
  entropy T*S    EENTRO =        -0.01813818
  eigenvalues    EBANDS =       -23.28604250
  atomic energy  EATOM  =       432.48788473
  ---------------------------------------------------
  free energy    TOTEN  =        52.13990466 eV

  energy without entropy =       52.15804284  energy(sigma->0) =       52.14897375
  exchange ACFDT corr.  =         0.00000000  see jH, gK, PRB 81, 115126


--------------------------------------------------------------------------------------------------------




----------------------------------------- Iteration    1(   6)  ---------------------------------------


    POTLOK:  cpu time   15.3907: real time   15.4281
    SETDIJ:  cpu time    0.0526: real time    0.0528
    TRIAL :  cpu time    9.2027: real time    9.2471
    CORREC:  cpu time   25.2061: real time   25.2903
    CHARGE:  cpu time    1.8625: real time    1.8699
    --------------------------------------------
      LOOP:  cpu time   51.7212: real time   51.8965

 eigenvalue-minimisations  :     0
 total energy-change (2. order) : 0.1209896E+03  (-0.5248078E+02)
 number of electron       8.0000000 magnetization 
 augmentation part       -0.0012830 magnetization 

 Free energy of the ion-electron system (eV)
  ---------------------------------------------------
  alpha Z        PSCENC =         0.00523035
  Ewald energy   TEWEN  =       151.26891132
  -Hartree energ DENC   =      -107.65494548
  -exchange      EXHF   =        38.40642881
  -V(xc)+E(xc)   XCENC  =         0.00000000
  PAW double counting   =       128.28643548     -128.05425792
  entropy T*S    EENTRO =        -0.01078174
  eigenvalues    EBANDS =      -341.59806945
  atomic energy  EATOM  =       432.48788473
  ---------------------------------------------------
  free energy    TOTEN  =       173.12947966 eV

  energy without entropy =      173.14026140  energy(sigma->0) =      173.13487053
  exchange ACFDT corr.  =        -0.94909824  see jH, gK, PRB 81, 115126


--------------------------------------------------------------------------------------------------------




----------------------------------------- Iteration    1(   7)  ---------------------------------------


    POTLOK:  cpu time   15.4193: real time   15.4568
    SETDIJ:  cpu time    0.0509: real time    0.0510
    TRIAL :  cpu time    9.1954: real time    9.2389
    CORREC:  cpu time   25.1901: real time   25.2747
    CHARGE:  cpu time    1.8609: real time    1.8681
    --------------------------------------------
      LOOP:  cpu time   51.7191: real time   51.8947

 eigenvalue-minimisations  :     0
 total energy-change (2. order) :-0.3729888E+02  (-0.2243715E+02)
 number of electron       8.0000000 magnetization 
 augmentation part        0.0149305 magnetization 

 Free energy of the ion-electron system (eV)
  ---------------------------------------------------
  alpha Z        PSCENC =         0.00523035
  Ewald energy   TEWEN  =       151.26891132
  -Hartree energ DENC   =      -137.74518761
  -exchange      EXHF   =        46.95432321
  -V(xc)+E(xc)   XCENC  =         0.00000000
  PAW double counting   =       176.69791697     -176.25508353
  entropy T*S    EENTRO =        -0.00039504
  eigenvalues    EBANDS =      -357.57261627
  atomic energy  EATOM  =       432.48788473
  ---------------------------------------------------
  free energy    TOTEN  =       135.83059743 eV

  energy without entropy =      135.83099247  energy(sigma->0) =      135.83079495
  exchange ACFDT corr.  =        -0.56370353  see jH, gK, PRB 81, 115126


--------------------------------------------------------------------------------------------------------




----------------------------------------- Iteration    1(   8)  ---------------------------------------


    POTLOK:  cpu time   15.3906: real time   15.4280
    SETDIJ:  cpu time    0.0512: real time    0.0513
    TRIAL :  cpu time    9.1735: real time    9.2177
    CORREC:  cpu time   22.4544: real time   22.5320
    CHARGE:  cpu time    1.6326: real time    1.6394
    --------------------------------------------
      LOOP:  cpu time   48.7109: real time   48.8795

 eigenvalue-minimisations  :     0
 total energy-change (2. order) :-0.1722096E+02  (-0.1456176E+02)
 number of electron       8.0000000 magnetization 
 augmentation part        0.0671858 magnetization 

 Free energy of the ion-electron system (eV)
  ---------------------------------------------------
  alpha Z        PSCENC =         0.00523035
  Ewald energy   TEWEN  =       151.26891132
  -Hartree energ DENC   =      -158.35359446
  -exchange      EXHF   =        52.84424761
  -V(xc)+E(xc)   XCENC  =         0.00000000
  PAW double counting   =       199.29281383     -198.63648483
  entropy T*S    EENTRO =        -0.00000000
  eigenvalues    EBANDS =      -360.29897261
  atomic energy  EATOM  =       432.48788473
  ---------------------------------------------------
  free energy    TOTEN  =       118.60964090 eV

  energy without entropy =      118.60964090  energy(sigma->0) =      118.60964090
  exchange ACFDT corr.  =        -0.01179134  see jH, gK, PRB 81, 115126


--------------------------------------------------------------------------------------------------------




----------------------------------------- Iteration    1(   9)  ---------------------------------------


    POTLOK:  cpu time   15.3990: real time   15.4365
    SETDIJ:  cpu time    0.0516: real time    0.0517
    TRIAL :  cpu time    6.7029: real time    6.7412
    CORREC:  cpu time   22.5874: real time   22.6656
    CHARGE:  cpu time    1.6327: real time    1.6395
    --------------------------------------------
      LOOP:  cpu time   46.3758: real time   46.5390

 eigenvalue-minimisations  :     0
 total energy-change (2. order) :-0.1323095E+02  (-0.1881637E+02)
 number of electron       8.0000000 magnetization 
 augmentation part        0.1122519 magnetization 

 Free energy of the ion-electron system (eV)
  ---------------------------------------------------
  alpha Z        PSCENC =         0.00523035
  Ewald energy   TEWEN  =       151.26891132
  -Hartree energ DENC   =      -182.52653778
  -exchange      EXHF   =        57.90894407
  -V(xc)+E(xc)   XCENC  =         0.00000000
  PAW double counting   =       212.76316255     -211.93246833
  entropy T*S    EENTRO =        -0.00000000
  eigenvalues    EBANDS =      -354.59643214
  atomic energy  EATOM  =       432.48788473
  ---------------------------------------------------
  free energy    TOTEN  =       105.37869479 eV

  energy without entropy =      105.37869479  energy(sigma->0) =      105.37869479
  exchange ACFDT corr.  =         0.00000000  see jH, gK, PRB 81, 115126


--------------------------------------------------------------------------------------------------------




----------------------------------------- Iteration    1(  10)  ---------------------------------------


    POTLOK:  cpu time   15.4270: real time   15.4644
    SETDIJ:  cpu time    0.0525: real time    0.0526
    TRIAL :  cpu time    6.6604: real time    6.6980
    CORREC:  cpu time   22.5770: real time   22.6547
    CHARGE:  cpu time    1.6309: real time    1.6377
    --------------------------------------------
      LOOP:  cpu time   46.3486: real time   46.5108

 eigenvalue-minimisations  :     0
 total energy-change (2. order) :-0.1853587E+02  (-0.2286798E+02)
 number of electron       8.0000000 magnetization 
 augmentation part        0.1275289 magnetization 

 Free energy of the ion-electron system (eV)
  ---------------------------------------------------
  alpha Z        PSCENC =         0.00523035
  Ewald energy   TEWEN  =       151.26891132
  -Hartree energ DENC   =      -230.13359460
  -exchange      EXHF   =        64.60566632
  -V(xc)+E(xc)   XCENC  =         0.00000000
  PAW double counting   =       219.75987556     -218.69526056
  entropy T*S    EENTRO =        -0.00000000
  eigenvalues    EBANDS =      -332.45588567
  atomic energy  EATOM  =       432.48788473
  ---------------------------------------------------
  free energy    TOTEN  =        86.84282745 eV

  energy without entropy =       86.84282745  energy(sigma->0) =       86.84282745
  exchange ACFDT corr.  =         0.00000000  see jH, gK, PRB 81, 115126


--------------------------------------------------------------------------------------------------------




----------------------------------------- Iteration    1(  11)  ---------------------------------------


    POTLOK:  cpu time   15.4372: real time   15.4748
    SETDIJ:  cpu time    0.0515: real time    0.0517
    TRIAL :  cpu time    6.7554: real time    6.7933
    CORREC:  cpu time   22.5344: real time   22.6129
    CHARGE:  cpu time    1.6356: real time    1.6425
    --------------------------------------------
      LOOP:  cpu time   46.4192: real time   46.5827

 eigenvalue-minimisations  :     0
 total energy-change (2. order) :-0.2036364E+02  (-0.1942527E+02)
 number of electron       8.0000000 magnetization 
 augmentation part        0.1474503 magnetization 

 Free energy of the ion-electron system (eV)
  ---------------------------------------------------
  alpha Z        PSCENC =         0.00523035
  Ewald energy   TEWEN  =       151.26891132
  -Hartree energ DENC   =      -287.65962930
  -exchange      EXHF   =        71.64541908
  -V(xc)+E(xc)   XCENC  =         0.00000000
  PAW double counting   =       232.83995610     -231.55608514
  entropy T*S    EENTRO =        -0.00000000
  eigenvalues    EBANDS =      -302.55250171
  atomic energy  EATOM  =       432.48788473
  ---------------------------------------------------
  free energy    TOTEN  =        66.47918542 eV

  energy without entropy =       66.47918542  energy(sigma->0) =       66.47918542
  exchange ACFDT corr.  =         0.00000000  see jH, gK, PRB 81, 115126


--------------------------------------------------------------------------------------------------------




----------------------------------------- Iteration    1(  12)  ---------------------------------------


    POTLOK:  cpu time   15.4087: real time   15.4461
    SETDIJ:  cpu time    0.0526: real time    0.0528
    TRIAL :  cpu time    6.6684: real time    6.7061
    CORREC:  cpu time   22.5014: real time   22.5790
    CHARGE:  cpu time    1.6301: real time    1.6369
    --------------------------------------------
      LOOP:  cpu time   46.2636: real time   46.4259

 eigenvalue-minimisations  :     0
 total energy-change (2. order) :-0.1765310E+02  (-0.1285779E+02)
 number of electron       8.0000000 magnetization 
 augmentation part        0.1779753 magnetization 

 Free energy of the ion-electron system (eV)
  ---------------------------------------------------
  alpha Z        PSCENC =         0.00523035
  Ewald energy   TEWEN  =       151.26891132
  -Hartree energ DENC   =      -327.82741974
  -exchange      EXHF   =        76.05620307
  -V(xc)+E(xc)   XCENC  =         0.00000000
  PAW double counting   =       248.59030030     -247.32831695
  entropy T*S    EENTRO =         0.00000000
  eigenvalues    EBANDS =      -284.42671021
  atomic energy  EATOM  =       432.48788473
  ---------------------------------------------------
  free energy    TOTEN  =        48.82608288 eV

  energy without entropy =       48.82608288  energy(sigma->0) =       48.82608288
  exchange ACFDT corr.  =         0.00000000  see jH, gK, PRB 81, 115126


--------------------------------------------------------------------------------------------------------




----------------------------------------- Iteration    1(  13)  ---------------------------------------


    POTLOK:  cpu time   15.3806: real time   15.4180
    SETDIJ:  cpu time    0.0516: real time    0.0517
    TRIAL :  cpu time    6.6944: real time    6.7326
    CORREC:  cpu time   22.5107: real time   22.5888
    CHARGE:  cpu time    1.6315: real time    1.6383
    --------------------------------------------
      LOOP:  cpu time   46.2735: real time   46.4370

 eigenvalue-minimisations  :     0
 total energy-change (2. order) :-0.1306007E+02  (-0.9447513E+01)
 number of electron       8.0000000 magnetization 
 augmentation part        0.2155030 magnetization 

 Free energy of the ion-electron system (eV)
  ---------------------------------------------------
  alpha Z        PSCENC =         0.00523035
  Ewald energy   TEWEN  =       151.26891132
  -Hartree energ DENC   =      -353.98011291
  -exchange      EXHF   =        78.15779118
  -V(xc)+E(xc)   XCENC  =         0.00000000
  PAW double counting   =       268.37679662     -267.27155515
  entropy T*S    EENTRO =        -0.00000000
  eigenvalues    EBANDS =      -273.27893694
  atomic energy  EATOM  =       432.48788473
  ---------------------------------------------------
  free energy    TOTEN  =        35.76600921 eV

  energy without entropy =       35.76600921  energy(sigma->0) =       35.76600921
  exchange ACFDT corr.  =         0.00000000  see jH, gK, PRB 81, 115126


--------------------------------------------------------------------------------------------------------




----------------------------------------- Iteration    1(  14)  ---------------------------------------


    POTLOK:  cpu time   15.4136: real time   15.4510
    SETDIJ:  cpu time    0.0522: real time    0.0523
    TRIAL :  cpu time    6.6637: real time    6.7013
    CORREC:  cpu time   22.5512: real time   22.6289
    CHARGE:  cpu time    1.6326: real time    1.6393
    --------------------------------------------
      LOOP:  cpu time   46.3188: real time   46.4811

 eigenvalue-minimisations  :     0
 total energy-change (2. order) :-0.1031871E+02  (-0.8793767E+01)
 number of electron       8.0000000 magnetization 
 augmentation part        0.2731067 magnetization 

 Free energy of the ion-electron system (eV)
  ---------------------------------------------------
  alpha Z        PSCENC =         0.00523035
  Ewald energy   TEWEN  =       151.26891132
  -Hartree energ DENC   =      -380.55455225
  -exchange      EXHF   =        80.71899005
  -V(xc)+E(xc)   XCENC  =         0.00000000
  PAW double counting   =       301.87316310     -300.82852689
  entropy T*S    EENTRO =        -0.00000000
  eigenvalues    EBANDS =      -259.52379856
  atomic energy  EATOM  =       432.48788473
  ---------------------------------------------------
  free energy    TOTEN  =        25.44730186 eV

  energy without entropy =       25.44730186  energy(sigma->0) =       25.44730186
  exchange ACFDT corr.  =         0.00000000  see jH, gK, PRB 81, 115126


--------------------------------------------------------------------------------------------------------




----------------------------------------- Iteration    1(  15)  ---------------------------------------


    POTLOK:  cpu time   15.3996: real time   15.4370
    SETDIJ:  cpu time    0.0513: real time    0.0514
    TRIAL :  cpu time    6.6664: real time    6.7041
    CORREC:  cpu time   22.4748: real time   22.5525
    CHARGE:  cpu time    1.6229: real time    1.6297
    --------------------------------------------
      LOOP:  cpu time   46.2178: real time   46.3802

 eigenvalue-minimisations  :     0
 total energy-change (2. order) :-0.9805596E+01  (-0.7920106E+01)
 number of electron       8.0000000 magnetization 
 augmentation part        0.3520505 magnetization 

 Free energy of the ion-electron system (eV)
  ---------------------------------------------------
  alpha Z        PSCENC =         0.00523035
  Ewald energy   TEWEN  =       151.26891132
  -Hartree energ DENC   =      -411.80521734
  -exchange      EXHF   =        84.45117082
  -V(xc)+E(xc)   XCENC  =         0.00000000
  PAW double counting   =       352.37158976     -351.30312472
  entropy T*S    EENTRO =        -0.00000000
  eigenvalues    EBANDS =      -241.83473891
  atomic energy  EATOM  =       432.48788473
  ---------------------------------------------------
  free energy    TOTEN  =        15.64170603 eV

  energy without entropy =       15.64170603  energy(sigma->0) =       15.64170603
  exchange ACFDT corr.  =         0.00000000  see jH, gK, PRB 81, 115126


--------------------------------------------------------------------------------------------------------




----------------------------------------- Iteration    1(  16)  ---------------------------------------


    POTLOK:  cpu time   15.3980: real time   15.4354
    SETDIJ:  cpu time    0.0537: real time    0.0538
    TRIAL :  cpu time    6.6570: real time    6.6940
    CORREC:  cpu time   22.6136: real time   22.6916
    CHARGE:  cpu time    1.6364: real time    1.6432
    --------------------------------------------
      LOOP:  cpu time   46.3626: real time   46.5246

 eigenvalue-minimisations  :     0
 total energy-change (2. order) :-0.8784002E+01  (-0.7725661E+01)
 number of electron       8.0000000 magnetization 
 augmentation part        0.4830349 magnetization 

 Free energy of the ion-electron system (eV)
  ---------------------------------------------------
  alpha Z        PSCENC =         0.00523035
  Ewald energy   TEWEN  =       151.26891132
  -Hartree energ DENC   =      -442.81949848
  -exchange      EXHF   =        88.86177317
  -V(xc)+E(xc)   XCENC  =         0.00000000
  PAW double counting   =       411.64560010     -410.52750513
  entropy T*S    EENTRO =        -0.00000000
  eigenvalues    EBANDS =      -224.06469186
  atomic energy  EATOM  =       432.48788473
  ---------------------------------------------------
  free energy    TOTEN  =         6.85770420 eV

  energy without entropy =        6.85770420  energy(sigma->0) =        6.85770420
  exchange ACFDT corr.  =         0.00000000  see jH, gK, PRB 81, 115126


--------------------------------------------------------------------------------------------------------




----------------------------------------- Iteration    1(  17)  ---------------------------------------


    POTLOK:  cpu time   15.3936: real time   15.4309
    SETDIJ:  cpu time    0.0517: real time    0.0518
    TRIAL :  cpu time    6.6615: real time    6.6987
    CORREC:  cpu time   90.1376: real time   90.4495
    CHARGE:  cpu time    1.6389: real time    1.6456
    --------------------------------------------
      LOOP:  cpu time  113.8894: real time  114.2853

 eigenvalue-minimisations  :     0
 total energy-change (2. order) :-0.9616058E+01  (-0.1557428E+01)
 number of electron       8.0000000 magnetization 
 augmentation part        0.6870352 magnetization 

 Free energy of the ion-electron system (eV)
  ---------------------------------------------------
  alpha Z        PSCENC =         0.00523035
  Ewald energy   TEWEN  =       151.26891132
  -Hartree energ DENC   =      -477.97653076
  -exchange      EXHF   =        94.27097184
  -V(xc)+E(xc)   XCENC  =         0.00000000
  PAW double counting   =       487.53832924     -486.45059184
  entropy T*S    EENTRO =        -0.00000000
  eigenvalues    EBANDS =      -203.90255893
  atomic energy  EATOM  =       432.48788473
  ---------------------------------------------------
  free energy    TOTEN  =        -2.75835405 eV

  energy without entropy =       -2.75835405  energy(sigma->0) =       -2.75835405
  exchange ACFDT corr.  =        -0.00000000  see jH, gK, PRB 81, 115126


--------------------------------------------------------------------------------------------------------




----------------------------------------- Iteration    1(  18)  ---------------------------------------


    POTLOK:  cpu time   15.4087: real time   15.4461
    SETDIJ:  cpu time    0.0525: real time    0.0527
    TRIAL :  cpu time    6.6837: real time    6.7219
    CORREC:  cpu time   22.5867: real time   22.6653
    CHARGE:  cpu time    1.6364: real time    1.6431
    --------------------------------------------
      LOOP:  cpu time   46.3732: real time   46.5364

 eigenvalue-minimisations  :     0
 total energy-change (2. order) :-0.7654135E+01  (-0.1421127E+02)
 number of electron       8.0000000 magnetization 
 augmentation part        0.7343251 magnetization 

 Free energy of the ion-electron system (eV)
  ---------------------------------------------------
  alpha Z        PSCENC =         0.00523035
  Ewald energy   TEWEN  =       151.26891132
  -Hartree energ DENC   =      -497.76380932
  -exchange      EXHF   =        95.38325348
  -V(xc)+E(xc)   XCENC  =         0.00000000
  PAW double counting   =       576.08275332     -575.12912517
  entropy T*S    EENTRO =        -0.00000000
  eigenvalues    EBANDS =      -192.74758806
  atomic energy  EATOM  =       432.48788473
  ---------------------------------------------------
  free energy    TOTEN  =       -10.41248934 eV

  energy without entropy =      -10.41248934  energy(sigma->0) =      -10.41248934
  exchange ACFDT corr.  =         0.00000000  see jH, gK, PRB 81, 115126


--------------------------------------------------------------------------------------------------------




----------------------------------------- Iteration    1(  19)  ---------------------------------------


    POTLOK:  cpu time   15.3843: real time   15.4217
    SETDIJ:  cpu time    0.0532: real time    0.0533
    TRIAL :  cpu time    6.6552: real time    6.6927
    CORREC:  cpu time   22.5173: real time   22.5956
    CHARGE:  cpu time    1.6323: real time    1.6393
    --------------------------------------------
      LOOP:  cpu time   46.2450: real time   46.4080

 eigenvalue-minimisations  :     0
 total energy-change (2. order) :-0.1346908E+02  (-0.3503150E+01)
 number of electron       8.0000000 magnetization 
 augmentation part        0.7017285 magnetization 

 Free energy of the ion-electron system (eV)
  ---------------------------------------------------
  alpha Z        PSCENC =         0.00523035
  Ewald energy   TEWEN  =       151.26891132
  -Hartree energ DENC   =      -546.84791013
  -exchange      EXHF   =       104.44838711
  -V(xc)+E(xc)   XCENC  =         0.00000000
  PAW double counting   =       645.81219424     -644.89752808
  entropy T*S    EENTRO =        -0.00000000
  eigenvalues    EBANDS =      -166.15873437
  atomic energy  EATOM  =       432.48788473
  ---------------------------------------------------
  free energy    TOTEN  =       -23.88156483 eV

  energy without entropy =      -23.88156483  energy(sigma->0) =      -23.88156483
  exchange ACFDT corr.  =         0.00000000  see jH, gK, PRB 81, 115126


--------------------------------------------------------------------------------------------------------




----------------------------------------- Iteration    1(  20)  ---------------------------------------


    POTLOK:  cpu time   15.4014: real time   15.4388
    SETDIJ:  cpu time    0.0523: real time    0.0525
    TRIAL :  cpu time    6.6818: real time    6.7196
    CORREC:  cpu time   22.4584: real time   22.5358
    CHARGE:  cpu time    1.6329: real time    1.6398
    --------------------------------------------
      LOOP:  cpu time   46.2313: real time   46.3937

 eigenvalue-minimisations  :     0
 total energy-change (2. order) :-0.3506852E+01  (-0.1007976E+01)
 number of electron       8.0000000 magnetization 
 augmentation part        0.6947089 magnetization 

 Free energy of the ion-electron system (eV)
  ---------------------------------------------------
  alpha Z        PSCENC =         0.00523035
  Ewald energy   TEWEN  =       151.26891132
  -Hartree energ DENC   =      -543.60209205
  -exchange      EXHF   =       104.21015987
  -V(xc)+E(xc)   XCENC  =         0.00000000
  PAW double counting   =       639.03674090     -638.13162860
  entropy T*S    EENTRO =        -0.00000000
  eigenvalues    EBANDS =      -172.66362378
  atomic energy  EATOM  =       432.48788473
  ---------------------------------------------------
  free energy    TOTEN  =       -27.38841725 eV

  energy without entropy =      -27.38841725  energy(sigma->0) =      -27.38841725
  exchange ACFDT corr.  =         0.00000000  see jH, gK, PRB 81, 115126


--------------------------------------------------------------------------------------------------------




----------------------------------------- Iteration    1(  21)  ---------------------------------------


    POTLOK:  cpu time   15.4145: real time   15.4520
    SETDIJ:  cpu time    0.0532: real time    0.0533
    TRIAL :  cpu time    6.6678: real time    6.7054
    CORREC:  cpu time   22.5092: real time   22.5867
    CHARGE:  cpu time    1.6296: real time    1.6362
    --------------------------------------------
      LOOP:  cpu time   46.2794: real time   46.4413

 eigenvalue-minimisations  :     0
 total energy-change (2. order) :-0.1018912E+01  (-0.4815616E+00)
 number of electron       8.0000000 magnetization 
 augmentation part        0.6914105 magnetization 

 Free energy of the ion-electron system (eV)
  ---------------------------------------------------
  alpha Z        PSCENC =         0.00523035
  Ewald energy   TEWEN  =       151.26891132
  -Hartree energ DENC   =      -548.39669191
  -exchange      EXHF   =       105.35461652
  -V(xc)+E(xc)   XCENC  =         0.00000000
  PAW double counting   =       644.69145900     -643.74509401
  entropy T*S    EENTRO =        -0.00000000
  eigenvalues    EBANDS =      -170.07364564
  atomic energy  EATOM  =       432.48788473
  ---------------------------------------------------
  free energy    TOTEN  =       -28.40732965 eV

  energy without entropy =      -28.40732965  energy(sigma->0) =      -28.40732965
  exchange ACFDT corr.  =         0.00000000  see jH, gK, PRB 81, 115126


--------------------------------------------------------------------------------------------------------




----------------------------------------- Iteration    1(  22)  ---------------------------------------


    POTLOK:  cpu time   15.4055: real time   15.4430
    SETDIJ:  cpu time    0.0538: real time    0.0539
    TRIAL :  cpu time    6.6472: real time    6.6846
    CORREC:  cpu time   22.5009: real time   22.5782
    CHARGE:  cpu time    1.6314: real time    1.6381
    --------------------------------------------
      LOOP:  cpu time   46.2425: real time   46.4044

 eigenvalue-minimisations  :     0
 total energy-change (2. order) :-0.4941805E+00  (-0.1754799E+00)
 number of electron       8.0000000 magnetization 
 augmentation part        0.6872437 magnetization 

 Free energy of the ion-electron system (eV)
  ---------------------------------------------------
  alpha Z        PSCENC =         0.00523035
  Ewald energy   TEWEN  =       151.26891132
  -Hartree energ DENC   =      -548.65331415
  -exchange      EXHF   =       105.62959145
  -V(xc)+E(xc)   XCENC  =         0.00000000
  PAW double counting   =       639.68706301     -638.74063110
  entropy T*S    EENTRO =        -0.00000000
  eigenvalues    EBANDS =      -170.58624572
  atomic energy  EATOM  =       432.48788473
  ---------------------------------------------------
  free energy    TOTEN  =       -28.90151011 eV

  energy without entropy =      -28.90151011  energy(sigma->0) =      -28.90151011
  exchange ACFDT corr.  =        -0.00000000  see jH, gK, PRB 81, 115126


--------------------------------------------------------------------------------------------------------




----------------------------------------- Iteration    1(  23)  ---------------------------------------


    POTLOK:  cpu time   15.4033: real time   15.4407
    SETDIJ:  cpu time    0.0523: real time    0.0524
    TRIAL :  cpu time    6.6615: real time    6.7004
    CORREC:  cpu time   22.4782: real time   22.5563
    CHARGE:  cpu time    1.6282: real time    1.6351
    --------------------------------------------
      LOOP:  cpu time   46.2271: real time   46.3913

 eigenvalue-minimisations  :     0
 total energy-change (2. order) :-0.1765171E+00  (-0.6474420E-01)
 number of electron       8.0000000 magnetization 
 augmentation part        0.6912864 magnetization 

 Free energy of the ion-electron system (eV)
  ---------------------------------------------------
  alpha Z        PSCENC =         0.00523035
  Ewald energy   TEWEN  =       151.26891132
  -Hartree energ DENC   =      -546.60989307
  -exchange      EXHF   =       105.34001974
  -V(xc)+E(xc)   XCENC  =         0.00000000
  PAW double counting   =       632.44343311     -631.49927256
  entropy T*S    EENTRO =        -0.00000000
  eigenvalues    EBANDS =      -172.51434080
  atomic energy  EATOM  =       432.48788473
  ---------------------------------------------------
  free energy    TOTEN  =       -29.07802717 eV

  energy without entropy =      -29.07802717  energy(sigma->0) =      -29.07802717
  exchange ACFDT corr.  =         0.00000000  see jH, gK, PRB 81, 115126


--------------------------------------------------------------------------------------------------------




----------------------------------------- Iteration    1(  24)  ---------------------------------------


    POTLOK:  cpu time   15.3937: real time   15.4311
    SETDIJ:  cpu time    0.0536: real time    0.0537
    TRIAL :  cpu time    6.6789: real time    6.7168
    CORREC:  cpu time   22.9442: real time   23.0239
    CHARGE:  cpu time    1.6117: real time    1.6185
    --------------------------------------------
      LOOP:  cpu time   46.6847: real time   46.8492

 eigenvalue-minimisations  :     0
 total energy-change (2. order) :-0.6521068E-01  (-0.2369424E-01)
 number of electron       8.0000000 magnetization 
 augmentation part        0.6885445 magnetization 

 Free energy of the ion-electron system (eV)
  ---------------------------------------------------
  alpha Z        PSCENC =         0.00523035
  Ewald energy   TEWEN  =       151.26891132
  -Hartree energ DENC   =      -548.30322635
  -exchange      EXHF   =       105.67212638
  -V(xc)+E(xc)   XCENC  =         0.00000000
  PAW double counting   =       633.36647242     -632.41711688
  entropy T*S    EENTRO =        -0.00000000
  eigenvalues    EBANDS =      -171.22351982
  atomic energy  EATOM  =       432.48788473
  ---------------------------------------------------
  free energy    TOTEN  =       -29.14323785 eV

  energy without entropy =      -29.14323785  energy(sigma->0) =      -29.14323785
  exchange ACFDT corr.  =        -0.00000000  see jH, gK, PRB 81, 115126


--------------------------------------------------------------------------------------------------------




----------------------------------------- Iteration    1(  25)  ---------------------------------------


    POTLOK:  cpu time   16.1114: real time   16.1506
    SETDIJ:  cpu time    0.1757: real time    0.1762
    TRIAL :  cpu time    6.8357: real time    6.8747
    CORREC:  cpu time   23.4383: real time   23.5190
    CHARGE:  cpu time    1.6090: real time    1.6157
    --------------------------------------------
      LOOP:  cpu time   48.2145: real time   48.3829

 eigenvalue-minimisations  :     0
 total energy-change (2. order) :-0.2380730E-01  (-0.9443623E-02)
 number of electron       8.0000000 magnetization 
 augmentation part        0.6860063 magnetization 

 Free energy of the ion-electron system (eV)
  ---------------------------------------------------
  alpha Z        PSCENC =         0.00523035
  Ewald energy   TEWEN  =       151.26891132
  -Hartree energ DENC   =      -547.60361302
  -exchange      EXHF   =       105.54440216
  -V(xc)+E(xc)   XCENC  =         0.00000000
  PAW double counting   =       631.16928770     -630.21304518
  entropy T*S    EENTRO =        -0.00000000
  eigenvalues    EBANDS =      -171.82610321
  atomic energy  EATOM  =       432.48788473
  ---------------------------------------------------
  free energy    TOTEN  =       -29.16704515 eV

  energy without entropy =      -29.16704515  energy(sigma->0) =      -29.16704515
  exchange ACFDT corr.  =         0.00000000  see jH, gK, PRB 81, 115126


--------------------------------------------------------------------------------------------------------




----------------------------------------- Iteration    1(  26)  ---------------------------------------


    POTLOK:  cpu time   16.0953: real time   16.1344
    SETDIJ:  cpu time    0.1801: real time    0.1805
    TRIAL :  cpu time    6.8015: real time    6.8398
    CORREC:  cpu time   23.7809: real time   23.8616
    CHARGE:  cpu time    1.6212: real time    1.6282
    --------------------------------------------
      LOOP:  cpu time   48.5214: real time   48.6899

 eigenvalue-minimisations  :     0
 total energy-change (2. order) :-0.9469229E-02  (-0.3135458E-02)
 number of electron       8.0000000 magnetization 
 augmentation part        0.6846477 magnetization 

 Free energy of the ion-electron system (eV)
  ---------------------------------------------------
  alpha Z        PSCENC =         0.00523035
  Ewald energy   TEWEN  =       151.26891132
  -Hartree energ DENC   =      -547.61024329
  -exchange      EXHF   =       105.53994269
  -V(xc)+E(xc)   XCENC  =         0.00000000
  PAW double counting   =       630.90413409     -629.93580334
  entropy T*S    EENTRO =        -0.00000000
  eigenvalues    EBANDS =      -171.83657093
  atomic energy  EATOM  =       432.48788473
  ---------------------------------------------------
  free energy    TOTEN  =       -29.17651438 eV

  energy without entropy =      -29.17651438  energy(sigma->0) =      -29.17651438
  exchange ACFDT corr.  =         0.00000000  see jH, gK, PRB 81, 115126


--------------------------------------------------------------------------------------------------------




----------------------------------------- Iteration    1(  27)  ---------------------------------------


    POTLOK:  cpu time   16.1722: real time   16.2115
    SETDIJ:  cpu time    0.1784: real time    0.1789
    TRIAL :  cpu time    6.9075: real time    6.9463
    CORREC:  cpu time   23.4947: real time   23.5749
    CHARGE:  cpu time    1.6252: real time    1.6319
    --------------------------------------------
      LOOP:  cpu time   48.4200: real time   48.5885

 eigenvalue-minimisations  :     0
 total energy-change (2. order) :-0.3136653E-02  (-0.1072870E-02)
 number of electron       8.0000000 magnetization 
 augmentation part        0.6844292 magnetization 

 Free energy of the ion-electron system (eV)
  ---------------------------------------------------
  alpha Z        PSCENC =         0.00523035
  Ewald energy   TEWEN  =       151.26891132
  -Hartree energ DENC   =      -547.67102176
  -exchange      EXHF   =       105.54459013
  -V(xc)+E(xc)   XCENC  =         0.00000000
  PAW double counting   =       631.12204878     -630.14652067
  entropy T*S    EENTRO =        -0.00000000
  eigenvalues    EBANDS =      -171.79077391
  atomic energy  EATOM  =       432.48788473
  ---------------------------------------------------
  free energy    TOTEN  =       -29.17965103 eV

  energy without entropy =      -29.17965103  energy(sigma->0) =      -29.17965103
  exchange ACFDT corr.  =         0.00000000  see jH, gK, PRB 81, 115126


--------------------------------------------------------------------------------------------------------




----------------------------------------- Iteration    1(  28)  ---------------------------------------


    POTLOK:  cpu time   16.1718: real time   16.2111
    SETDIJ:  cpu time    0.1834: real time    0.1838
    TRIAL :  cpu time    6.8767: real time    6.9155
    CORREC:  cpu time   23.4989: real time   23.5791
    CHARGE:  cpu time    1.6194: real time    1.6259
    --------------------------------------------
      LOOP:  cpu time   48.3894: real time   48.5571

 eigenvalue-minimisations  :     0
 total energy-change (2. order) :-0.1072632E-02  (-0.4375589E-03)
 number of electron       8.0000000 magnetization 
 augmentation part        0.6843450 magnetization 

 Free energy of the ion-electron system (eV)
  ---------------------------------------------------
  alpha Z        PSCENC =         0.00523035
  Ewald energy   TEWEN  =       151.26891132
  -Hartree energ DENC   =      -547.70104706
  -exchange      EXHF   =       105.54751101
  -V(xc)+E(xc)   XCENC  =         0.00000000
  PAW double counting   =       631.38289250     -630.40583078
  entropy T*S    EENTRO =        -0.00000000
  eigenvalues    EBANDS =      -171.76627574
  atomic energy  EATOM  =       432.48788473
  ---------------------------------------------------
  free energy    TOTEN  =       -29.18072366 eV

  energy without entropy =      -29.18072366  energy(sigma->0) =      -29.18072366
  exchange ACFDT corr.  =         0.00000000  see jH, gK, PRB 81, 115126


--------------------------------------------------------------------------------------------------------




----------------------------------------- Iteration    1(  29)  ---------------------------------------


    POTLOK:  cpu time   16.1744: real time   16.2137
    SETDIJ:  cpu time    0.1791: real time    0.1795
    TRIAL :  cpu time    6.8923: real time    6.9303
    CORREC:  cpu time   23.4654: real time   23.5459
    CHARGE:  cpu time    1.6194: real time    1.6265
    --------------------------------------------
      LOOP:  cpu time   48.3745: real time   48.5425

 eigenvalue-minimisations  :     0
 total energy-change (2. order) :-0.4377677E-03  (-0.1864807E-03)
 number of electron       8.0000000 magnetization 
 augmentation part        0.6841606 magnetization 

 Free energy of the ion-electron system (eV)
  ---------------------------------------------------
  alpha Z        PSCENC =         0.00523035
  Ewald energy   TEWEN  =       151.26891132
  -Hartree energ DENC   =      -547.68484361
  -exchange      EXHF   =       105.54414371
  -V(xc)+E(xc)   XCENC  =         0.00000000
  PAW double counting   =       631.49263021     -630.51534018
  entropy T*S    EENTRO =        -0.00000000
  eigenvalues    EBANDS =      -171.77977796
  atomic energy  EATOM  =       432.48788473
  ---------------------------------------------------
  free energy    TOTEN  =       -29.18116143 eV

  energy without entropy =      -29.18116143  energy(sigma->0) =      -29.18116143
  exchange ACFDT corr.  =         0.00000000  see jH, gK, PRB 81, 115126


--------------------------------------------------------------------------------------------------------




----------------------------------------- Iteration    1(  30)  ---------------------------------------


    POTLOK:  cpu time   16.1876: real time   16.2270
    SETDIJ:  cpu time    0.1773: real time    0.1777
    TRIAL :  cpu time    6.8957: real time    6.9344
    CORREC:  cpu time   23.4771: real time   23.5570
    CHARGE:  cpu time    1.6194: real time    1.6262
    --------------------------------------------
      LOOP:  cpu time   48.3966: real time   48.5643

 eigenvalue-minimisations  :     0
 total energy-change (2. order) :-0.1866970E-03  (-0.8133667E-04)
 number of electron       8.0000000 magnetization 
 augmentation part        0.6839268 magnetization 

 Free energy of the ion-electron system (eV)
  ---------------------------------------------------
  alpha Z        PSCENC =         0.00523035
  Ewald energy   TEWEN  =       151.26891132
  -Hartree energ DENC   =      -547.68029073
  -exchange      EXHF   =       105.54371950
  -V(xc)+E(xc)   XCENC  =         0.00000000
  PAW double counting   =       631.52342301     -630.54548524
  entropy T*S    EENTRO =        -0.00000000
  eigenvalues    EBANDS =      -171.78474107
  atomic energy  EATOM  =       432.48788473
  ---------------------------------------------------
  free energy    TOTEN  =       -29.18134813 eV

  energy without entropy =      -29.18134813  energy(sigma->0) =      -29.18134813
  exchange ACFDT corr.  =        -0.00000000  see jH, gK, PRB 81, 115126


--------------------------------------------------------------------------------------------------------




----------------------------------------- Iteration    1(  31)  ---------------------------------------


    POTLOK:  cpu time   16.1420: real time   16.1812
    SETDIJ:  cpu time    0.1856: real time    0.1860
    TRIAL :  cpu time    6.9154: real time    6.9544
    CORREC:  cpu time   23.4255: real time   23.5062
    CHARGE:  cpu time    1.6200: real time    1.6267
    --------------------------------------------
      LOOP:  cpu time   48.3302: real time   48.4988

 eigenvalue-minimisations  :     0
 total energy-change (2. order) :-0.8134231E-04  (-0.3273634E-04)
 number of electron       8.0000000 magnetization 
 augmentation part        0.6838478 magnetization 

 Free energy of the ion-electron system (eV)
  ---------------------------------------------------
  alpha Z        PSCENC =         0.00523035
  Ewald energy   TEWEN  =       151.26891132
  -Hartree energ DENC   =      -547.66886304
  -exchange      EXHF   =       105.54243466
  -V(xc)+E(xc)   XCENC  =         0.00000000
  PAW double counting   =       631.48500030     -630.50626906
  entropy T*S    EENTRO =        -0.00000000
  eigenvalues    EBANDS =      -171.79575873
  atomic energy  EATOM  =       432.48788473
  ---------------------------------------------------
  free energy    TOTEN  =       -29.18142947 eV

  energy without entropy =      -29.18142947  energy(sigma->0) =      -29.18142947
  exchange ACFDT corr.  =         0.00000000  see jH, gK, PRB 81, 115126


--------------------------------------------------------------------------------------------------------




----------------------------------------- Iteration    1(  32)  ---------------------------------------


    POTLOK:  cpu time   16.1370: real time   16.1762
    SETDIJ:  cpu time    0.1821: real time    0.1825
    TRIAL :  cpu time    6.9147: real time    6.9536
    CORREC:  cpu time   23.3732: real time   23.4529
    CHARGE:  cpu time    1.6261: real time    1.6329
    --------------------------------------------
      LOOP:  cpu time   48.2786: real time   48.4466

 eigenvalue-minimisations  :     0
 total energy-change (2. order) :-0.3274172E-04  (-0.1373540E-04)
 number of electron       8.0000000 magnetization 
 augmentation part        0.6838012 magnetization 

 Free energy of the ion-electron system (eV)
  ---------------------------------------------------
  alpha Z        PSCENC =         0.00523035
  Ewald energy   TEWEN  =       151.26891132
  -Hartree energ DENC   =      -547.67937519
  -exchange      EXHF   =       105.54530796
  -V(xc)+E(xc)   XCENC  =         0.00000000
  PAW double counting   =       631.47717087     -630.49799693
  entropy T*S    EENTRO =        -0.00000000
  eigenvalues    EBANDS =      -171.78859533
  atomic energy  EATOM  =       432.48788473
  ---------------------------------------------------
  free energy    TOTEN  =       -29.18146221 eV

  energy without entropy =      -29.18146221  energy(sigma->0) =      -29.18146221
  exchange ACFDT corr.  =         0.00000000  see jH, gK, PRB 81, 115126


--------------------------------------------------------------------------------------------------------




----------------------------------------- Iteration    1(  33)  ---------------------------------------


    POTLOK:  cpu time   16.0132: real time   16.0521
    SETDIJ:  cpu time    0.1754: real time    0.1758
    TRIAL :  cpu time    6.8598: real time    6.8982
    CORREC:  cpu time   23.0239: real time   23.1020
    CHARGE:  cpu time    1.6254: real time    1.6323
    --------------------------------------------
      LOOP:  cpu time   47.7391: real time   47.9045

 eigenvalue-minimisations  :     0
 total energy-change (2. order) :-0.1374125E-04  (-0.5827550E-05)
 number of electron       8.0000000 magnetization 
 augmentation part        0.6837654 magnetization 

 Free energy of the ion-electron system (eV)
  ---------------------------------------------------
  alpha Z        PSCENC =         0.00523035
  Ewald energy   TEWEN  =       151.26891132
  -Hartree energ DENC   =      -547.67405805
  -exchange      EXHF   =       105.54514768
  -V(xc)+E(xc)   XCENC  =         0.00000000
  PAW double counting   =       631.44736258     -630.46800055
  entropy T*S    EENTRO =        -0.00000000
  eigenvalues    EBANDS =      -171.79395402
  atomic energy  EATOM  =       432.48788473
  ---------------------------------------------------
  free energy    TOTEN  =       -29.18147595 eV

  energy without entropy =      -29.18147595  energy(sigma->0) =      -29.18147595
  exchange ACFDT corr.  =         0.00000000  see jH, gK, PRB 81, 115126


--------------------------------------------------------------------------------------------------------




----------------------------------------- Iteration    1(  34)  ---------------------------------------


    POTLOK:  cpu time   15.7779: real time   15.8162
    SETDIJ:  cpu time    0.1697: real time    0.1701
    TRIAL :  cpu time    6.8495: real time    6.8878
    CORREC:  cpu time   22.7999: real time   22.8784
    CHARGE:  cpu time    1.6241: real time    1.6310
    --------------------------------------------
      LOOP:  cpu time   47.2651: real time   47.4301

 eigenvalue-minimisations  :     0
 total energy-change (2. order) :-0.5827230E-05  (-0.1969285E-05)
 number of electron       8.0000000 magnetization 
 augmentation part        0.6837523 magnetization 

 Free energy of the ion-electron system (eV)
  ---------------------------------------------------
  alpha Z        PSCENC =         0.00523035
  Ewald energy   TEWEN  =       151.26891132
  -Hartree energ DENC   =      -547.67200105
  -exchange      EXHF   =       105.54536160
  -V(xc)+E(xc)   XCENC  =         0.00000000
  PAW double counting   =       631.43106781     -630.45155855
  entropy T*S    EENTRO =        -0.00000000
  eigenvalues    EBANDS =      -171.79637800
  atomic energy  EATOM  =       432.48788473
  ---------------------------------------------------
  free energy    TOTEN  =       -29.18148178 eV

  energy without entropy =      -29.18148178  energy(sigma->0) =      -29.18148178
  exchange ACFDT corr.  =         0.00000000  see jH, gK, PRB 81, 115126


--------------------------------------------------------------------------------------------------------




----------------------------------------- Iteration    1(  35)  ---------------------------------------


    POTLOK:  cpu time   15.4524: real time   15.4899
    SETDIJ:  cpu time    0.1694: real time    0.1698
    TRIAL :  cpu time    6.9055: real time    6.9438
    CORREC:  cpu time   22.6774: real time   22.7554
    CHARGE:  cpu time    1.6192: real time    1.6261
    --------------------------------------------
      LOOP:  cpu time   46.8681: real time   47.0322

 eigenvalue-minimisations  :     0
 total energy-change (2. order) :-0.1968311E-05  (-0.7461742E-06)
 number of electron       8.0000000 magnetization 
 augmentation part        0.6837493 magnetization 

 Free energy of the ion-electron system (eV)
  ---------------------------------------------------
  alpha Z        PSCENC =         0.00523035
  Ewald energy   TEWEN  =       151.26891132
  -Hartree energ DENC   =      -547.67454444
  -exchange      EXHF   =       105.54610135
  -V(xc)+E(xc)   XCENC  =         0.00000000
  PAW double counting   =       631.42693750     -630.44734016
  entropy T*S    EENTRO =        -0.00000000
  eigenvalues    EBANDS =      -171.79466440
  atomic energy  EATOM  =       432.48788473
  ---------------------------------------------------
  free energy    TOTEN  =       -29.18148375 eV

  energy without entropy =      -29.18148375  energy(sigma->0) =      -29.18148375
  exchange ACFDT corr.  =         0.00000000  see jH, gK, PRB 81, 115126


--------------------------------------------------------------------------------------------------------




----------------------------------------- Iteration    1(  36)  ---------------------------------------


    POTLOK:  cpu time   15.3719: real time   15.4092
    SETDIJ:  cpu time    0.1702: real time    0.1706
    TRIAL :  cpu time    6.8938: real time    6.9318
    CORREC:  cpu time   22.5472: real time   22.6244
    CHARGE:  cpu time    1.6268: real time    1.6336
    --------------------------------------------
      LOOP:  cpu time   46.6529: real time   46.8158

 eigenvalue-minimisations  :     0
 total energy-change (2. order) :-0.7457313E-06  (-0.2989440E-06)
 number of electron       8.0000000 magnetization 
 augmentation part        0.6837565 magnetization 

 Free energy of the ion-electron system (eV)
  ---------------------------------------------------
  alpha Z        PSCENC =         0.00523035
  Ewald energy   TEWEN  =       151.26891132
  -Hartree energ DENC   =      -547.67272448
  -exchange      EXHF   =       105.54586257
  -V(xc)+E(xc)   XCENC  =         0.00000000
  PAW double counting   =       631.41627734     -630.43667056
  entropy T*S    EENTRO =        -0.00000000
  eigenvalues    EBANDS =      -171.79625577
  atomic energy  EATOM  =       432.48788473
  ---------------------------------------------------
  free energy    TOTEN  =       -29.18148449 eV

  energy without entropy =      -29.18148449  energy(sigma->0) =      -29.18148449
  exchange ACFDT corr.  =         0.00000000  see jH, gK, PRB 81, 115126


--------------------------------------------------------------------------------------------------------




----------------------------------------- Iteration    1(  37)  ---------------------------------------


    POTLOK:  cpu time   15.2355: real time   15.2726
    SETDIJ:  cpu time    0.1743: real time    0.1747
    TRIAL :  cpu time    6.8986: real time    6.9376
    CORREC:  cpu time   22.5513: real time   22.6296
    CHARGE:  cpu time    1.6198: real time    1.6265
    --------------------------------------------
      LOOP:  cpu time   46.5216: real time   46.6860

 eigenvalue-minimisations  :     0
 total energy-change (2. order) :-0.2987898E-06  (-0.1310858E-06)
 number of electron       8.0000000 magnetization 
 augmentation part        0.6837651 magnetization 

 Free energy of the ion-electron system (eV)
  ---------------------------------------------------
  alpha Z        PSCENC =         0.00523035
  Ewald energy   TEWEN  =       151.26891132
  -Hartree energ DENC   =      -547.67232722
  -exchange      EXHF   =       105.54579687
  -V(xc)+E(xc)   XCENC  =         0.00000000
  PAW double counting   =       631.41094285     -630.43136225
  entropy T*S    EENTRO =        -0.00000000
  eigenvalues    EBANDS =      -171.79656144
  atomic energy  EATOM  =       432.48788473
  ---------------------------------------------------
  free energy    TOTEN  =       -29.18148479 eV

  energy without entropy =      -29.18148479  energy(sigma->0) =      -29.18148479
  exchange ACFDT corr.  =         0.00000000  see jH, gK, PRB 81, 115126


--------------------------------------------------------------------------------------------------------




----------------------------------------- Iteration    1(  38)  ---------------------------------------


    POTLOK:  cpu time   15.2156: real time   15.2526
    SETDIJ:  cpu time    0.1805: real time    0.1809
    TRIAL :  cpu time    6.8593: real time    6.8978
    CORREC:  cpu time   22.4407: real time   22.5184
    CHARGE:  cpu time    1.6283: real time    1.6351
    --------------------------------------------
      LOOP:  cpu time   46.3692: real time   46.5321

 eigenvalue-minimisations  :     0
 total energy-change (2. order) :-0.1310931E-06  (-0.5839137E-07)
 number of electron       8.0000000 magnetization 
 augmentation part        0.6837693 magnetization 

 Free energy of the ion-electron system (eV)
  ---------------------------------------------------
  alpha Z        PSCENC =         0.00523035
  Ewald energy   TEWEN  =       151.26891132
  -Hartree energ DENC   =      -547.67333859
  -exchange      EXHF   =       105.54595710
  -V(xc)+E(xc)   XCENC  =         0.00000000
  PAW double counting   =       631.41032093     -630.43076512
  entropy T*S    EENTRO =        -0.00000000
  eigenvalues    EBANDS =      -171.79568564
  atomic energy  EATOM  =       432.48788473
  ---------------------------------------------------
  free energy    TOTEN  =       -29.18148492 eV

  energy without entropy =      -29.18148492  energy(sigma->0) =      -29.18148492
  exchange ACFDT corr.  =         0.00000000  see jH, gK, PRB 81, 115126


--------------------------------------------------------------------------------------------------------




----------------------------------------- Iteration    1(  39)  ---------------------------------------


    POTLOK:  cpu time   15.1839: real time   15.2208
    SETDIJ:  cpu time    0.1773: real time    0.1777
    TRIAL :  cpu time    6.9193: real time    6.9582
    CORREC:  cpu time   22.5733: real time   22.6518
    CHARGE:  cpu time    1.6234: real time    1.6301
    --------------------------------------------
      LOOP:  cpu time   46.5195: real time   46.6838

 eigenvalue-minimisations  :     0
 total energy-change (2. order) :-0.5836114E-07  (-0.2334829E-07)
 number of electron       8.0000000 magnetization 
 augmentation part        0.6837712 magnetization 

 Free energy of the ion-electron system (eV)
  ---------------------------------------------------
  alpha Z        PSCENC =         0.00523035
  Ewald energy   TEWEN  =       151.26891132
  -Hartree energ DENC   =      -547.67309394
  -exchange      EXHF   =       105.54588105
  -V(xc)+E(xc)   XCENC  =         0.00000000
  PAW double counting   =       631.40947173     -630.42993839
  entropy T*S    EENTRO =        -0.00000000
  eigenvalues    EBANDS =      -171.79583183
  atomic energy  EATOM  =       432.48788473
  ---------------------------------------------------
  free energy    TOTEN  =       -29.18148498 eV

  energy without entropy =      -29.18148498  energy(sigma->0) =      -29.18148498
  exchange ACFDT corr.  =         0.00000000  see jH, gK, PRB 81, 115126


--------------------------------------------------------------------------------------------------------


  average scaling for gradient   2.1437


 average (electrostatic) potential at core
  the test charge radii are     0.7215  0.5201
  (the norm of the test charge is              1.0000)
       1 -53.3035       2 -26.1589       3 -26.1403
 
 
 
 E-fermi : -13.8184     XC(G=0):   0.0000     alpha+bet : -0.0030


 k-point     1 :       0.0000    0.0000    0.0000
  band No.  band energies     occupation 
      1     -36.7941      2.00000
      2     -19.3639      2.00000
      3     -15.8514      2.00000
      4     -13.8887      2.00000
      5       0.0076      0.00000
      6       0.1217      0.00000
      7       0.1287      0.00000
      8       0.1351      0.00000


--------------------------------------------------------------------------------------------------------


 soft charge-density along one line, spin component           1
         0         1         2         3         4         5         6         7         8         9
 total charge-density along one line
 
 pseudopotential strength for first ion, spin component:           1
  9.368 -11.185  -0.147  -0.007  -0.083   0.184   0.009   0.104
-11.185  13.348   0.190   0.009   0.107  -0.238  -0.011  -0.134
 -0.147   0.190  -5.507  -0.009   0.063   6.023   0.013  -0.084
 -0.007   0.009  -0.009  -5.259  -0.001   0.013   5.689   0.001
 -0.083   0.107   0.063  -0.001  -5.581  -0.084   0.001   6.122
  0.184  -0.238   6.023   0.013  -0.084  -6.225  -0.017   0.113
  0.009  -0.011   0.013   5.689   0.001  -0.017  -5.776  -0.002
  0.104  -0.134  -0.084   0.001   6.122   0.113  -0.002  -6.358
 total augmentation occupancy for first ion, spin component:           1
  3.048   0.612   0.468   0.022   0.256   0.205   0.010   0.113
  0.612   0.184   0.431   0.020   0.243   0.098   0.005   0.055
  0.468   0.431   2.600   0.010  -0.062   0.496   0.011  -0.071
  0.022   0.020   0.010   2.331   0.001   0.011   0.216   0.001
  0.256   0.243  -0.062   0.001   2.645  -0.070   0.001   0.572
  0.205   0.098   0.496   0.011  -0.070   0.101   0.003  -0.023
  0.010   0.005   0.011   0.216   0.001   0.003   0.020   0.000
  0.113   0.055  -0.071   0.001   0.572  -0.023   0.000   0.127


------------------------ aborting loop because EDIFF is reached ----------------------------------------


    FORLOC:  cpu time    0.8292: real time    0.8312
    FORHF :  cpu time    3.5366: real time    3.5473
    FORNL :  cpu time    0.0922: real time    0.0924
    FORCOR:  cpu time   13.9592: real time   13.9932
    OFIELD:  cpu time    0.0463: real time    0.0464

 VOLUME and BASIS-vectors are now :
 -----------------------------------------------------------------------------
  energy-cutoff  :     1600.00
  volume of cell :    42875.00
      direct lattice vectors                 reciprocal lattice vectors
    35.000000000  0.000000000  0.000000000     0.028571429  0.000000000  0.000000000
     0.000000000 35.000000000  0.000000000     0.000000000  0.028571429  0.000000000
     0.000000000  0.000000000 35.000000000     0.000000000  0.000000000  0.028571429

  length of vectors
    35.000000000 35.000000000 35.000000000     0.028571429  0.028571429  0.028571429


 FORCES acting on ions:
    Electron-Ion                     Ewald-Force                    Non-Local-Force
 -----------------------------------------------------------------------------------------------
   0.301E+02 0.546E+02 0.256E+01   -.554E+02 -.100E+03 -.470E+01   0.121E+02 0.214E+02 0.101E+01
   0.371E+02 -.826E+02 -.297E+01   -.407E+02 0.903E+02 0.324E+01   0.298E+01 -.681E+01 -.246E+00
   -.887E+02 -.929E+01 -.135E+01   0.960E+02 0.988E+01 0.145E+01   -.709E+01 -.800E+00 -.110E+00
 -----------------------------------------------------------------------------------------------
   -.215E+02 -.374E+02 -.176E+01   0.000E+00 -.178E-14 -.222E-15   0.799E+01 0.138E+02 0.651E+00
 
 
 POSITION                                       TOTAL-FORCE (eV/Angst)
 -----------------------------------------------------------------------------------
     34.31254     34.88826     34.98037         1.319634      1.140357      0.061315
     33.95388      0.77594      0.01271         0.082519     -0.739906     -0.029480
      0.27404      0.02585     34.99650        -1.402153     -0.400452     -0.031835
 -----------------------------------------------------------------------------------
    total drift:                                0.000474      0.000734      0.000796


--------------------------------------------------------------------------------------------------------



  FREE ENERGIE OF THE ION-ELECTRON SYSTEM (eV)
  ---------------------------------------------------
  free  energy   TOTEN  =       -29.18148498 eV

  energy  without entropy=      -29.18148498  energy(sigma->0) =      -29.18148498
 


--------------------------------------------------------------------------------------------------------


    POTLOK:  cpu time   15.3788: real time   15.4162


--------------------------------------------------------------------------------------------------------


     LOOP+:  cpu time 2323.2730: real time 2330.7596
    4ORBIT:  cpu time    0.0000: real time    0.0000

 total amount of memory used by VASP on root node  3635491. kBytes
========================================================================

   base      :      30000. kBytes
   nonl-proj :      68538. kBytes
   fftplans  :    1395487. kBytes
   grid      :    2104012. kBytes
   one-center:          1. kBytes
   HF        :          4. kBytes
   nonlr-proj:         66. kBytes
   wavefun   :      37383. kBytes
 
  
  
 General timing and accounting informations for this job:
 ========================================================
  
                  Total CPU time used (sec):     3097.840
                            User time (sec):     2802.706
                          System time (sec):      295.134
                         Elapsed time (sec):     3107.654
  
                   Maximum memory used (kb):     5347720.
                   Average memory used (kb):           0.
  
                          Minor page faults:       682172
                          Major page faults:            5
                 Voluntary context switches:       226763
 
 PROFILE, used timers:      39
 =============================
 
 index                 routine                    time                            calls level
----------------------------------------------------------------------------------------------
    1    total_time                         3107.654691                                1   1
    2      w1_copy                               0.462841                            334   2
    3      fftwav_mpi                           56.048852                            254   2
    4      fftext_mpi                            0.266181                              2   2
    5      overl                                 0.000188                            270   2
    6      orth1                                 0.314784                            155   2
    7      lincom                                0.375813                            214   2
    8      eccp                                  8.239967                            214   2
    9      hamiltmu                              7.218972                             18   2
   10        vhamil                                1.851016                           36   3
   11        overl1                                0.000025                           36   3
   12        kinhamil                              4.652035                           36   3
   13          fftext_mpi                            4.604346                         36   4
   14      fock_acc                            175.196180                             34   2
   15        w1_copy                               0.261312                          105   3
   16        fftwav_mpi                           11.680575                          105   3
   17        fock_charge_mu                        7.448616                           37   3
   18          racc0mu_hf                            0.017463                         37   4
   19        rpromu_hf                             0.105898                           37   3
   20        overl1                                0.000043                           68   3
   21        fftext_mpi                            4.933126                           68   3
   22      hamilt_local                         13.333050                             68   2
   23        vhamil                                3.407457                           68   3
   24        kinhamil                              9.925420                           68   3
   25          fftext_mpi                            9.835874                         68   4
   26      w1_dscal                              1.716037                             68   2
   27      pdssyex_zheevx                        0.229107                             71   2
   28      eddiag                              207.415600                             37   2
   29        fock_acc                            188.921932                           37   3
   30          w1_copy                               0.184960                        113   4
   31          fftwav_mpi                           12.069600                        113   4
   32          fock_charge_mu                        7.922791                         39   4
   33            racc0mu_hf                            0.019373                       39   5
   34          rpromu_hf                             0.152126                         39   4
   35          overl1                                0.000046                         74   4
   36          fftext_mpi                            5.408516                         74   4
   37        fftwav_mpi                           15.642261                           74   3
   38        eccp                                  2.533481                           74   3
   39      rpro1_hf                              0.061926                             32   2
 
 Flat profile
 ============
 
             routine name                   CPU           calls
 ---------------------------------------------------------------
 total_time                           2636.775193           1
 fock_acc                              313.950502          71
 fftwav_mpi                             95.441288         546
 fftext_mpi                             25.048043         248
 fock_charge_mu                         15.334571          76
 eccp                                   10.773448         288
 vhamil                                  5.258473         104
 w1_dscal                                1.716037          68
 w1_copy                                 0.909113         552
 hamiltmu                                0.715896          18
 lincom                                  0.375813         214
 eddiag                                  0.317927          37
 orth1                                   0.314784         155
 rpromu_hf                               0.258024          76
 pdssyex_zheevx                          0.229107          71
 kinhamil                                0.137236         104
 rpro1_hf                                0.061926          32
 racc0mu_hf                              0.036836          76
 overl                                   0.000188         270
 hamilt_local                            0.000173          68
 overl1                                  0.000114         178
 ---------------------------------------------------------------
  summed up times    3107.65469098091     
 
Profiling took   0.005507  0.003732  0.003271  0.003249 seconds
Profiling took   0.001808 seconds
