 vasp.5.4.1 24Jun15 (build Jan 02 2020 16:21:29) gamma-only                     
  
 executed on           IFC15_impi date 2020.06.23  20:22:51
 running on   32 total cores
 distrk:  each k-point on   32 cores,    1 groups
 distr:  one band on NCORES_PER_BAND=   8 cores,    4 groups


--------------------------------------------------------------------------------------------------------


 INCAR:
 POTCAR:    PAW_PBE N 08Apr2002                   
 POTCAR:    PAW_PBE C 08Apr2002                   
 POTCAR:    PAW_PBE H 15Jun2001                   
 POTCAR:    PAW_PBE N 08Apr2002                   
   VRHFIN =N: s2p3                                                              
   LEXCH  = PE                                                                  
   EATOM  =   264.5486 eV,   19.4438 Ry                                         
                                                                                
   TITEL  = PAW_PBE N 08Apr2002                                                 
   LULTRA =        F    use ultrasoft PP ?                                      
   IUNSCR =        1    unscreen: 0-lin 1-nonlin 2-no                           
   RPACOR =    1.200    partial core radius                                     
   POMASS =   14.001; ZVAL   =    5.000    mass and valenz                      
   RCORE  =    1.500    outmost cutoff radius                                   
   RWIGS  =    1.400; RWIGS  =    0.741    wigner-seitz radius (au A)           
   ENMAX  =  400.000; ENMIN  =  300.000 eV                                      
   ICORE  =        2    local potential                                         
   LCOR   =        T    correct aug charges                                     
   LPAW   =        T    paw PP                                                  
   EAUG   =  627.112                                                            
   DEXC   =    0.000                                                            
   RMAX   =    1.529    core radius for proj-oper                               
   RAUG   =    1.300    factor for augmentation sphere                          
   RDEP   =    1.514    radius for radial grids                                 
   RDEPT  =    1.338    core radius for aug-charge                              
                                                                                
   Atomic configuration                                                         
    4 entries                                                                   
     n  l   j            E        occ.                                          
     1  0  0.50      -384.7179   2.0000                                         
     2  0  0.50       -18.5828   2.0000                                         
     2  1  0.50        -7.0898   3.0000                                         
     3  2  1.50        -6.8029   0.0000                                         
   Description                                                                  
     l       E           TYP  RCUT    TYP  RCUT                                 
     0    -18.5828119     23  1.200                                             
     0    -13.5018863     23  1.200                                             
     1     -7.0897853     23  1.500                                             
     1      9.5240782     23  1.500                                             
     2     -6.8029130      7  1.500                                             
  local pseudopotential read in
  partial core-charges read in
  partial kinetic energy density read in
  atomic valenz-charges read in
  non local Contribution for L=           0  read in
    real space projection operators read in
  non local Contribution for L=           0  read in
    real space projection operators read in
  non local Contribution for L=           1  read in
    real space projection operators read in
  non local Contribution for L=           1  read in
    real space projection operators read in
    PAW grid and wavefunctions read in
 
   number of l-projection  operators is LMAX  =           4
   number of lm-projection operators is LMMAX =           8
 
 POTCAR:    PAW_PBE C 08Apr2002                   
   VRHFIN =C: s2p2                                                              
   LEXCH  = PE                                                                  
   EATOM  =   147.1560 eV,   10.8157 Ry                                         
                                                                                
   TITEL  = PAW_PBE C 08Apr2002                                                 
   LULTRA =        F    use ultrasoft PP ?                                      
   IUNSCR =        1    unscreen: 0-lin 1-nonlin 2-no                           
   RPACOR =    1.200    partial core radius                                     
   POMASS =   12.011; ZVAL   =    4.000    mass and valenz                      
   RCORE  =    1.500    outmost cutoff radius                                   
   RWIGS  =    1.630; RWIGS  =    0.863    wigner-seitz radius (au A)           
   ENMAX  =  400.000; ENMIN  =  300.000 eV                                      
   ICORE  =        2    local potential                                         
   LCOR   =        T    correct aug charges                                     
   LPAW   =        T    paw PP                                                  
   EAUG   =  644.873                                                            
   DEXC   =    0.000                                                            
   RMAX   =    1.529    core radius for proj-oper                               
   RAUG   =    1.300    factor for augmentation sphere                          
   RDEP   =    1.501    radius for radial grids                                 
   RDEPT  =    1.300    core radius for aug-charge                              
                                                                                
   Atomic configuration                                                         
    4 entries                                                                   
     n  l   j            E        occ.                                          
     1  0  0.50      -273.3789   2.0000                                         
     2  0  0.50       -13.7508   2.0000                                         
     2  1  0.50        -5.2854   2.0000                                         
     3  2  1.50        -5.4423   0.0000                                         
   Description                                                                  
     l       E           TYP  RCUT    TYP  RCUT                                 
     0    -13.7508458     23  1.200                                             
     0     -8.2022199     23  1.200                                             
     1     -5.2854383     23  1.500                                             
     1     34.0145650     23  1.500                                             
     2     -5.4423304      7  1.500                                             
  local pseudopotential read in
  partial core-charges read in
  partial kinetic energy density read in
  atomic valenz-charges read in
  non local Contribution for L=           0  read in
    real space projection operators read in
  non local Contribution for L=           0  read in
    real space projection operators read in
  non local Contribution for L=           1  read in
    real space projection operators read in
  non local Contribution for L=           1  read in
    real space projection operators read in
    PAW grid and wavefunctions read in
 
   number of l-projection  operators is LMAX  =           4
   number of lm-projection operators is LMMAX =           8
 
 POTCAR:    PAW_PBE H 15Jun2001                   
   VRHFIN =H: ultrasoft test                                                    
   LEXCH  = PE                                                                  
   EATOM  =    12.4884 eV,    0.9179 Ry                                         
                                                                                
   TITEL  = PAW_PBE H 15Jun2001                                                 
   LULTRA =        F    use ultrasoft PP ?                                      
   IUNSCR =        0    unscreen: 0-lin 1-nonlin 2-no                           
   RPACOR =    0.000    partial core radius                                     
   POMASS =    1.000; ZVAL   =    1.000    mass and valenz                      
   RCORE  =    1.100    outmost cutoff radius                                   
   RWIGS  =    0.700; RWIGS  =    0.370    wigner-seitz radius (au A)           
   ENMAX  =  250.000; ENMIN  =  200.000 eV                                      
   RCLOC  =    0.701    cutoff for local pot                                    
   LCOR   =        T    correct aug charges                                     
   LPAW   =        T    paw PP                                                  
   EAUG   =  400.000                                                            
   RMAX   =    1.123    core radius for proj-oper                               
   RAUG   =    1.200    factor for augmentation sphere                          
   RDEP   =    1.112    radius for radial grids                                 
   RDEPT  =    0.926    core radius for aug-charge                              
                                                                                
   Atomic configuration                                                         
    2 entries                                                                   
     n  l   j            E        occ.                                          
     1  0  0.50        -6.4927   1.0000                                         
     2  1  0.50        -3.4015   0.0000                                         
   Description                                                                  
     l       E           TYP  RCUT    TYP  RCUT                                 
     0     -6.4927494     23  1.100                                             
     0      6.8029130     23  1.100                                             
     1     -4.0817478     23  1.100                                             
  local pseudopotential read in
  atomic valenz-charges read in
  non local Contribution for L=           0  read in
    real space projection operators read in
  non local Contribution for L=           0  read in
    real space projection operators read in
  non local Contribution for L=           1  read in
    real space projection operators read in
    PAW grid and wavefunctions read in
 
   number of l-projection  operators is LMAX  =           3
   number of lm-projection operators is LMMAX =           5
 
  PAW_PBE N 08Apr2002                   :
 energy of atom  1       EATOM= -264.5486
 kinetic energy error for atom=    0.0004 (will be added to EATOM!!)
  PAW_PBE C 08Apr2002                   :
 energy of atom  2       EATOM= -147.1560
 kinetic energy error for atom=    0.0002 (will be added to EATOM!!)
  PAW_PBE H 15Jun2001                   :
 energy of atom  3       EATOM=  -12.4884
 kinetic energy error for atom=    0.0000 (will be added to EATOM!!)
 
 
 POSCAR: N C H                                   
  positions in cartesian coordinates
  No initial velocities read in
 exchange correlation table for  LEXCH =        8
   RHO(1)=    0.500       N(1)  =     2000
   RHO(2)=  100.500       N(2)  =     4000
 


--------------------------------------------------------------------------------------------------------


 ion  position               nearest neighbor table
   1  0.069  0.987  0.006-   4 1.01   3 1.01   2 1.47
   2  0.074  0.019  0.032-   7 1.09   5 1.09   6 1.09   1 1.47
   3  0.078  0.995  0.979-   1 1.01
   4  0.087  0.965  0.014-   1 1.01
   5  0.066  0.010  0.061-   2 1.09
   6  0.103  0.031  0.033-   2 1.09
   7  0.054  0.042  0.023-   2 1.09
 
  LATTYP: Found a simple cubic cell.
 ALAT       =    35.0000000000
  
  Lattice vectors:
  
 A1 = (  35.0000000000,   0.0000000000,   0.0000000000)
 A2 = (   0.0000000000,  35.0000000000,   0.0000000000)
 A3 = (   0.0000000000,   0.0000000000,  35.0000000000)


Analysis of symmetry for initial positions (statically):
=====================================================================
 Subroutine PRICEL returns:
 Original cell was already a primitive cell.
 

 Routine SETGRP: Setting up the symmetry group for a 
 simple cubic supercell.


 Subroutine GETGRP returns: Found  1 space group operations
 (whereof  1 operations were pure point group operations)
 out of a pool of 48 trial point group operations.


The static configuration has the point symmetry C_1 .


Analysis of symmetry for dynamics (positions and initial velocities):
=====================================================================
 Subroutine PRICEL returns:
 Original cell was already a primitive cell.
 

 Routine SETGRP: Setting up the symmetry group for a 
 simple cubic supercell.


 Subroutine GETGRP returns: Found  1 space group operations
 (whereof  1 operations were pure point group operations)
 out of a pool of 48 trial point group operations.


The dynamic configuration has the point symmetry C_1 .
 
 
 KPOINTS: automatic mesh                          

Automatic generation of k-mesh.
Space group operators:
 irot       det(A)        alpha          n_x          n_y          n_z        tau_x        tau_y        tau_z
    1     1.000000     0.000000     1.000000     0.000000     0.000000     0.000000     0.000000     0.000000
 
 Subroutine IBZKPT returns following result:
 ===========================================
 
 Found      1 irreducible k-points:
 
 Following reciprocal coordinates:
            Coordinates               Weight
  0.000000  0.000000  0.000000      1.000000
 
 Following cartesian coordinates:
            Coordinates               Weight
  0.000000  0.000000  0.000000      1.000000
 
 
 Subroutine IBZKPT_HF returns following result:
 ==============================================
 
 Found      1 k-points in 1st BZ
 the following      1 k-points will be used (e.g. in the exchange kernel)
 Following reciprocal coordinates:   # in IRBZ
  0.000000  0.000000  0.000000    1.00000000   1 t-inv F


--------------------------------------------------------------------------------------------------------




 Dimension of arrays:
   k-points           NKPTS =      1   k-points in BZ     NKDIM =      1   number of bands    NBANDS=     12
   number of dos      NEDOS =    301   number of ions     NIONS =      7
   non local maximal  LDIM  =      4   non local SUM 2l+1 LMDIM =      8
   total plane-waves  NPLWV = ******
   max r-space proj   IRMAX =      1   max aug-charges    IRDMAX=  31937
   dimension x,y,z NGX =   480 NGY =  480 NGZ =  480
   dimension x,y,z NGXF=   960 NGYF=  960 NGZF=  960
   support grid    NGXF=   960 NGYF=  960 NGZF=  960
   ions per type =               1   1   5
 NGX,Y,Z   is equivalent  to a cutoff of  22.80, 22.80, 22.80 a.u.
 NGXF,Y,Z  is equivalent  to a cutoff of  45.60, 45.60, 45.60 a.u.


 I would recommend the setting:
   dimension x,y,z NGX =   457 NGY =  457 NGZ =  457
 SYSTEM =  C                                       
 POSCAR =  N C H                                   

 Startparameter for this run:
   NWRITE =      2    write-flag & timer
   PREC   = accura    normal or accurate (medium, high low for compatibility)
   ISTART =      1    job   : 0-new  1-cont  2-samecut
   ICHARG =      0    charge: 1-file 2-atom 10-const
   ISPIN  =      1    spin polarized calculation?
   LNONCOLLINEAR =      F non collinear calculations
   LSORBIT =      F    spin-orbit coupling
   INIWAV =      1    electr: 0-lowe 1-rand  2-diag
   LASPH  =      T    aspherical Exc in radial PAW
   METAGGA=      F    non-selfconsistent MetaGGA calc.

 Electronic Relaxation 1
   ENCUT  = 1600.0 eV 117.60 Ry   10.84 a.u. 114.15114.15114.15*2*pi/ulx,y,z
   ENINI  = 1600.0     initial cutoff
   ENAUG  =  644.9 eV  augmentation charge cutoff
   NELM   =     60;   NELMIN=  2; NELMDL=  0     # of ELM steps 
   EDIFF  = 0.1E-06   stopping-criterion for ELM
   LREAL  =      F    real-space projection
   NLSPLINE    = F    spline interpolate recip. space projectors
   LCOMPAT=      F    compatible to vasp.4.4
   GGA_COMPAT  = T    GGA compatible to vasp.4.4-vasp.4.6
   LMAXPAW     = -100 max onsite density
   LMAXMIX     =    2 max onsite mixed and CHGCAR
   VOSKOWN=      0    Vosko Wilk Nusair interpolation
   ROPT   =    0.00000   0.00000   0.00000
 Ionic relaxation
   EDIFFG = 0.1E-05   stopping-criterion for IOM
   NSW    =      0    number of steps for IOM
   NBLOCK =      1;   KBLOCK =      1    inner block; outer block 
   IBRION =     -1    ionic relax: 0-MD 1-quasi-New 2-CG
   NFREE  =      0    steps in history (QN), initial steepest desc. (CG)
   ISIF   =      0    stress and relaxation
   IWAVPR =     10    prediction:  0-non 1-charg 2-wave 3-comb
   ISYM   =      3    0-nonsym 1-usesym 2-fastsym
   LCORR  =      T    Harris-Foulkes like correction to forces

   POTIM  = 0.5000    time-step for ionic-motion
   TEIN   =    0.0    initial temperature
   TEBEG  =    0.0;   TEEND  =   0.0 temperature during run
   SMASS  =  -3.00    Nose mass-parameter (am)
   estimated Nose-frequenzy (Omega)   =  0.10E-29 period in steps =****** mass=  -0.280E-25a.u.
   SCALEE = 1.0000    scale energy and forces
   NPACO  =    256;   APACO  = 16.0  distance and # of slots for P.C.
   PSTRESS=    0.0 pullay stress

  Mass of Ions in am
   POMASS =  14.00 12.01  1.00
  Ionic Valenz
   ZVAL   =   5.00  4.00  1.00
  Atomic Wigner-Seitz radii
   RWIGS  =  -1.00 -1.00 -1.00
  virtual crystal weights 
   VCA    =   1.00  1.00  1.00
   NELECT =      14.0000    total number of electrons
   NUPDOWN=      -1.0000    fix difference up-down

 DOS related values:
   EMIN   =  10.00;   EMAX   =-10.00  energy-range for DOS
   EFERMI =   0.00
   ISMEAR =     0;   SIGMA  =   0.01  broadening in eV -4-tet -1-fermi 0-gaus

 Electronic relaxation 2 (details)
   IALGO  =     58    algorithm
   LDIAG  =      T    sub-space diagonalisation (order eigenvalues)
   LSUBROT=      F    optimize rotation matrix (better conditioning)
   TURBO    =      0    0=normal 1=particle mesh
   IRESTART =      0    0=no restart 2=restart with 2 vectors
   NREBOOT  =      0    no. of reboots
   NMIN     =      0    reboot dimension
   EREF     =   0.00    reference energy to select bands
   IMIX   =      4    mixing-type and parameters
     AMIX     =   0.40;   BMIX     =  1.00
     AMIX_MAG =   1.60;   BMIX_MAG =  1.00
     AMIN     =   0.10
     WC   =   100.;   INIMIX=   1;  MIXPRE=   1;  MAXMIX= -45

 Intra band minimization:
   WEIMIN = 0.0000     energy-eigenvalue tresh-hold
   EBREAK =  0.21E-08  absolut break condition
   DEPER  =   0.30     relativ break condition  

   TIME   =   0.40     timestep for ELM

  volume/ion in A,a.u.               =    6125.00     41333.54
  Fermi-wavevector in a.u.,A,eV,Ry     =   0.112733  0.213034  0.172911  0.012709
  Thomas-Fermi vector in A             =   0.715943
 
 Write flags
   LWAVE  =      F    write WAVECAR
   LCHARG =      T    write CHGCAR
   LVTOT  =      F    write LOCPOT, total local potential
   LVHAR  =      F    write LOCPOT, Hartree potential only
   LELF   =      F    write electronic localiz. function (ELF)
   LORBIT =      0    0 simple, 1 ext, 2 COOP (PROOUT)


 Dipole corrections
   LMONO  =      F    monopole corrections only (constant potential shift)
   LDIPOL =      F    correct potential (dipole corrections)
   IDIPOL =      0    1-x, 2-y, 3-z, 4-all directions 
   EPSILON=  1.0000000 bulk dielectric constant

 Exchange correlation treatment:
   GGA     =    --    GGA type
   LEXCH   =     8    internal setting for exchange type
   VOSKOWN=      0    Vosko Wilk Nusair interpolation
   EXXOEP  =     0    0=HF, 1=EXX-LHF (local Hartree Fock) 2=EXX OEP
   LHFCALC =     T    Hartree Fock is set to
   LSYMGRAD=     F    symmetrize gradient (conserves proper symmetry)
   PRECFOCK=normal    Normal, Fast or Accurate (Low or Medium for compatibility)
   LRHFCALC=     F    long range Hartree Fock
   LRSCOR  =     F    long range correlation only (use DFT for short range part)
   LTHOMAS =     F    Thomas Fermi screening in HF
   LMODELHF=     F    short range full HF, long range fraction AEXX
   ENCUT4O =  -1.0   cutoff for four orbital integrals eV
   LMAXFOCK=     4    L truncation for augmentation on plane wave grid
   LMAXFOCKAE=  -1    L truncation for all-electron charge restoration on plane wave grid
   NMAXFOCKAE=   1    number of basis functions for all-electron charge restoration
   LFOCKAEDFT=     F  apply the AE augmentation even for DFT
   NKREDX  =     1    reduce k-point grid by
   NKREDY  =     1    reduce k-point grid by
   NKREDZ  =     1    reduce k-point grid by
   SHIFTRED=     F    shift reduced grid of Gamma
   HFKIDENT=     F    idential grid for each k-point
   ODDONLY =     F    use only odd q-grid points
   EVENONLY=     F    use only even q-grid points
   HFALPHA =   -1.0000 decay constant for conv. correction
   MCALPHA =    0.0000 extent of test-charge in conv. correction in multipole expansion
   AEXX    =    1.0000 exact exchange contribution
   HFSCREEN=    0.0000 screening length (either q_TF or 0.3 A-1)
   HFSCREENC=   0.0000 screening length for correlation (either q_TF or 0.3 A-1)
   HFRCUT  =    0.0000 spherical cutoff for potential kernel
   ALDAX   =    0.0000 LDA exchange part
   AGGAX   =    0.0000 GGA exchange part
   ALDAC   =    0.0000 LDA correlation
   AGGAC   =    0.0000 GGA correlation
   NBANDSGWLOW=     1    first orbital included in HF term
   ENCUTFOCK=  -1.0 apply spherical cutoff to Coloumb kernel
 Linear response parameters
   LEPSILON=     F    determine dielectric tensor
   LRPA    =     F    only Hartree local field effects (RPA)
   LNABLA  =     F    use nabla operator in PAW spheres
   LVEL    =     F    velocity operator in full k-point grid
   LINTERFAST=   F  fast interpolation
   KINTER  =     0    interpolate to denser k-point grid
   CSHIFT  =0.1000    complex shift for real part using Kramers Kronig
   OMEGAMAX=  -1.0    maximum frequency
   DEG_THRESHOLD= 0.2000000E-02 threshold for treating states as degnerate
   RTIME   =    0.100 relaxation time in fs

 Orbital magnetization related:
   ORBITALMAG=     F  switch on orbital magnetization
   LCHIMAG   =     F  perturbation theory with respect to B field
   DQ        =  0.001000  dq finite difference perturbation B field



--------------------------------------------------------------------------------------------------------


 Static calculation
 charge density and potential will be updated during run
 non-spin polarized calculation
 Conjugate gradient for all bands (Freysoldt, et al. PRB 79, 241103 (2009))
 preconditioned conjugated gradient                                        
 perform sub-space diagonalisation
    before iterative eigenvector-optimisation
 modified Broyden-mixing scheme, WC =      100.0
 initial mixing is a Kerker type mixing with AMIX =  0.4000 and BMIX =      1.0000
 Hartree-type preconditioning will be used
 using additional bands            5
 reciprocal scheme for non local part
 use partial core corrections
 no Harris-corrections to forces 
 use gradient corrections 
 use of overlap-Matrix (Vanderbilt PP)
 Gauss-broadening in eV      SIGMA  =   0.01


--------------------------------------------------------------------------------------------------------


  energy-cutoff  :     1600.00
  volume of cell :    42875.00
      direct lattice vectors                 reciprocal lattice vectors
    35.000000000  0.000000000  0.000000000     0.028571429  0.000000000  0.000000000
     0.000000000 35.000000000  0.000000000     0.000000000  0.028571429  0.000000000
     0.000000000  0.000000000 35.000000000     0.000000000  0.000000000  0.028571429

  length of vectors
    35.000000000 35.000000000 35.000000000     0.028571429  0.028571429  0.028571429


 
 old parameters found on file WAVECAR:
  energy-cutoff  :     1600.00
  volume of cell :    42875.00
      direct lattice vectors                 reciprocal lattice vectors
    35.000000000  0.000000000  0.000000000     0.028571429  0.000000000  0.000000000
     0.000000000 35.000000000  0.000000000     0.000000000  0.028571429  0.000000000
     0.000000000  0.000000000 35.000000000     0.000000000  0.000000000  0.028571429

  length of vectors

 
 k-points in units of 2pi/SCALE and weight: automatic mesh                          
   0.00000000  0.00000000  0.00000000       1.000
 
 k-points in reciprocal lattice and weights: automatic mesh                          
   0.00000000  0.00000000  0.00000000       1.000
 
 position of ions in fractional coordinates (direct lattice) 
   0.06944600  0.98684498  0.00571305
   0.07402400  0.01927957  0.03181806
   0.07791082  0.99468891  0.97919918
   0.08726171  0.96548240  0.01357576
   0.06630428  0.01028826  0.06055100
   0.10280715  0.03133033  0.03287439
   0.05423713  0.04173030  0.02345642
 
 position of ions in cartesian coordinates  (Angst):
   2.43061013 34.53957428  0.19995665
   2.59084010  0.67478487  1.11363195
   2.72687880 34.81411201 34.27197140
   3.05415979 33.79188396  0.47515151
   2.32064980  0.36008909  2.11928506
   3.59825041  1.09656143  1.15060368
   1.89829972  1.46056035  0.82097470
 


--------------------------------------------------------------------------------------------------------


 use parallel FFT for wavefunctions z direction half grid
 k-point  1 :   0.0000 0.0000 0.0000  plane waves: 3115599

 maximum and minimum number of plane-waves per node :    389462   389421

 maximum number of plane-waves:   3115599
 maximum index in each direction: 
   IXMAX=  114   IYMAX=  114   IZMAX=  114
   IXMIN= -114   IYMIN= -114   IZMIN=    0

 NGX is ok and might be reduce to 458
 NGY is ok and might be reduce to 458
 NGZ is ok and might be reduce to 458

 parallel 3D FFT for wavefunctions:
    minimum data exchange during FFTs selected (reduces bandwidth)
 parallel 3D FFT for charge:
    minimum data exchange during FFTs selected (reduces bandwidth)


 FFT grid for exact exchange (Hartree Fock) 
  NGX =350; NGY =350; NGZ =350

 use parallel FFT for wavefunctions z direction half grid
 
 Radii for the augmentation spheres in the non-local exchange
 for species   1 augmentation radius   0.886 (default was   0.709)
       energy cutoff for augmentation   6400.0
 for species   2 augmentation radius   0.874 (default was   0.699)
       energy cutoff for augmentation   6400.0
 for species   3 augmentation radius   0.650 (default was   0.520)
       energy cutoff for augmentation   6400.0

 real space projection operators:
  total allocation   :        805.78 KBytes
  max/ min on nodes  :        103.50         96.19

 Maximum index for augmentation-charges in exchange          354
  SETUP_FOCK is finished

 total amount of memory used by VASP on root node  3925733. kBytes
========================================================================

   base      :      30000. kBytes
   nonl-proj :     118384. kBytes
   fftplans  :    1395487. kBytes
   grid      :    2325657. kBytes
   one-center:          1. kBytes
   HF        :          4. kBytes
   nonlr-proj:        124. kBytes
   wavefun   :      56076. kBytes
 
     INWAV:  cpu time    2.2291: real time    3.5310
 Broyden mixing: mesh for mixing (old mesh)
   NGX =229   NGY =229   NGZ =229
  (NGX  =960   NGY  =960   NGZ  =960)
  gives a total of ****** points

 charge density for first step will be calculated from the start-wavefunctions


--------------------------------------------------------------------------------------------------------


 Maximum index for augmentation-charges         1167 (set IRDMAX)


--------------------------------------------------------------------------------------------------------


 initial charge from wavefunction
 FEWALD executed in parallel
    FEWALD:  cpu time    0.0058: real time    0.0059


----------------------------------------- Iteration    1(   1)  ---------------------------------------


    POTLOK:  cpu time   14.3430: real time   14.3827
    SETDIJ:  cpu time    0.0601: real time    0.0602
    TRIAL :  cpu time   14.1906: real time   14.2659
    CORREC:  cpu time   29.7094: real time   29.8295
    CHARGE:  cpu time    1.8531: real time    1.8615
    --------------------------------------------
      LOOP:  cpu time   60.2476: real time   60.4921

 eigenvalue-minimisations  :     0
 total energy-change (2. order) :-0.6339782E+02  (-0.3096939E+00)
 number of electron      14.0000000 magnetization 
 augmentation part        0.4236616 magnetization 

 Free energy of the ion-electron system (eV)
  ---------------------------------------------------
  alpha Z        PSCENC =         0.01771974
  Ewald energy   TEWEN  =       608.83698980
  -Hartree energ DENC   =      -995.26223754
  -exchange      EXHF   =       151.71162875
  -V(xc)+E(xc)   XCENC  =         0.00000000
  PAW double counting   =      1061.16249425    -1061.16766808
  entropy T*S    EENTRO =        -0.00000000
  eigenvalues    EBANDS =      -259.51083817
  atomic energy  EATOM  =       430.81409117
  ---------------------------------------------------
  free energy    TOTEN  =       -63.39782007 eV

  energy without entropy =      -63.39782007  energy(sigma->0) =      -63.39782007
  exchange ACFDT corr.  =         0.00000000  see jH, gK, PRB 81, 115126


--------------------------------------------------------------------------------------------------------




----------------------------------------- Iteration    1(   2)  ---------------------------------------


    POTLOK:  cpu time   15.6319: real time   15.6744
    SETDIJ:  cpu time    0.0583: real time    0.0588
    TRIAL :  cpu time   14.1446: real time   14.2439
    CORREC:  cpu time   30.2092: real time   30.3313
    CHARGE:  cpu time    1.8462: real time    1.8549
    --------------------------------------------
      LOOP:  cpu time   61.8935: real time   62.1691

 eigenvalue-minimisations  :     0
 total energy-change (2. order) :-0.3094344E+00  (-0.6305355E-01)
 number of electron      14.0000000 magnetization 
 augmentation part        0.4232630 magnetization 

 Free energy of the ion-electron system (eV)
  ---------------------------------------------------
  alpha Z        PSCENC =         0.01771974
  Ewald energy   TEWEN  =       608.83698980
  -Hartree energ DENC   =      -992.65819964
  -exchange      EXHF   =       151.92097421
  -V(xc)+E(xc)   XCENC  =         0.00000000
  PAW double counting   =      1245.57063354    -1245.56519823
  entropy T*S    EENTRO =        -0.00000000
  eigenvalues    EBANDS =      -262.64426503
  atomic energy  EATOM  =       430.81409117
  ---------------------------------------------------
  free energy    TOTEN  =       -63.70725444 eV

  energy without entropy =      -63.70725444  energy(sigma->0) =      -63.70725444
  exchange ACFDT corr.  =         0.00000000  see jH, gK, PRB 81, 115126


--------------------------------------------------------------------------------------------------------




----------------------------------------- Iteration    1(   3)  ---------------------------------------


    POTLOK:  cpu time   16.3894: real time   16.4340
    SETDIJ:  cpu time    0.1796: real time    0.1804
    TRIAL :  cpu time   14.4353: real time   14.5127
    CORREC:  cpu time   30.7233: real time   30.8478
    CHARGE:  cpu time    1.8497: real time    1.8582
    --------------------------------------------
      LOOP:  cpu time   63.6145: real time   63.8728

 eigenvalue-minimisations  :     0
 total energy-change (2. order) :-0.6306509E-01  (-0.2712744E-01)
 number of electron      14.0000000 magnetization 
 augmentation part        0.4254577 magnetization 

 Free energy of the ion-electron system (eV)
  ---------------------------------------------------
  alpha Z        PSCENC =         0.01771974
  Ewald energy   TEWEN  =       608.83698980
  -Hartree energ DENC   =      -995.00943283
  -exchange      EXHF   =       152.45065028
  -V(xc)+E(xc)   XCENC  =         0.00000000
  PAW double counting   =      1303.47913214    -1303.47488124
  entropy T*S    EENTRO =        -0.00000000
  eigenvalues    EBANDS =      -260.88458859
  atomic energy  EATOM  =       430.81409117
  ---------------------------------------------------
  free energy    TOTEN  =       -63.77031952 eV

  energy without entropy =      -63.77031952  energy(sigma->0) =      -63.77031952
  exchange ACFDT corr.  =         0.00000000  see jH, gK, PRB 81, 115126


--------------------------------------------------------------------------------------------------------




----------------------------------------- Iteration    1(   4)  ---------------------------------------


    POTLOK:  cpu time   16.4052: real time   16.4498
    SETDIJ:  cpu time    0.1794: real time    0.1801
    TRIAL :  cpu time   14.3853: real time   14.4627
    CORREC:  cpu time   30.6616: real time   30.7844
    CHARGE:  cpu time    1.8552: real time    1.8637
    --------------------------------------------
      LOOP:  cpu time   63.5265: real time   63.7831

 eigenvalue-minimisations  :     0
 total energy-change (2. order) :-0.2713467E-01  (-0.6930843E-02)
 number of electron      14.0000000 magnetization 
 augmentation part        0.4258683 magnetization 

 Free energy of the ion-electron system (eV)
  ---------------------------------------------------
  alpha Z        PSCENC =         0.01771974
  Ewald energy   TEWEN  =       608.83698980
  -Hartree energ DENC   =      -995.70025773
  -exchange      EXHF   =       152.66265261
  -V(xc)+E(xc)   XCENC  =         0.00000000
  PAW double counting   =      1320.61522689    -1320.61366205
  entropy T*S    EENTRO =        -0.00000000
  eigenvalues    EBANDS =      -260.43021462
  atomic energy  EATOM  =       430.81409117
  ---------------------------------------------------
  free energy    TOTEN  =       -63.79745419 eV

  energy without entropy =      -63.79745419  energy(sigma->0) =      -63.79745419
  exchange ACFDT corr.  =         0.00000000  see jH, gK, PRB 81, 115126


--------------------------------------------------------------------------------------------------------




----------------------------------------- Iteration    1(   5)  ---------------------------------------


    POTLOK:  cpu time   16.3393: real time   16.3838
    SETDIJ:  cpu time    0.1801: real time    0.1805
    TRIAL :  cpu time   14.5243: real time   14.6405
    CORREC:  cpu time   30.5772: real time   30.7005
    CHARGE:  cpu time    1.8444: real time    1.8525
    --------------------------------------------
      LOOP:  cpu time   63.5015: real time   63.7969

 eigenvalue-minimisations  :     0
 total energy-change (2. order) :-0.6931304E-02  (-0.1966998E-02)
 number of electron      14.0000000 magnetization 
 augmentation part        0.4258227 magnetization 

 Free energy of the ion-electron system (eV)
  ---------------------------------------------------
  alpha Z        PSCENC =         0.01771974
  Ewald energy   TEWEN  =       608.83698980
  -Hartree energ DENC   =      -994.90345385
  -exchange      EXHF   =       152.57922185
  -V(xc)+E(xc)   XCENC  =         0.00000000
  PAW double counting   =      1316.42499419    -1316.42490917
  entropy T*S    EENTRO =        -0.00000000
  eigenvalues    EBANDS =      -261.14903923
  atomic energy  EATOM  =       430.81409117
  ---------------------------------------------------
  free energy    TOTEN  =       -63.80438550 eV

  energy without entropy =      -63.80438550  energy(sigma->0) =      -63.80438550
  exchange ACFDT corr.  =         0.00000000  see jH, gK, PRB 81, 115126


--------------------------------------------------------------------------------------------------------




----------------------------------------- Iteration    1(   6)  ---------------------------------------


    POTLOK:  cpu time   16.2916: real time   16.3362
    SETDIJ:  cpu time    0.1788: real time    0.1792
    TRIAL :  cpu time   14.4182: real time   14.4956
    CORREC:  cpu time   30.5008: real time   30.6245
    CHARGE:  cpu time    1.8386: real time    1.8470
    --------------------------------------------
      LOOP:  cpu time   63.2718: real time   63.5296

 eigenvalue-minimisations  :     0
 total energy-change (2. order) :-0.1967005E-02  (-0.6901301E-03)
 number of electron      14.0000000 magnetization 
 augmentation part        0.4256296 magnetization 

 Free energy of the ion-electron system (eV)
  ---------------------------------------------------
  alpha Z        PSCENC =         0.01771974
  Ewald energy   TEWEN  =       608.83698980
  -Hartree energ DENC   =      -994.81501371
  -exchange      EXHF   =       152.58553670
  -V(xc)+E(xc)   XCENC  =         0.00000000
  PAW double counting   =      1311.48659016    -1311.48685552
  entropy T*S    EENTRO =        -0.00000000
  eigenvalues    EBANDS =      -261.24541085
  atomic energy  EATOM  =       430.81409117
  ---------------------------------------------------
  free energy    TOTEN  =       -63.80635250 eV

  energy without entropy =      -63.80635250  energy(sigma->0) =      -63.80635250
  exchange ACFDT corr.  =         0.00000000  see jH, gK, PRB 81, 115126


--------------------------------------------------------------------------------------------------------




----------------------------------------- Iteration    1(   7)  ---------------------------------------


    POTLOK:  cpu time   16.2390: real time   16.2832
    SETDIJ:  cpu time    0.1786: real time    0.1791
    TRIAL :  cpu time   14.4939: real time   14.5715
    CORREC:  cpu time   30.2430: real time   30.3650
    CHARGE:  cpu time    1.8406: real time    1.8494
    --------------------------------------------
      LOOP:  cpu time   63.0366: real time   63.2922

 eigenvalue-minimisations  :     0
 total energy-change (2. order) :-0.6905385E-03  (-0.2293824E-03)
 number of electron      14.0000000 magnetization 
 augmentation part        0.4253844 magnetization 

 Free energy of the ion-electron system (eV)
  ---------------------------------------------------
  alpha Z        PSCENC =         0.01771974
  Ewald energy   TEWEN  =       608.83698980
  -Hartree energ DENC   =      -995.01127669
  -exchange      EXHF   =       152.62845770
  -V(xc)+E(xc)   XCENC  =         0.00000000
  PAW double counting   =      1307.74495399    -1307.74498948
  entropy T*S    EENTRO =        -0.00000000
  eigenvalues    EBANDS =      -261.09298928
  atomic energy  EATOM  =       430.81409117
  ---------------------------------------------------
  free energy    TOTEN  =       -63.80704304 eV

  energy without entropy =      -63.80704304  energy(sigma->0) =      -63.80704304
  exchange ACFDT corr.  =         0.00000000  see jH, gK, PRB 81, 115126


--------------------------------------------------------------------------------------------------------




----------------------------------------- Iteration    1(   8)  ---------------------------------------


    POTLOK:  cpu time   16.0409: real time   16.0846
    SETDIJ:  cpu time    0.1805: real time    0.1812
    TRIAL :  cpu time   14.4516: real time   14.5287
    CORREC:  cpu time   29.9980: real time   30.1206
    CHARGE:  cpu time    1.8461: real time    1.8546
    --------------------------------------------
      LOOP:  cpu time   62.5569: real time   62.8122

 eigenvalue-minimisations  :     0
 total energy-change (2. order) :-0.2294682E-03  (-0.7377887E-04)
 number of electron      14.0000000 magnetization 
 augmentation part        0.4252914 magnetization 

 Free energy of the ion-electron system (eV)
  ---------------------------------------------------
  alpha Z        PSCENC =         0.01771974
  Ewald energy   TEWEN  =       608.83698980
  -Hartree energ DENC   =      -995.00076510
  -exchange      EXHF   =       152.63221364
  -V(xc)+E(xc)   XCENC  =         0.00000000
  PAW double counting   =      1304.92025910    -1304.92007034
  entropy T*S    EENTRO =        -0.00000000
  eigenvalues    EBANDS =      -261.10771052
  atomic energy  EATOM  =       430.81409117
  ---------------------------------------------------
  free energy    TOTEN  =       -63.80727251 eV

  energy without entropy =      -63.80727251  energy(sigma->0) =      -63.80727251
  exchange ACFDT corr.  =        -0.00000000  see jH, gK, PRB 81, 115126


--------------------------------------------------------------------------------------------------------




----------------------------------------- Iteration    1(   9)  ---------------------------------------


    POTLOK:  cpu time   15.7902: real time   15.8333
    SETDIJ:  cpu time    0.1821: real time    0.1825
    TRIAL :  cpu time   14.5563: real time   14.6341
    CORREC:  cpu time   29.8593: real time   29.9798
    CHARGE:  cpu time    1.8528: real time    1.8613
    --------------------------------------------
      LOOP:  cpu time   62.2786: real time   62.5317

 eigenvalue-minimisations  :     0
 total energy-change (2. order) :-0.7377493E-04  (-0.3065132E-04)
 number of electron      14.0000000 magnetization 
 augmentation part        0.4253353 magnetization 

 Free energy of the ion-electron system (eV)
  ---------------------------------------------------
  alpha Z        PSCENC =         0.01771974
  Ewald energy   TEWEN  =       608.83698980
  -Hartree energ DENC   =      -994.95637230
  -exchange      EXHF   =       152.62744933
  -V(xc)+E(xc)   XCENC  =         0.00000000
  PAW double counting   =      1303.07657205    -1303.07630025
  entropy T*S    EENTRO =        -0.00000000
  eigenvalues    EBANDS =      -261.14749583
  atomic energy  EATOM  =       430.81409117
  ---------------------------------------------------
  free energy    TOTEN  =       -63.80734628 eV

  energy without entropy =      -63.80734628  energy(sigma->0) =      -63.80734628
  exchange ACFDT corr.  =         0.00000000  see jH, gK, PRB 81, 115126


--------------------------------------------------------------------------------------------------------




----------------------------------------- Iteration    1(  10)  ---------------------------------------


    POTLOK:  cpu time   15.5550: real time   15.5973
    SETDIJ:  cpu time    0.1815: real time    0.1820
    TRIAL :  cpu time   14.3968: real time   14.4745
    CORREC:  cpu time   29.5951: real time   29.7157
    CHARGE:  cpu time    1.8489: real time    1.8572
    --------------------------------------------
      LOOP:  cpu time   61.6174: real time   61.8696

 eigenvalue-minimisations  :     0
 total energy-change (2. order) :-0.3071519E-04  (-0.1378078E-04)
 number of electron      14.0000000 magnetization 
 augmentation part        0.4253932 magnetization 

 Free energy of the ion-electron system (eV)
  ---------------------------------------------------
  alpha Z        PSCENC =         0.01771974
  Ewald energy   TEWEN  =       608.83698980
  -Hartree energ DENC   =      -994.96745552
  -exchange      EXHF   =       152.63014711
  -V(xc)+E(xc)   XCENC  =         0.00000000
  PAW double counting   =      1301.90977205    -1301.90951064
  entropy T*S    EENTRO =        -0.00000000
  eigenvalues    EBANDS =      -261.13913070
  atomic energy  EATOM  =       430.81409117
  ---------------------------------------------------
  free energy    TOTEN  =       -63.80737700 eV

  energy without entropy =      -63.80737700  energy(sigma->0) =      -63.80737700
  exchange ACFDT corr.  =         0.00000000  see jH, gK, PRB 81, 115126


--------------------------------------------------------------------------------------------------------




----------------------------------------- Iteration    1(  11)  ---------------------------------------


    POTLOK:  cpu time   15.3952: real time   15.4371
    SETDIJ:  cpu time    0.1789: real time    0.1793
    TRIAL :  cpu time   14.4125: real time   14.4898
    CORREC:  cpu time   29.4314: real time   29.5516
    CHARGE:  cpu time    1.8642: real time    1.8725
    --------------------------------------------
      LOOP:  cpu time   61.3247: real time   61.5756

 eigenvalue-minimisations  :     0
 total energy-change (2. order) :-0.1380654E-04  (-0.6924056E-05)
 number of electron      14.0000000 magnetization 
 augmentation part        0.4254224 magnetization 

 Free energy of the ion-electron system (eV)
  ---------------------------------------------------
  alpha Z        PSCENC =         0.01771974
  Ewald energy   TEWEN  =       608.83698980
  -Hartree energ DENC   =      -994.97618272
  -exchange      EXHF   =       152.63154157
  -V(xc)+E(xc)   XCENC  =         0.00000000
  PAW double counting   =      1301.48589738    -1301.48569273
  entropy T*S    EENTRO =        -0.00000000
  eigenvalues    EBANDS =      -261.13175501
  atomic energy  EATOM  =       430.81409117
  ---------------------------------------------------
  free energy    TOTEN  =       -63.80739081 eV

  energy without entropy =      -63.80739081  energy(sigma->0) =      -63.80739081
  exchange ACFDT corr.  =         0.00000000  see jH, gK, PRB 81, 115126


--------------------------------------------------------------------------------------------------------




----------------------------------------- Iteration    1(  12)  ---------------------------------------


    POTLOK:  cpu time   15.2114: real time   15.2529
    SETDIJ:  cpu time    0.1779: real time    0.1786
    TRIAL :  cpu time   14.4932: real time   14.5690
    CORREC:  cpu time   29.4361: real time   29.5569
    CHARGE:  cpu time    1.8529: real time    1.8614
    --------------------------------------------
      LOOP:  cpu time   61.2138: real time   61.4634

 eigenvalue-minimisations  :     0
 total energy-change (2. order) :-0.6929452E-05  (-0.3321299E-05)
 number of electron      14.0000000 magnetization 
 augmentation part        0.4254291 magnetization 

 Free energy of the ion-electron system (eV)
  ---------------------------------------------------
  alpha Z        PSCENC =         0.01771974
  Ewald energy   TEWEN  =       608.83698980
  -Hartree energ DENC   =      -994.97294118
  -exchange      EXHF   =       152.63066397
  -V(xc)+E(xc)   XCENC  =         0.00000000
  PAW double counting   =      1301.57188251    -1301.57173188
  entropy T*S    EENTRO =        -0.00000000
  eigenvalues    EBANDS =      -261.13407187
  atomic energy  EATOM  =       430.81409117
  ---------------------------------------------------
  free energy    TOTEN  =       -63.80739773 eV

  energy without entropy =      -63.80739773  energy(sigma->0) =      -63.80739773
  exchange ACFDT corr.  =         0.00000000  see jH, gK, PRB 81, 115126


--------------------------------------------------------------------------------------------------------




----------------------------------------- Iteration    1(  13)  ---------------------------------------


    POTLOK:  cpu time   15.0830: real time   15.1241
    SETDIJ:  cpu time    0.1796: real time    0.1801
    TRIAL :  cpu time   14.4384: real time   14.5152
    CORREC:  cpu time   29.3087: real time   29.4294
    CHARGE:  cpu time    1.8565: real time    1.8649
    --------------------------------------------
      LOOP:  cpu time   60.9052: real time   61.1551

 eigenvalue-minimisations  :     0
 total energy-change (2. order) :-0.3325666E-05  (-0.1386555E-05)
 number of electron      14.0000000 magnetization 
 augmentation part        0.4254365 magnetization 

 Free energy of the ion-electron system (eV)
  ---------------------------------------------------
  alpha Z        PSCENC =         0.01771974
  Ewald energy   TEWEN  =       608.83698980
  -Hartree energ DENC   =      -994.97158836
  -exchange      EXHF   =       152.63004508
  -V(xc)+E(xc)   XCENC  =         0.00000000
  PAW double counting   =      1301.87053683    -1301.87041346
  entropy T*S    EENTRO =        -0.00000000
  eigenvalues    EBANDS =      -261.13478187
  atomic energy  EATOM  =       430.81409117
  ---------------------------------------------------
  free energy    TOTEN  =       -63.80740106 eV

  energy without entropy =      -63.80740106  energy(sigma->0) =      -63.80740106
  exchange ACFDT corr.  =         0.00000000  see jH, gK, PRB 81, 115126


--------------------------------------------------------------------------------------------------------




----------------------------------------- Iteration    1(  14)  ---------------------------------------


    POTLOK:  cpu time   15.0592: real time   15.1003
    SETDIJ:  cpu time    0.1809: real time    0.1813
    TRIAL :  cpu time   14.5097: real time   14.5872
    CORREC:  cpu time   29.4978: real time   29.6177
    CHARGE:  cpu time    1.8587: real time    1.8674
    --------------------------------------------
      LOOP:  cpu time   61.1502: real time   61.4005

 eigenvalue-minimisations  :     0
 total energy-change (2. order) :-0.1388700E-05  (-0.4674323E-06)
 number of electron      14.0000000 magnetization 
 augmentation part        0.4254443 magnetization 

 Free energy of the ion-electron system (eV)
  ---------------------------------------------------
  alpha Z        PSCENC =         0.01771974
  Ewald energy   TEWEN  =       608.83698980
  -Hartree energ DENC   =      -994.97471853
  -exchange      EXHF   =       152.63022317
  -V(xc)+E(xc)   XCENC  =         0.00000000
  PAW double counting   =      1302.12399237    -1302.12388082
  entropy T*S    EENTRO =        -0.00000000
  eigenvalues    EBANDS =      -261.13181936
  atomic energy  EATOM  =       430.81409117
  ---------------------------------------------------
  free energy    TOTEN  =       -63.80740245 eV

  energy without entropy =      -63.80740245  energy(sigma->0) =      -63.80740245
  exchange ACFDT corr.  =        -0.00000000  see jH, gK, PRB 81, 115126


--------------------------------------------------------------------------------------------------------




----------------------------------------- Iteration    1(  15)  ---------------------------------------


    POTLOK:  cpu time   15.1566: real time   15.1979
    SETDIJ:  cpu time    0.1843: real time    0.1848
    TRIAL :  cpu time   14.5327: real time   14.6115
    CORREC:  cpu time   29.4184: real time   29.5385
    CHARGE:  cpu time    1.8579: real time    1.8663
    --------------------------------------------
      LOOP:  cpu time   61.1976: real time   61.4497

 eigenvalue-minimisations  :     0
 total energy-change (2. order) :-0.4674550E-06  (-0.1703454E-06)
 number of electron      14.0000000 magnetization 
 augmentation part        0.4254502 magnetization 

 Free energy of the ion-electron system (eV)
  ---------------------------------------------------
  alpha Z        PSCENC =         0.01771974
  Ewald energy   TEWEN  =       608.83698980
  -Hartree energ DENC   =      -994.97640174
  -exchange      EXHF   =       152.63031142
  -V(xc)+E(xc)   XCENC  =         0.00000000
  PAW double counting   =      1302.24124235    -1302.24113840
  entropy T*S    EENTRO =        -0.00000000
  eigenvalues    EBANDS =      -261.13021726
  atomic energy  EATOM  =       430.81409117
  ---------------------------------------------------
  free energy    TOTEN  =       -63.80740292 eV

  energy without entropy =      -63.80740292  energy(sigma->0) =      -63.80740292
  exchange ACFDT corr.  =         0.00000000  see jH, gK, PRB 81, 115126


--------------------------------------------------------------------------------------------------------




----------------------------------------- Iteration    1(  16)  ---------------------------------------


    POTLOK:  cpu time   15.0884: real time   15.1293
    SETDIJ:  cpu time    0.1864: real time    0.1868
    TRIAL :  cpu time   14.5208: real time   14.5978
    CORREC:  cpu time   29.3682: real time   29.4879
    CHARGE:  cpu time    1.8608: real time    1.8692
    --------------------------------------------
      LOOP:  cpu time   61.0627: real time   61.3118

 eigenvalue-minimisations  :     0
 total energy-change (2. order) :-0.1703324E-06  (-0.7575697E-07)
 number of electron      14.0000000 magnetization 
 augmentation part        0.4254536 magnetization 

 Free energy of the ion-electron system (eV)
  ---------------------------------------------------
  alpha Z        PSCENC =         0.01771974
  Ewald energy   TEWEN  =       608.83698980
  -Hartree energ DENC   =      -994.97697441
  -exchange      EXHF   =       152.63030920
  -V(xc)+E(xc)   XCENC  =         0.00000000
  PAW double counting   =      1302.27990021    -1302.27980178
  entropy T*S    EENTRO =        -0.00000000
  eigenvalues    EBANDS =      -261.12963702
  atomic energy  EATOM  =       430.81409117
  ---------------------------------------------------
  free energy    TOTEN  =       -63.80740309 eV

  energy without entropy =      -63.80740309  energy(sigma->0) =      -63.80740309
  exchange ACFDT corr.  =         0.00000000  see jH, gK, PRB 81, 115126


--------------------------------------------------------------------------------------------------------




----------------------------------------- Iteration    1(  17)  ---------------------------------------


    POTLOK:  cpu time   15.1270: real time   15.1683
    SETDIJ:  cpu time    0.1821: real time    0.1825
    TRIAL :  cpu time   14.4419: real time   14.5199
    CORREC:  cpu time   29.3765: real time   29.4962
    CHARGE:  cpu time    1.8732: real time    1.8817
    --------------------------------------------
      LOOP:  cpu time   61.0390: real time   61.2897

 eigenvalue-minimisations  :     0
 total energy-change (2. order) :-0.7575227E-07  (-0.3534006E-07)
 number of electron      14.0000000 magnetization 
 augmentation part        0.4254553 magnetization 

 Free energy of the ion-electron system (eV)
  ---------------------------------------------------
  alpha Z        PSCENC =         0.01771974
  Ewald energy   TEWEN  =       608.83698980
  -Hartree energ DENC   =      -994.97693970
  -exchange      EXHF   =       152.63026693
  -V(xc)+E(xc)   XCENC  =         0.00000000
  PAW double counting   =      1302.28302234    -1302.28292736
  entropy T*S    EENTRO =        -0.00000000
  eigenvalues    EBANDS =      -261.12962609
  atomic energy  EATOM  =       430.81409117
  ---------------------------------------------------
  free energy    TOTEN  =       -63.80740316 eV

  energy without entropy =      -63.80740316  energy(sigma->0) =      -63.80740316
  exchange ACFDT corr.  =         0.00000000  see jH, gK, PRB 81, 115126


--------------------------------------------------------------------------------------------------------


  average scaling for gradient   2.5404


 average (electrostatic) potential at core
  the test charge radii are     0.7089  0.6991  0.5201
  (the norm of the test charge is              1.0000)
       1 -49.9418       2 -41.1462       3 -24.2696       4 -24.2724       5 -22.8392
       6 -22.7381       7 -22.8223
 
 
 
 E-fermi : -10.6337     XC(G=0):   0.0000     alpha+bet : -0.0076


 k-point     1 :       0.0000    0.0000    0.0000
  band No.  band energies     occupation 
      1     -31.8632      2.00000
      2     -24.3937      2.00000
      3     -17.9980      2.00000
      4     -16.4353      2.00000
      5     -15.0937      2.00000
      6     -14.0671      2.00000
      7     -10.7139      2.00000
      8       0.0052      0.00000
      9       0.1245      0.00000
     10       0.1290      0.00000
     11       0.1526      0.00000
     12       0.1732      0.00000


--------------------------------------------------------------------------------------------------------


 soft charge-density along one line, spin component           1
         0         1         2         3         4         5         6         7         8         9
 total charge-density along one line
 
 pseudopotential strength for first ion, spin component:           1
 11.014  13.178  -0.003   0.000  -0.009  -0.009   0.000  -0.027
 13.178  15.769  -0.004   0.000  -0.012  -0.011   0.000  -0.034
 -0.003  -0.004  -4.824  -0.002   0.037  -6.116  -0.003   0.058
  0.000   0.000  -0.002  -4.835   0.002  -0.003  -6.134   0.003
 -0.009  -0.012   0.037   0.002  -4.725   0.058   0.003  -5.961
 -0.009  -0.011  -6.116  -0.003   0.058  -6.938  -0.004   0.090
  0.000   0.000  -0.003  -6.134   0.003  -0.004  -6.966   0.004
 -0.027  -0.034   0.058   0.003  -5.961   0.090   0.004  -6.696
 total augmentation occupancy for first ion, spin component:           1
  9.249  -4.675   0.390  -0.047   1.373  -0.143   0.004  -0.456
 -4.675   2.495  -0.361   0.020  -1.187   0.103   0.004   0.300
  0.390  -0.361   2.813  -0.025  -0.075  -0.677  -0.004   0.084
 -0.047   0.020  -0.025   2.846  -0.015  -0.004  -0.703   0.006
  1.373  -1.187  -0.075  -0.015   2.684   0.084   0.006  -0.458
 -0.143   0.103  -0.677  -0.004   0.084   0.168   0.005  -0.029
  0.004   0.004  -0.004  -0.703   0.006   0.005   0.176  -0.002
 -0.456   0.300   0.084   0.006  -0.458  -0.029  -0.002   0.089


------------------------ aborting loop because EDIFF is reached ----------------------------------------


    FORLOC:  cpu time    1.4544: real time    1.4586
    FORHF :  cpu time    9.1579: real time    9.1846
    FORNL :  cpu time    0.3127: real time    0.3135
    FORCOR:  cpu time   13.9582: real time   13.9963
    OFIELD:  cpu time    0.0461: real time    0.0462

 VOLUME and BASIS-vectors are now :
 -----------------------------------------------------------------------------
  energy-cutoff  :     1600.00
  volume of cell :    42875.00
      direct lattice vectors                 reciprocal lattice vectors
    35.000000000  0.000000000  0.000000000     0.028571429  0.000000000  0.000000000
     0.000000000 35.000000000  0.000000000     0.000000000  0.028571429  0.000000000
     0.000000000  0.000000000 35.000000000     0.000000000  0.000000000  0.028571429

  length of vectors
    35.000000000 35.000000000 35.000000000     0.028571429  0.028571429  0.028571429


 FORCES acting on ions:
    Electron-Ion                     Ewald-Force                    Non-Local-Force
 -----------------------------------------------------------------------------------------------
   0.530E+02 0.947E+02 0.653E+02   -.818E+02 -.103E+03 -.649E+02   0.188E+02 0.563E+01 -.386E+00
   -.918E+01 -.802E+02 -.649E+02   0.922E+01 0.826E+02 0.668E+02   -.203E+00 -.189E+01 -.147E+01
   -.188E+02 -.116E+02 0.794E+02   0.206E+02 0.134E+02 -.862E+02   -.168E+01 -.164E+01 0.587E+01
   -.443E+02 0.680E+02 -.144E+02   0.485E+02 -.736E+02 0.164E+02   -.374E+01 0.481E+01 -.171E+01
   0.147E+02 0.884E+01 -.639E+02   -.162E+02 -.105E+02 0.695E+02   0.127E+01 0.141E+01 -.461E+01
   -.565E+02 -.318E+02 -.900E+01   0.619E+02 0.341E+02 0.920E+01   -.449E+01 -.192E+01 -.206E+00
   0.385E+02 -.531E+02 0.918E+01   -.423E+02 0.575E+02 -.107E+02   0.321E+01 -.360E+01 0.131E+01
 -----------------------------------------------------------------------------------------------
   -.226E+02 -.528E+01 0.169E+01   0.711E-14 0.426E-13 0.160E-13   0.131E+02 0.280E+01 -.121E+01
 
 
 POSITION                                       TOTAL-FORCE (eV/Angst)
 -----------------------------------------------------------------------------------
      2.43061     34.53957      0.19996         0.906999      0.127347     -0.173072
      2.59084      0.67478      1.11363        -0.252401     -0.112987      0.041093
      2.72688     34.81411     34.27197        -0.285024     -0.209124      0.436150
      3.05416     33.79188      0.47515        -0.417007      0.315820     -0.140076
      2.32065      0.36009      2.11929         0.053288      0.080596     -0.178068
      3.59825      1.09656      1.15060        -0.170882     -0.102562     -0.058679
      1.89830      1.46056      0.82097         0.165027     -0.099090      0.072653
 -----------------------------------------------------------------------------------
    total drift:                               -0.001023     -0.000298      0.000044


--------------------------------------------------------------------------------------------------------



  FREE ENERGIE OF THE ION-ELECTRON SYSTEM (eV)
  ---------------------------------------------------
  free  energy   TOTEN  =       -63.80740316 eV

  energy  without entropy=      -63.80740316  energy(sigma->0) =      -63.80740316
 


--------------------------------------------------------------------------------------------------------


    POTLOK:  cpu time   15.2762: real time   15.3181


--------------------------------------------------------------------------------------------------------


     LOOP+:  cpu time 1673.8864: real time 1680.1438
    4ORBIT:  cpu time    0.0000: real time    0.0000

 total amount of memory used by VASP on root node  3925733. kBytes
========================================================================

   base      :      30000. kBytes
   nonl-proj :     118384. kBytes
   fftplans  :    1395487. kBytes
   grid      :    2325657. kBytes
   one-center:          1. kBytes
   HF        :          4. kBytes
   nonlr-proj:        124. kBytes
   wavefun   :      56076. kBytes
 
  
  
 General timing and accounting informations for this job:
 ========================================================
  
                  Total CPU time used (sec):     2446.766
                            User time (sec):     2179.172
                          System time (sec):      267.594
                         Elapsed time (sec):     2461.307
  
                   Maximum memory used (kb):     5180968.
                   Average memory used (kb):           0.
  
                          Minor page faults:       520587
                          Major page faults:            0
                 Voluntary context switches:       154490
 
 PROFILE, used timers:      34
 =============================
 
 index                 routine                    time                            calls level
----------------------------------------------------------------------------------------------
    1    total_time                         2461.308923                                1   1
    2      w1_copy                               0.241096                            185   2
    3      fftwav_mpi                           38.169769                            182   2
    4      fftext_mpi                            0.401707                              3   2
    5      overl                                 0.000099                            120   2
    6      orth1                                 0.159988                             69   2
    7      lincom                                0.339339                            103   2
    8      fock_acc                            195.651806                             34   2
    9        w1_copy                               0.258760                          119   3
   10        fftwav_mpi                           12.448072                          119   3
   11        fock_charge_mu                        9.064148                           68   3
   12          racc0mu_hf                            0.107456                         68   4
   13        rpromu_hf                             0.394829                           68   3
   14        overl1                                0.000059                           51   3
   15        fftext_mpi                            4.155316                           51   3
   16      hamilt_local                         10.894287                             51   2
   17        vhamil                                2.524077                           51   3
   18        kinhamil                              8.370092                           51   3
   19          fftext_mpi                            8.299492                         51   4
   20      eccp                                  6.234215                            153   2
   21      w1_dscal                              1.215162                             51   2
   22      pdssyex_zheevx                        0.249691                             34   2
   23      eddiag                              208.163987                             17   2
   24        fock_acc                            195.708157                           34   3
   25          w1_copy                               0.215451                        119   4
   26          fftwav_mpi                           13.183421                        119   4
   27          fock_charge_mu                        9.107665                         68   4
   28            racc0mu_hf                            0.163681                       68   5
   29          rpromu_hf                             0.470216                         68   4
   30          overl1                                0.000053                         51   4
   31          fftext_mpi                            4.128667                         51   4
   32        fftwav_mpi                           10.320727                           51   3
   33        eccp                                  1.943764                           51   3
   34      rpro1_hf                              0.131436                             96   2
 
 Flat profile
 ============
 
             routine name                   CPU           calls
 ---------------------------------------------------------------
 total_time                           1999.456343           1
 fock_acc                              337.933306          68
 fftwav_mpi                             74.121989         471
 fock_charge_mu                         17.900676         136
 fftext_mpi                             16.985182         156
 eccp                                    8.177979         204
 vhamil                                  2.524077          51
 w1_dscal                                1.215162          51
 rpromu_hf                               0.865044         136
 w1_copy                                 0.715308         423
 lincom                                  0.339339         103
 racc0mu_hf                              0.271137         136
 pdssyex_zheevx                          0.249691          34
 eddiag                                  0.191339          17
 orth1                                   0.159988          69
 rpro1_hf                                0.131436          96
 kinhamil                                0.070600          51
 hamilt_local                            0.000118          51
 overl1                                  0.000112         102
 overl                                   0.000099         120
 ---------------------------------------------------------------
  summed up times    2461.30892300606     
 
Profiling took   0.005084  0.003797  0.003413  0.003391 seconds
Profiling took   0.001428 seconds
