 vasp.5.4.1 24Jun15 (build Jan 02 2020 16:21:29) gamma-only                     
  
 executed on           IFC15_impi date 2020.05.06  19:23:52
 running on   48 total cores
 distrk:  each k-point on   48 cores,    1 groups
 distr:  one band on NCORES_PER_BAND=   8 cores,    6 groups


--------------------------------------------------------------------------------------------------------


 INCAR:
 POTCAR:    PAW_PBE C 08Apr2002                   
 POTCAR:    PAW_PBE H 15Jun2001                   
 POTCAR:    PAW_PBE C 08Apr2002                   
   VRHFIN =C: s2p2                                                              
   LEXCH  = PE                                                                  
   EATOM  =   147.1560 eV,   10.8157 Ry                                         
                                                                                
   TITEL  = PAW_PBE C 08Apr2002                                                 
   LULTRA =        F    use ultrasoft PP ?                                      
   IUNSCR =        1    unscreen: 0-lin 1-nonlin 2-no                           
   RPACOR =    1.200    partial core radius                                     
   POMASS =   12.011; ZVAL   =    4.000    mass and valenz                      
   RCORE  =    1.500    outmost cutoff radius                                   
   RWIGS  =    1.630; RWIGS  =    0.863    wigner-seitz radius (au A)           
   ENMAX  =  400.000; ENMIN  =  300.000 eV                                      
   ICORE  =        2    local potential                                         
   LCOR   =        T    correct aug charges                                     
   LPAW   =        T    paw PP                                                  
   EAUG   =  644.873                                                            
   DEXC   =    0.000                                                            
   RMAX   =    1.529    core radius for proj-oper                               
   RAUG   =    1.300    factor for augmentation sphere                          
   RDEP   =    1.501    radius for radial grids                                 
   RDEPT  =    1.300    core radius for aug-charge                              
                                                                                
   Atomic configuration                                                         
    4 entries                                                                   
     n  l   j            E        occ.                                          
     1  0  0.50      -273.3789   2.0000                                         
     2  0  0.50       -13.7508   2.0000                                         
     2  1  0.50        -5.2854   2.0000                                         
     3  2  1.50        -5.4423   0.0000                                         
   Description                                                                  
     l       E           TYP  RCUT    TYP  RCUT                                 
     0    -13.7508458     23  1.200                                             
     0     -8.2022199     23  1.200                                             
     1     -5.2854383     23  1.500                                             
     1     34.0145650     23  1.500                                             
     2     -5.4423304      7  1.500                                             
  local pseudopotential read in
  partial core-charges read in
  partial kinetic energy density read in
  atomic valenz-charges read in
  non local Contribution for L=           0  read in
    real space projection operators read in
  non local Contribution for L=           0  read in
    real space projection operators read in
  non local Contribution for L=           1  read in
    real space projection operators read in
  non local Contribution for L=           1  read in
    real space projection operators read in
    PAW grid and wavefunctions read in
 
   number of l-projection  operators is LMAX  =           4
   number of lm-projection operators is LMMAX =           8
 
 POTCAR:    PAW_PBE H 15Jun2001                   
   VRHFIN =H: ultrasoft test                                                    
   LEXCH  = PE                                                                  
   EATOM  =    12.4884 eV,    0.9179 Ry                                         
                                                                                
   TITEL  = PAW_PBE H 15Jun2001                                                 
   LULTRA =        F    use ultrasoft PP ?                                      
   IUNSCR =        0    unscreen: 0-lin 1-nonlin 2-no                           
   RPACOR =    0.000    partial core radius                                     
   POMASS =    1.000; ZVAL   =    1.000    mass and valenz                      
   RCORE  =    1.100    outmost cutoff radius                                   
   RWIGS  =    0.700; RWIGS  =    0.370    wigner-seitz radius (au A)           
   ENMAX  =  250.000; ENMIN  =  200.000 eV                                      
   RCLOC  =    0.701    cutoff for local pot                                    
   LCOR   =        T    correct aug charges                                     
   LPAW   =        T    paw PP                                                  
   EAUG   =  400.000                                                            
   RMAX   =    1.123    core radius for proj-oper                               
   RAUG   =    1.200    factor for augmentation sphere                          
   RDEP   =    1.112    radius for radial grids                                 
   RDEPT  =    0.926    core radius for aug-charge                              
                                                                                
   Atomic configuration                                                         
    2 entries                                                                   
     n  l   j            E        occ.                                          
     1  0  0.50        -6.4927   1.0000                                         
     2  1  0.50        -3.4015   0.0000                                         
   Description                                                                  
     l       E           TYP  RCUT    TYP  RCUT                                 
     0     -6.4927494     23  1.100                                             
     0      6.8029130     23  1.100                                             
     1     -4.0817478     23  1.100                                             
  local pseudopotential read in
  atomic valenz-charges read in
  non local Contribution for L=           0  read in
    real space projection operators read in
  non local Contribution for L=           0  read in
    real space projection operators read in
  non local Contribution for L=           1  read in
    real space projection operators read in
    PAW grid and wavefunctions read in
 
   number of l-projection  operators is LMAX  =           3
   number of lm-projection operators is LMMAX =           5
 
  PAW_PBE C 08Apr2002                   :
 energy of atom  1       EATOM= -147.1560
 kinetic energy error for atom=    0.0002 (will be added to EATOM!!)
  PAW_PBE H 15Jun2001                   :
 energy of atom  2       EATOM=  -12.4884
 kinetic energy error for atom=    0.0000 (will be added to EATOM!!)
 
 
 POSCAR: C H                                     
  positions in cartesian coordinates
  No initial velocities read in
 exchange correlation table for  LEXCH =        8
   RHO(1)=    0.500       N(1)  =     2000
   RHO(2)=  100.500       N(2)  =     4000
 


--------------------------------------------------------------------------------------------------------


 ion  position               nearest neighbor table
   1  0.020  0.032  0.002-   7 1.08   2 1.39   6 1.39
   2  0.036  0.995  0.004-   8 1.08   1 1.39   3 1.39
   3  0.012  0.964  0.001-   9 1.08   2 1.39   4 1.39
   4  0.973  0.968  0.997-  10 1.08   3 1.39   5 1.39
   5  0.957  0.005  0.995-  11 1.08   6 1.39   4 1.39
   6  0.981  0.037  0.998-  12 1.08   5 1.39   1 1.39
   7  0.039  0.057  0.004-   1 1.08
   8  0.066  0.992  0.007-   2 1.08
   9  0.024  0.935  0.003-   3 1.08
  10  0.954  0.944  0.995-   4 1.08
  11  0.927  0.009  0.992-   5 1.08
  12  0.969  0.065  0.996-   6 1.08
 
  LATTYP: Found a simple cubic cell.
 ALAT       =    35.0000000000
  
  Lattice vectors:
  
 A1 = (  35.0000000000,   0.0000000000,   0.0000000000)
 A2 = (   0.0000000000,  35.0000000000,   0.0000000000)
 A3 = (   0.0000000000,   0.0000000000,  35.0000000000)


Analysis of symmetry for initial positions (statically):
=====================================================================
 Subroutine PRICEL returns:
 Original cell was already a primitive cell.
 

 Routine SETGRP: Setting up the symmetry group for a 
 simple cubic supercell.


 Subroutine GETGRP returns: Found  1 space group operations
 (whereof  1 operations were pure point group operations)
 out of a pool of 48 trial point group operations.


The static configuration has the point symmetry C_1 .


Analysis of symmetry for dynamics (positions and initial velocities):
=====================================================================
 Subroutine PRICEL returns:
 Original cell was already a primitive cell.
 

 Routine SETGRP: Setting up the symmetry group for a 
 simple cubic supercell.


 Subroutine GETGRP returns: Found  1 space group operations
 (whereof  1 operations were pure point group operations)
 out of a pool of 48 trial point group operations.


The dynamic configuration has the point symmetry C_1 .
 
 
 KPOINTS: automatic mesh                          

Automatic generation of k-mesh.
Space group operators:
 irot       det(A)        alpha          n_x          n_y          n_z        tau_x        tau_y        tau_z
    1     1.000000     0.000000     1.000000     0.000000     0.000000     0.000000     0.000000     0.000000
 
 Subroutine IBZKPT returns following result:
 ===========================================
 
 Found      1 irreducible k-points:
 
 Following reciprocal coordinates:
            Coordinates               Weight
  0.000000  0.000000  0.000000      1.000000
 
 Following cartesian coordinates:
            Coordinates               Weight
  0.000000  0.000000  0.000000      1.000000
 
 
 Subroutine IBZKPT_HF returns following result:
 ==============================================
 
 Found      1 k-points in 1st BZ
 the following      1 k-points will be used (e.g. in the exchange kernel)
 Following reciprocal coordinates:   # in IRBZ
  0.000000  0.000000  0.000000    1.00000000   1 t-inv F


--------------------------------------------------------------------------------------------------------




 Dimension of arrays:
   k-points           NKPTS =      1   k-points in BZ     NKDIM =      1   number of bands    NBANDS=     24
   number of dos      NEDOS =    301   number of ions     NIONS =     12
   non local maximal  LDIM  =      4   non local SUM 2l+1 LMDIM =      8
   total plane-waves  NPLWV = ******
   max r-space proj   IRMAX =      1   max aug-charges    IRDMAX=  30635
   dimension x,y,z NGX =   480 NGY =  480 NGZ =  480
   dimension x,y,z NGXF=   960 NGYF=  960 NGZF=  960
   support grid    NGXF=   960 NGYF=  960 NGZF=  960
   ions per type =               6   6
 NGX,Y,Z   is equivalent  to a cutoff of  22.80, 22.80, 22.80 a.u.
 NGXF,Y,Z  is equivalent  to a cutoff of  45.60, 45.60, 45.60 a.u.


 I would recommend the setting:
   dimension x,y,z NGX =   457 NGY =  457 NGZ =  457
 SYSTEM =  C                                       
 POSCAR =  C H                                     

 Startparameter for this run:
   NWRITE =      2    write-flag & timer
   PREC   = accura    normal or accurate (medium, high low for compatibility)
   ISTART =      0    job   : 0-new  1-cont  2-samecut
   ICHARG =      2    charge: 1-file 2-atom 10-const
   ISPIN  =      1    spin polarized calculation?
   LNONCOLLINEAR =      F non collinear calculations
   LSORBIT =      F    spin-orbit coupling
   INIWAV =      1    electr: 0-lowe 1-rand  2-diag
   LASPH  =      T    aspherical Exc in radial PAW
   METAGGA=      F    non-selfconsistent MetaGGA calc.

 Electronic Relaxation 1
   ENCUT  = 1600.0 eV 117.60 Ry   10.84 a.u. 114.15114.15114.15*2*pi/ulx,y,z
   ENINI  = 1600.0     initial cutoff
   ENAUG  =  644.9 eV  augmentation charge cutoff
   NELM   =     60;   NELMIN=  2; NELMDL= -5     # of ELM steps 
   EDIFF  = 0.1E-06   stopping-criterion for ELM
   LREAL  =      F    real-space projection
   NLSPLINE    = F    spline interpolate recip. space projectors
   LCOMPAT=      F    compatible to vasp.4.4
   GGA_COMPAT  = T    GGA compatible to vasp.4.4-vasp.4.6
   LMAXPAW     = -100 max onsite density
   LMAXMIX     =    2 max onsite mixed and CHGCAR
   VOSKOWN=      0    Vosko Wilk Nusair interpolation
   ROPT   =    0.00000   0.00000
 Ionic relaxation
   EDIFFG = 0.1E-05   stopping-criterion for IOM
   NSW    =      0    number of steps for IOM
   NBLOCK =      1;   KBLOCK =      1    inner block; outer block 
   IBRION =     -1    ionic relax: 0-MD 1-quasi-New 2-CG
   NFREE  =      0    steps in history (QN), initial steepest desc. (CG)
   ISIF   =      0    stress and relaxation
   IWAVPR =     10    prediction:  0-non 1-charg 2-wave 3-comb
   ISYM   =      3    0-nonsym 1-usesym 2-fastsym
   LCORR  =      T    Harris-Foulkes like correction to forces

   POTIM  = 0.5000    time-step for ionic-motion
   TEIN   =    0.0    initial temperature
   TEBEG  =    0.0;   TEEND  =   0.0 temperature during run
   SMASS  =  -3.00    Nose mass-parameter (am)
   estimated Nose-frequenzy (Omega)   =  0.10E-29 period in steps =****** mass=  -0.280E-25a.u.
   SCALEE = 1.0000    scale energy and forces
   NPACO  =    256;   APACO  = 16.0  distance and # of slots for P.C.
   PSTRESS=    0.0 pullay stress

  Mass of Ions in am
   POMASS =  12.01  1.00
  Ionic Valenz
   ZVAL   =   4.00  1.00
  Atomic Wigner-Seitz radii
   RWIGS  =  -1.00 -1.00
  virtual crystal weights 
   VCA    =   1.00  1.00
   NELECT =      30.0000    total number of electrons
   NUPDOWN=      -1.0000    fix difference up-down

 DOS related values:
   EMIN   =  10.00;   EMAX   =-10.00  energy-range for DOS
   EFERMI =   0.00
   ISMEAR =     0;   SIGMA  =   0.01  broadening in eV -4-tet -1-fermi 0-gaus

 Electronic relaxation 2 (details)
   IALGO  =     58    algorithm
   LDIAG  =      T    sub-space diagonalisation (order eigenvalues)
   LSUBROT=      F    optimize rotation matrix (better conditioning)
   TURBO    =      0    0=normal 1=particle mesh
   IRESTART =      0    0=no restart 2=restart with 2 vectors
   NREBOOT  =      0    no. of reboots
   NMIN     =      0    reboot dimension
   EREF     =   0.00    reference energy to select bands
   IMIX   =      4    mixing-type and parameters
     AMIX     =   0.40;   BMIX     =  1.00
     AMIX_MAG =   1.60;   BMIX_MAG =  1.00
     AMIN     =   0.10
     WC   =   100.;   INIMIX=   1;  MIXPRE=   1;  MAXMIX= -45

 Intra band minimization:
   WEIMIN = 0.0000     energy-eigenvalue tresh-hold
   EBREAK =  0.10E-08  absolut break condition
   DEPER  =   0.30     relativ break condition  

   TIME   =   0.40     timestep for ELM

  volume/ion in A,a.u.               =    3572.92     24111.23
  Fermi-wavevector in a.u.,A,eV,Ry     =   0.145338  0.274650  0.287399  0.021123
  Thomas-Fermi vector in A             =   0.812913
 
 Write flags
   LWAVE  =      F    write WAVECAR
   LCHARG =      T    write CHGCAR
   LVTOT  =      F    write LOCPOT, total local potential
   LVHAR  =      F    write LOCPOT, Hartree potential only
   LELF   =      F    write electronic localiz. function (ELF)
   LORBIT =      0    0 simple, 1 ext, 2 COOP (PROOUT)


 Dipole corrections
   LMONO  =      F    monopole corrections only (constant potential shift)
   LDIPOL =      F    correct potential (dipole corrections)
   IDIPOL =      0    1-x, 2-y, 3-z, 4-all directions 
   EPSILON=  1.0000000 bulk dielectric constant

 Exchange correlation treatment:
   GGA     =    --    GGA type
   LEXCH   =     8    internal setting for exchange type
   VOSKOWN=      0    Vosko Wilk Nusair interpolation
   EXXOEP  =     0    0=HF, 1=EXX-LHF (local Hartree Fock) 2=EXX OEP
   LHFCALC =     T    Hartree Fock is set to
   LSYMGRAD=     F    symmetrize gradient (conserves proper symmetry)
   PRECFOCK=normal    Normal, Fast or Accurate (Low or Medium for compatibility)
   LRHFCALC=     F    long range Hartree Fock
   LRSCOR  =     F    long range correlation only (use DFT for short range part)
   LTHOMAS =     F    Thomas Fermi screening in HF
   LMODELHF=     F    short range full HF, long range fraction AEXX
   ENCUT4O =  -1.0   cutoff for four orbital integrals eV
   LMAXFOCK=     4    L truncation for augmentation on plane wave grid
   LMAXFOCKAE=  -1    L truncation for all-electron charge restoration on plane wave grid
   NMAXFOCKAE=   1    number of basis functions for all-electron charge restoration
   LFOCKAEDFT=     F  apply the AE augmentation even for DFT
   NKREDX  =     1    reduce k-point grid by
   NKREDY  =     1    reduce k-point grid by
   NKREDZ  =     1    reduce k-point grid by
   SHIFTRED=     F    shift reduced grid of Gamma
   HFKIDENT=     F    idential grid for each k-point
   ODDONLY =     F    use only odd q-grid points
   EVENONLY=     F    use only even q-grid points
   HFALPHA =   -1.0000 decay constant for conv. correction
   MCALPHA =    0.0000 extent of test-charge in conv. correction in multipole expansion
   AEXX    =    1.0000 exact exchange contribution
   HFSCREEN=    0.0000 screening length (either q_TF or 0.3 A-1)
   HFSCREENC=   0.0000 screening length for correlation (either q_TF or 0.3 A-1)
   HFRCUT  =    0.0000 spherical cutoff for potential kernel
   ALDAX   =    0.0000 LDA exchange part
   AGGAX   =    0.0000 GGA exchange part
   ALDAC   =    0.0000 LDA correlation
   AGGAC   =    0.0000 GGA correlation
   NBANDSGWLOW=     1    first orbital included in HF term
   ENCUTFOCK=  -1.0 apply spherical cutoff to Coloumb kernel
 Linear response parameters
   LEPSILON=     F    determine dielectric tensor
   LRPA    =     F    only Hartree local field effects (RPA)
   LNABLA  =     F    use nabla operator in PAW spheres
   LVEL    =     F    velocity operator in full k-point grid
   LINTERFAST=   F  fast interpolation
   KINTER  =     0    interpolate to denser k-point grid
   CSHIFT  =0.1000    complex shift for real part using Kramers Kronig
   OMEGAMAX=  -1.0    maximum frequency
   DEG_THRESHOLD= 0.2000000E-02 threshold for treating states as degnerate
   RTIME   =    0.100 relaxation time in fs

 Orbital magnetization related:
   ORBITALMAG=     F  switch on orbital magnetization
   LCHIMAG   =     F  perturbation theory with respect to B field
   DQ        =  0.001000  dq finite difference perturbation B field



--------------------------------------------------------------------------------------------------------


 Static calculation
 charge density and potential will be updated during run
 non-spin polarized calculation
 Conjugate gradient for all bands (Freysoldt, et al. PRB 79, 241103 (2009))
 preconditioned conjugated gradient                                        
 perform sub-space diagonalisation
    before iterative eigenvector-optimisation
 modified Broyden-mixing scheme, WC =      100.0
 initial mixing is a Kerker type mixing with AMIX =  0.4000 and BMIX =      1.0000
 Hartree-type preconditioning will be used
 using additional bands            9
 reciprocal scheme for non local part
 use partial core corrections
 no Harris-corrections to forces 
 use gradient corrections 
 use of overlap-Matrix (Vanderbilt PP)
 Gauss-broadening in eV      SIGMA  =   0.01


--------------------------------------------------------------------------------------------------------


  energy-cutoff  :     1600.00
  volume of cell :    42875.00
      direct lattice vectors                 reciprocal lattice vectors
    35.000000000  0.000000000  0.000000000     0.028571429  0.000000000  0.000000000
     0.000000000 35.000000000  0.000000000     0.000000000  0.028571429  0.000000000
     0.000000000  0.000000000 35.000000000     0.000000000  0.000000000  0.028571429

  length of vectors
    35.000000000 35.000000000 35.000000000     0.028571429  0.028571429  0.028571429


 
 k-points in units of 2pi/SCALE and weight: automatic mesh                          
   0.00000000  0.00000000  0.00000000       1.000
 
 k-points in reciprocal lattice and weights: automatic mesh                          
   0.00000000  0.00000000  0.00000000       1.000
 
 position of ions in fractional coordinates (direct lattice) 
   0.02036130  0.03202845  0.00172974
   0.03594959  0.99544995  0.00354953
   0.01219671  0.96358495  0.00121858
   0.97286920  0.96828360  0.99713390
   0.95727070  0.00488716  0.99538440
   0.98103350  0.03676123  0.99761710
   0.03879548  0.05675426  0.00364963
   0.06642727  0.99179715  0.00704980
   0.02429842  0.93518764  0.00270714
   0.95444412  0.94353504  0.99532247
   0.92674906  0.00854918  0.99217991
   0.96894569  0.06517143  0.99620325
 
 position of ions in cartesian coordinates  (Angst):
   0.71264533  1.12099570  0.06054078
   1.25823573 34.84074810  0.12423352
   0.42688496 33.72547334  0.04265043
  34.05042215 33.88992594 34.89968640
  33.50447436  0.17105056 34.83845398
  34.33617240  1.28664289 34.91659857
   1.35784165  1.98639917  0.12773717
   2.32495428 34.71290012  0.24674304
   0.85044465 32.73156732  0.09474995
  33.40554430 33.02372630 34.83628652
  32.43621721  0.29922115 34.72629689
  33.91309930  2.28100020 34.86711386
 


--------------------------------------------------------------------------------------------------------


 use parallel FFT for wavefunctions z direction half grid
 k-point  1 :   0.0000 0.0000 0.0000  plane waves: 3115599

 maximum and minimum number of plane-waves per node :    389462   389421

 maximum number of plane-waves:   3115599
 maximum index in each direction: 
   IXMAX=  114   IYMAX=  114   IZMAX=  114
   IXMIN= -114   IYMIN= -114   IZMIN=    0

 NGX is ok and might be reduce to 458
 NGY is ok and might be reduce to 458
 NGZ is ok and might be reduce to 458

 parallel 3D FFT for wavefunctions:
    minimum data exchange during FFTs selected (reduces bandwidth)
 parallel 3D FFT for charge:
    minimum data exchange during FFTs selected (reduces bandwidth)


 FFT grid for exact exchange (Hartree Fock) 
  NGX =350; NGY =350; NGZ =350

 use parallel FFT for wavefunctions z direction half grid
 
 Radii for the augmentation spheres in the non-local exchange
 for species   1 augmentation radius   0.874 (default was   0.699)
       energy cutoff for augmentation   6400.0
 for species   2 augmentation radius   0.650 (default was   0.520)
       energy cutoff for augmentation   6400.0

 real space projection operators:
  total allocation   :       1664.51 KBytes
  max/ min on nodes  :        219.73        184.64

 Maximum index for augmentation-charges in exchange          407
  SETUP_FOCK is finished

 total amount of memory used by VASP on root node  2902885. kBytes
========================================================================

   base      :      30000. kBytes
   nonl-proj :     124615. kBytes
   fftplans  :    1086078. kBytes
   grid      :    1587148. kBytes
   one-center:          3. kBytes
   HF        :          9. kBytes
   nonlr-proj:        263. kBytes
   wavefun   :      74769. kBytes
 
     INWAV:  cpu time    0.0000: real time    0.0000
 Broyden mixing: mesh for mixing (old mesh)
   NGX =229   NGY =229   NGZ =229
  (NGX  =960   NGY  =960   NGZ  =960)
  gives a total of ****** points

 initial charge density was supplied:
 charge density of overlapping atoms calculated
 number of electron      30.0000000 magnetization 
 keeping initial charge density in first step


--------------------------------------------------------------------------------------------------------


 Maximum index for augmentation-charges         1004 (set IRDMAX)


--------------------------------------------------------------------------------------------------------


 FEWALD executed in parallel
    FEWALD:  cpu time    0.0006: real time    0.0006


----------------------------------------- Iteration    1(   1)  ---------------------------------------


    POTLOK:  cpu time    9.8882: real time    9.9179
    SETDIJ:  cpu time    0.0541: real time    0.0543
    TRIAL :  cpu time    7.1644: real time    7.1905
    CORREC:  cpu time    0.0002: real time    0.0002
    --------------------------------------------
      LOOP:  cpu time   17.1721: real time   17.2303

 eigenvalue-minimisations  :    48
 total energy-change (2. order) : 0.2529401E+03  (-0.4827046E+03)
 number of electron      30.0000000 magnetization 
 augmentation part       30.0000000 magnetization 

 Free energy of the ion-electron system (eV)
  ---------------------------------------------------
  alpha Z        PSCENC =         0.09644577
  Ewald energy   TEWEN  =      2286.97567437
  -Hartree energ DENC   =     -2896.25912057
  -exchange      EXHF   =         0.00000000
  -V(xc)+E(xc)   XCENC  =         0.00000000
  PAW double counting   =       737.20683752     -737.75327021
  entropy T*S    EENTRO =        -0.00786483
  eigenvalues    EBANDS =        -5.74732130
  atomic energy  EATOM  =       868.42867012
  ---------------------------------------------------
  free energy    TOTEN  =       252.94005087 eV

  energy without entropy =      252.94791570  energy(sigma->0) =      252.94398328
  exchange ACFDT corr.  =         0.00000000  see jH, gK, PRB 81, 115126


--------------------------------------------------------------------------------------------------------




----------------------------------------- Iteration    1(   2)  ---------------------------------------


    TRIAL :  cpu time    9.5069: real time    9.5418
    CORREC:  cpu time    0.0002: real time    0.0002
    --------------------------------------------
      LOOP:  cpu time    9.5095: real time    9.5477

 eigenvalue-minimisations  :    72
 total energy-change (2. order) :-0.5669008E+02  (-0.5628683E+02)
 number of electron      30.0000000 magnetization 
 augmentation part       30.0000000 magnetization 

 Free energy of the ion-electron system (eV)
  ---------------------------------------------------
  alpha Z        PSCENC =         0.09644577
  Ewald energy   TEWEN  =      2286.97567437
  -Hartree energ DENC   =     -2896.25912057
  -exchange      EXHF   =         0.00000000
  -V(xc)+E(xc)   XCENC  =         0.00000000
  PAW double counting   =       737.20683752     -737.75327021
  entropy T*S    EENTRO =        -0.00000000
  eigenvalues    EBANDS =       -62.44526346
  atomic energy  EATOM  =       868.42867012
  ---------------------------------------------------
  free energy    TOTEN  =       196.24997354 eV

  energy without entropy =      196.24997354  energy(sigma->0) =      196.24997354
  exchange ACFDT corr.  =         0.00000000  see jH, gK, PRB 81, 115126


--------------------------------------------------------------------------------------------------------




----------------------------------------- Iteration    1(   3)  ---------------------------------------


    TRIAL :  cpu time    9.4975: real time    9.5325
    CORREC:  cpu time    0.0002: real time    0.0002
    --------------------------------------------
      LOOP:  cpu time    9.4995: real time    9.5375

 eigenvalue-minimisations  :    72
 total energy-change (2. order) :-0.2358253E+02  (-0.2350477E+02)
 number of electron      30.0000000 magnetization 
 augmentation part       30.0000000 magnetization 

 Free energy of the ion-electron system (eV)
  ---------------------------------------------------
  alpha Z        PSCENC =         0.09644577
  Ewald energy   TEWEN  =      2286.97567437
  -Hartree energ DENC   =     -2896.25912057
  -exchange      EXHF   =         0.00000000
  -V(xc)+E(xc)   XCENC  =         0.00000000
  PAW double counting   =       737.20683752     -737.75327021
  entropy T*S    EENTRO =        -0.01575749
  eigenvalues    EBANDS =       -86.01203484
  atomic energy  EATOM  =       868.42867012
  ---------------------------------------------------
  free energy    TOTEN  =       172.66744466 eV

  energy without entropy =      172.68320216  energy(sigma->0) =      172.67532341
  exchange ACFDT corr.  =         0.00000000  see jH, gK, PRB 81, 115126


--------------------------------------------------------------------------------------------------------




----------------------------------------- Iteration    1(   4)  ---------------------------------------


    TRIAL :  cpu time   11.9214: real time   11.9655
    CORREC:  cpu time    0.0002: real time    0.0002
    --------------------------------------------
      LOOP:  cpu time   11.9234: real time   11.9708

 eigenvalue-minimisations  :    96
 total energy-change (2. order) :-0.8864756E+01  (-0.7994077E+01)
 number of electron      30.0000000 magnetization 
 augmentation part       30.0000000 magnetization 

 Free energy of the ion-electron system (eV)
  ---------------------------------------------------
  alpha Z        PSCENC =         0.09644577
  Ewald energy   TEWEN  =      2286.97567437
  -Hartree energ DENC   =     -2896.25912057
  -exchange      EXHF   =         0.00000000
  -V(xc)+E(xc)   XCENC  =         0.00000000
  PAW double counting   =       737.20683752     -737.75327021
  entropy T*S    EENTRO =        -0.00000386
  eigenvalues    EBANDS =       -94.89254482
  atomic energy  EATOM  =       868.42867012
  ---------------------------------------------------
  free energy    TOTEN  =       163.80268831 eV

  energy without entropy =      163.80269217  energy(sigma->0) =      163.80269024
  exchange ACFDT corr.  =         0.00000000  see jH, gK, PRB 81, 115126


--------------------------------------------------------------------------------------------------------




----------------------------------------- Iteration    1(   5)  ---------------------------------------


    TRIAL :  cpu time    8.2935: real time    8.3242
    CORREC:  cpu time    0.0001: real time    0.0001
    CHARGE:  cpu time    2.0570: real time    2.0629
    --------------------------------------------
      LOOP:  cpu time   10.3524: real time   10.3921

 eigenvalue-minimisations  :    60
 total energy-change (2. order) :-0.5556642E+01  (-0.5541279E+01)
 number of electron      30.0000000 magnetization 
 augmentation part        0.0233528 magnetization 

 Free energy of the ion-electron system (eV)
  ---------------------------------------------------
  alpha Z        PSCENC =         0.09644577
  Ewald energy   TEWEN  =      2286.97567437
  -Hartree energ DENC   =     -2896.25912057
  -exchange      EXHF   =         0.00000000
  -V(xc)+E(xc)   XCENC  =         0.00000000
  PAW double counting   =       737.20683752     -737.75327021
  entropy T*S    EENTRO =        -0.00000000
  eigenvalues    EBANDS =      -100.44919069
  atomic energy  EATOM  =       868.42867012
  ---------------------------------------------------
  free energy    TOTEN  =       158.24604630 eV

  energy without entropy =      158.24604630  energy(sigma->0) =      158.24604630
  exchange ACFDT corr.  =         0.00000000  see jH, gK, PRB 81, 115126


--------------------------------------------------------------------------------------------------------




----------------------------------------- Iteration    1(   6)  ---------------------------------------


    POTLOK:  cpu time   10.7007: real time   10.7301
    SETDIJ:  cpu time    0.0549: real time    0.0550
    TRIAL :  cpu time   35.2035: real time   35.3126
    CORREC:  cpu time   44.7645: real time   44.8955
    CHARGE:  cpu time    1.7866: real time    1.7914
    --------------------------------------------
      LOOP:  cpu time   92.5135: real time   92.7913

 eigenvalue-minimisations  :     0
 total energy-change (2. order) : 0.2023164E+03  (-0.1312674E+03)
 number of electron      30.0000000 magnetization 
 augmentation part        0.0333458 magnetization 

 Free energy of the ion-electron system (eV)
  ---------------------------------------------------
  alpha Z        PSCENC =         0.09644577
  Ewald energy   TEWEN  =      2286.97567437
  -Hartree energ DENC   =     -1208.96821435
  -exchange      EXHF   =       166.26012312
  -V(xc)+E(xc)   XCENC  =         0.00000000
  PAW double counting   =      2109.16884286    -2109.39861278
  entropy T*S    EENTRO =        -0.00000000
  eigenvalues    EBANDS =     -1752.00045764
  atomic energy  EATOM  =       868.42867012
  ---------------------------------------------------
  free energy    TOTEN  =       360.56247148 eV

  energy without entropy =      360.56247148  energy(sigma->0) =      360.56247148
  exchange ACFDT corr.  =        -0.00000000  see jH, gK, PRB 81, 115126


--------------------------------------------------------------------------------------------------------




----------------------------------------- Iteration    1(   7)  ---------------------------------------


    POTLOK:  cpu time   10.7076: real time   10.7374
    SETDIJ:  cpu time    0.0542: real time    0.0543
    TRIAL :  cpu time   35.2740: real time   35.3829
    CORREC:  cpu time   44.6594: real time   44.7896
    CHARGE:  cpu time    1.7896: real time    1.7946
    --------------------------------------------
      LOOP:  cpu time   92.4906: real time   92.7676

 eigenvalue-minimisations  :     0
 total energy-change (2. order) :-0.9055486E+02  (-0.5047158E+02)
 number of electron      30.0000000 magnetization 
 augmentation part        0.0406918 magnetization 

 Free energy of the ion-electron system (eV)
  ---------------------------------------------------
  alpha Z        PSCENC =         0.09644577
  Ewald energy   TEWEN  =      2286.97567437
  -Hartree energ DENC   =     -1378.75226827
  -exchange      EXHF   =       183.31901196
  -V(xc)+E(xc)   XCENC  =         0.00000000
  PAW double counting   =      2183.45586252    -2183.75766479
  entropy T*S    EENTRO =        -0.00000000
  eigenvalues    EBANDS =     -1689.75812426
  atomic energy  EATOM  =       868.42867012
  ---------------------------------------------------
  free energy    TOTEN  =       270.00760743 eV

  energy without entropy =      270.00760743  energy(sigma->0) =      270.00760743
  exchange ACFDT corr.  =        -0.00000000  see jH, gK, PRB 81, 115126


--------------------------------------------------------------------------------------------------------




----------------------------------------- Iteration    1(   8)  ---------------------------------------


    POTLOK:  cpu time   10.7206: real time   10.7505
    SETDIJ:  cpu time    0.0534: real time    0.0535
    TRIAL :  cpu time   35.3325: real time   35.4394
    CORREC:  cpu time   44.5404: real time   44.6705
    CHARGE:  cpu time    1.7910: real time    1.7960
    --------------------------------------------
      LOOP:  cpu time   92.4437: real time   92.7187

 eigenvalue-minimisations  :     0
 total energy-change (2. order) :-0.4173562E+02  (-0.4100184E+02)
 number of electron      30.0000000 magnetization 
 augmentation part        0.0427181 magnetization 

 Free energy of the ion-electron system (eV)
  ---------------------------------------------------
  alpha Z        PSCENC =         0.09644577
  Ewald energy   TEWEN  =      2286.97567437
  -Hartree energ DENC   =     -1497.98232173
  -exchange      EXHF   =       193.87811201
  -V(xc)+E(xc)   XCENC  =         0.00000000
  PAW double counting   =      2132.58220302    -2132.93641673
  entropy T*S    EENTRO =        -0.00000000
  eigenvalues    EBANDS =     -1622.77037596
  atomic energy  EATOM  =       868.42867012
  ---------------------------------------------------
  free energy    TOTEN  =       228.27199087 eV

  energy without entropy =      228.27199087  energy(sigma->0) =      228.27199087
  exchange ACFDT corr.  =        -0.00000000  see jH, gK, PRB 81, 115126


--------------------------------------------------------------------------------------------------------




----------------------------------------- Iteration    1(   9)  ---------------------------------------


    POTLOK:  cpu time   10.7226: real time   10.7525
    SETDIJ:  cpu time    0.0528: real time    0.0529
    TRIAL :  cpu time   35.2549: real time   35.3631
    CORREC:  cpu time   44.6360: real time   44.7669
    CHARGE:  cpu time    1.7875: real time    1.7926
    --------------------------------------------
      LOOP:  cpu time   92.4589: real time   92.7364

 eigenvalue-minimisations  :     0
 total energy-change (2. order) :-0.3877817E+02  (-0.6195462E+02)
 number of electron      30.0000000 magnetization 
 augmentation part        0.0239033 magnetization 

 Free energy of the ion-electron system (eV)
  ---------------------------------------------------
  alpha Z        PSCENC =         0.09644577
  Ewald energy   TEWEN  =      2286.97567437
  -Hartree energ DENC   =     -1669.15645425
  -exchange      EXHF   =       202.70455701
  -V(xc)+E(xc)   XCENC  =         0.00000000
  PAW double counting   =      1934.46827002    -1934.87946214
  entropy T*S    EENTRO =        -0.00000000
  eigenvalues    EBANDS =     -1499.14388301
  atomic energy  EATOM  =       868.42867012
  ---------------------------------------------------
  free energy    TOTEN  =       189.49381790 eV

  energy without entropy =      189.49381790  energy(sigma->0) =      189.49381790
  exchange ACFDT corr.  =         0.00000000  see jH, gK, PRB 81, 115126


--------------------------------------------------------------------------------------------------------




----------------------------------------- Iteration    1(  10)  ---------------------------------------


    POTLOK:  cpu time   10.7170: real time   10.7465
    SETDIJ:  cpu time    0.0537: real time    0.0538
    TRIAL :  cpu time   35.3222: real time   35.4303
    CORREC:  cpu time   44.7272: real time   44.8579
    CHARGE:  cpu time    1.7906: real time    1.7956
    --------------------------------------------
      LOOP:  cpu time   92.6158: real time   92.8923

 eigenvalue-minimisations  :     0
 total energy-change (2. order) :-0.5533652E+02  (-0.6938958E+02)
 number of electron      30.0000000 magnetization 
 augmentation part        0.0109223 magnetization 

 Free energy of the ion-electron system (eV)
  ---------------------------------------------------
  alpha Z        PSCENC =         0.09644577
  Ewald energy   TEWEN  =      2286.97567437
  -Hartree energ DENC   =     -1988.48927239
  -exchange      EXHF   =       214.58215570
  -V(xc)+E(xc)   XCENC  =         0.00000000
  PAW double counting   =      1640.70509603    -1641.17100442
  entropy T*S    EENTRO =        -0.00000000
  eigenvalues    EBANDS =     -1246.97046254
  atomic energy  EATOM  =       868.42867012
  ---------------------------------------------------
  free energy    TOTEN  =       134.15730264 eV

  energy without entropy =      134.15730264  energy(sigma->0) =      134.15730264
  exchange ACFDT corr.  =         0.00000000  see jH, gK, PRB 81, 115126


--------------------------------------------------------------------------------------------------------




----------------------------------------- Iteration    1(  11)  ---------------------------------------


    POTLOK:  cpu time   10.7107: real time   10.7401
    SETDIJ:  cpu time    0.0548: real time    0.0549
    TRIAL :  cpu time   35.3285: real time   35.4363
    CORREC:  cpu time   44.6540: real time   44.7847
    CHARGE:  cpu time    1.7829: real time    1.7877
    --------------------------------------------
      LOOP:  cpu time   92.5377: real time   92.8139

 eigenvalue-minimisations  :     0
 total energy-change (2. order) :-0.4190189E+02  (-0.6863916E+02)
 number of electron      30.0000000 magnetization 
 augmentation part        0.0175176 magnetization 

 Free energy of the ion-electron system (eV)
  ---------------------------------------------------
  alpha Z        PSCENC =         0.09644577
  Ewald energy   TEWEN  =      2286.97567437
  -Hartree energ DENC   =     -2219.42553967
  -exchange      EXHF   =       225.28146534
  -V(xc)+E(xc)   XCENC  =         0.00000000
  PAW double counting   =      1509.70710891    -1510.19266508
  entropy T*S    EENTRO =        -0.00000000
  eigenvalues    EBANDS =     -1068.61574342
  atomic energy  EATOM  =       868.42867012
  ---------------------------------------------------
  free energy    TOTEN  =        92.25541634 eV

  energy without entropy =       92.25541634  energy(sigma->0) =       92.25541634
  exchange ACFDT corr.  =         0.00000000  see jH, gK, PRB 81, 115126


--------------------------------------------------------------------------------------------------------




----------------------------------------- Iteration    1(  12)  ---------------------------------------


    POTLOK:  cpu time   10.7127: real time   10.7422
    SETDIJ:  cpu time    0.0546: real time    0.0547
    TRIAL :  cpu time   35.2276: real time   35.3357
    CORREC:  cpu time   44.6322: real time   44.7644
    CHARGE:  cpu time    1.7831: real time    1.7881
    --------------------------------------------
      LOOP:  cpu time   92.4152: real time   92.6939

 eigenvalue-minimisations  :     0
 total energy-change (2. order) :-0.5650529E+02  (-0.4178063E+02)
 number of electron      30.0000000 magnetization 
 augmentation part        0.0357960 magnetization 

 Free energy of the ion-electron system (eV)
  ---------------------------------------------------
  alpha Z        PSCENC =         0.09644577
  Ewald energy   TEWEN  =      2286.97567437
  -Hartree energ DENC   =     -2428.87656895
  -exchange      EXHF   =       236.05463844
  -V(xc)+E(xc)   XCENC  =         0.00000000
  PAW double counting   =      1511.74966848    -1512.21205607
  entropy T*S    EENTRO =        -0.00000000
  eigenvalues    EBANDS =      -926.46634822
  atomic energy  EATOM  =       868.42867012
  ---------------------------------------------------
  free energy    TOTEN  =        35.75012394 eV

  energy without entropy =       35.75012394  energy(sigma->0) =       35.75012394
  exchange ACFDT corr.  =         0.00000000  see jH, gK, PRB 81, 115126


--------------------------------------------------------------------------------------------------------




----------------------------------------- Iteration    1(  13)  ---------------------------------------


    POTLOK:  cpu time   10.7064: real time   10.7362
    SETDIJ:  cpu time    0.0545: real time    0.0546
    TRIAL :  cpu time   35.2944: real time   35.4025
    CORREC:  cpu time   44.6130: real time   44.7438
    CHARGE:  cpu time    1.7901: real time    1.7952
    --------------------------------------------
      LOOP:  cpu time   92.4640: real time   92.7413

 eigenvalue-minimisations  :     0
 total energy-change (2. order) :-0.4122581E+02  (-0.2997797E+02)
 number of electron      30.0000000 magnetization 
 augmentation part        0.0932307 magnetization 

 Free energy of the ion-electron system (eV)
  ---------------------------------------------------
  alpha Z        PSCENC =         0.09644577
  Ewald energy   TEWEN  =      2286.97567437
  -Hartree energ DENC   =     -2519.04975068
  -exchange      EXHF   =       242.26313065
  -V(xc)+E(xc)   XCENC  =         0.00000000
  PAW double counting   =      1588.02692449    -1588.43514021
  entropy T*S    EENTRO =        -0.00000000
  eigenvalues    EBANDS =      -883.78163771
  atomic energy  EATOM  =       868.42867012
  ---------------------------------------------------
  free energy    TOTEN  =        -5.47568320 eV

  energy without entropy =       -5.47568320  energy(sigma->0) =       -5.47568320
  exchange ACFDT corr.  =        -0.00000000  see jH, gK, PRB 81, 115126


--------------------------------------------------------------------------------------------------------




----------------------------------------- Iteration    1(  14)  ---------------------------------------


    POTLOK:  cpu time   10.7076: real time   10.7374
    SETDIJ:  cpu time    0.0542: real time    0.0544
    TRIAL :  cpu time   35.3041: real time   35.4123
    CORREC:  cpu time   44.7552: real time   44.8867
    CHARGE:  cpu time    1.7872: real time    1.7922
    --------------------------------------------
      LOOP:  cpu time   92.6141: real time   92.8911

 eigenvalue-minimisations  :     0
 total energy-change (2. order) :-0.3205672E+02  (-0.2355761E+02)
 number of electron      30.0000000 magnetization 
 augmentation part        0.1869754 magnetization 

 Free energy of the ion-electron system (eV)
  ---------------------------------------------------
  alpha Z        PSCENC =         0.09644577
  Ewald energy   TEWEN  =      2286.97567437
  -Hartree energ DENC   =     -2620.51424606
  -exchange      EXHF   =       252.34476837
  -V(xc)+E(xc)   XCENC  =         0.00000000
  PAW double counting   =      1785.06474559    -1785.43420849
  entropy T*S    EENTRO =        -0.00000000
  eigenvalues    EBANDS =      -824.49425298
  atomic energy  EATOM  =       868.42867012
  ---------------------------------------------------
  free energy    TOTEN  =       -37.53240330 eV

  energy without entropy =      -37.53240330  energy(sigma->0) =      -37.53240330
  exchange ACFDT corr.  =         0.00000000  see jH, gK, PRB 81, 115126


--------------------------------------------------------------------------------------------------------




----------------------------------------- Iteration    1(  15)  ---------------------------------------


    POTLOK:  cpu time   10.7066: real time   10.7360
    SETDIJ:  cpu time    0.0544: real time    0.0545
    TRIAL :  cpu time   35.2400: real time   35.3480
    CORREC:  cpu time   44.6887: real time   44.8206
    CHARGE:  cpu time    1.7872: real time    1.7919
    --------------------------------------------
      LOOP:  cpu time   92.4782: real time   92.7556

 eigenvalue-minimisations  :     0
 total energy-change (2. order) :-0.2549295E+02  (-0.1737680E+02)
 number of electron      30.0000000 magnetization 
 augmentation part        0.3082856 magnetization 

 Free energy of the ion-electron system (eV)
  ---------------------------------------------------
  alpha Z        PSCENC =         0.09644577
  Ewald energy   TEWEN  =      2286.97567437
  -Hartree energ DENC   =     -2743.12491555
  -exchange      EXHF   =       266.31769258
  -V(xc)+E(xc)   XCENC  =         0.00000000
  PAW double counting   =      2085.79952520    -2086.16757054
  entropy T*S    EENTRO =        -0.00000000
  eigenvalues    EBANDS =      -741.35087676
  atomic energy  EATOM  =       868.42867012
  ---------------------------------------------------
  free energy    TOTEN  =       -63.02535481 eV

  energy without entropy =      -63.02535481  energy(sigma->0) =      -63.02535481
  exchange ACFDT corr.  =         0.00000000  see jH, gK, PRB 81, 115126


--------------------------------------------------------------------------------------------------------




----------------------------------------- Iteration    1(  16)  ---------------------------------------


    POTLOK:  cpu time   10.7018: real time   10.7316
    SETDIJ:  cpu time    0.0540: real time    0.0541
    TRIAL :  cpu time   35.3162: real time   35.4246
    CORREC:  cpu time   44.6219: real time   44.7522
    CHARGE:  cpu time    1.7875: real time    1.7925
    --------------------------------------------
      LOOP:  cpu time   92.4863: real time   92.7620

 eigenvalue-minimisations  :     0
 total energy-change (2. order) :-0.2006206E+02  ( 0.1594965E+02)
 number of electron      30.0000000 magnetization 
 augmentation part        0.3626376 magnetization 

 Free energy of the ion-electron system (eV)
  ---------------------------------------------------
  alpha Z        PSCENC =         0.09644577
  Ewald energy   TEWEN  =      2286.97567437
  -Hartree energ DENC   =     -2856.32803248
  -exchange      EXHF   =       280.93175142
  -V(xc)+E(xc)   XCENC  =         0.00000000
  PAW double counting   =      2441.17576409    -2441.57397125
  entropy T*S    EENTRO =        -0.00000000
  eigenvalues    EBANDS =      -662.79371252
  atomic energy  EATOM  =       868.42867012
  ---------------------------------------------------
  free energy    TOTEN  =       -83.08741048 eV

  energy without entropy =      -83.08741048  energy(sigma->0) =      -83.08741048
  exchange ACFDT corr.  =         0.00000000  see jH, gK, PRB 81, 115126


--------------------------------------------------------------------------------------------------------




----------------------------------------- Iteration    1(  17)  ---------------------------------------


    POTLOK:  cpu time   10.7168: real time   10.7466
    SETDIJ:  cpu time    0.0550: real time    0.0551
    TRIAL :  cpu time   35.3601: real time   35.4682
    CORREC:  cpu time  178.9132: real time  179.4360
    CHARGE:  cpu time    1.7932: real time    1.7983
    --------------------------------------------
      LOOP:  cpu time  226.8447: real time  227.5139

 eigenvalue-minimisations  :     0
 total energy-change (2. order) :-0.1269188E+02  (-0.8572523E+00)
 number of electron      30.0000000 magnetization 
 augmentation part        0.6662009 magnetization 

 Free energy of the ion-electron system (eV)
  ---------------------------------------------------
  alpha Z        PSCENC =         0.09644577
  Ewald energy   TEWEN  =      2286.97567437
  -Hartree energ DENC   =     -2911.03987535
  -exchange      EXHF   =       288.07816463
  -V(xc)+E(xc)   XCENC  =         0.00000000
  PAW double counting   =      2564.38511000    -2564.79639244
  entropy T*S    EENTRO =        -0.00000000
  eigenvalues    EBANDS =      -627.90709118
  atomic energy  EATOM  =       868.42867012
  ---------------------------------------------------
  free energy    TOTEN  =       -95.77929409 eV

  energy without entropy =      -95.77929409  energy(sigma->0) =      -95.77929409
  exchange ACFDT corr.  =         0.00000000  see jH, gK, PRB 81, 115126


--------------------------------------------------------------------------------------------------------




----------------------------------------- Iteration    1(  18)  ---------------------------------------


    POTLOK:  cpu time   10.7407: real time   10.7702
    SETDIJ:  cpu time    0.0539: real time    0.0544
    TRIAL :  cpu time   35.1581: real time   35.2658
    CORREC:  cpu time   44.5489: real time   44.6788
    CHARGE:  cpu time    1.7893: real time    1.7944
    --------------------------------------------
      LOOP:  cpu time   92.2979: real time   92.5740

 eigenvalue-minimisations  :     0
 total energy-change (2. order) :-0.2248050E+02  (-0.8901554E+01)
 number of electron      30.0000000 magnetization 
 augmentation part        0.6609891 magnetization 

 Free energy of the ion-electron system (eV)
  ---------------------------------------------------
  alpha Z        PSCENC =         0.09644577
  Ewald energy   TEWEN  =      2286.97567437
  -Hartree energ DENC   =     -3073.62991245
  -exchange      EXHF   =       311.63294469
  -V(xc)+E(xc)   XCENC  =         0.00000000
  PAW double counting   =      3267.17376040    -3267.68738367
  entropy T*S    EENTRO =        -0.00000000
  eigenvalues    EBANDS =      -511.24999082
  atomic energy  EATOM  =       868.42867012
  ---------------------------------------------------
  free energy    TOTEN  =      -118.25979159 eV

  energy without entropy =     -118.25979159  energy(sigma->0) =     -118.25979159
  exchange ACFDT corr.  =         0.00000000  see jH, gK, PRB 81, 115126


--------------------------------------------------------------------------------------------------------




----------------------------------------- Iteration    1(  19)  ---------------------------------------


    POTLOK:  cpu time   10.7087: real time   10.7385
    SETDIJ:  cpu time    0.0535: real time    0.0536
    TRIAL :  cpu time   35.3050: real time   35.4120
    CORREC:  cpu time   44.6588: real time   44.7896
    CHARGE:  cpu time    1.7871: real time    1.7922
    --------------------------------------------
      LOOP:  cpu time   92.5159: real time   92.7919

 eigenvalue-minimisations  :     0
 total energy-change (2. order) :-0.8891303E+01  (-0.1404278E+01)
 number of electron      30.0000000 magnetization 
 augmentation part        0.6616360 magnetization 

 Free energy of the ion-electron system (eV)
  ---------------------------------------------------
  alpha Z        PSCENC =         0.09644577
  Ewald energy   TEWEN  =      2286.97567437
  -Hartree energ DENC   =     -3029.81220525
  -exchange      EXHF   =       308.16556916
  -V(xc)+E(xc)   XCENC  =         0.00000000
  PAW double counting   =      3421.27725406    -3421.77491765
  entropy T*S    EENTRO =        -0.00000000
  eigenvalues    EBANDS =      -560.50758480
  atomic energy  EATOM  =       868.42867012
  ---------------------------------------------------
  free energy    TOTEN  =      -127.15109422 eV

  energy without entropy =     -127.15109422  energy(sigma->0) =     -127.15109422
  exchange ACFDT corr.  =        -0.00000000  see jH, gK, PRB 81, 115126


--------------------------------------------------------------------------------------------------------




----------------------------------------- Iteration    1(  20)  ---------------------------------------


    POTLOK:  cpu time   10.7112: real time   10.7411
    SETDIJ:  cpu time    0.0536: real time    0.0537
    TRIAL :  cpu time   35.1277: real time   35.2276
    CORREC:  cpu time   44.7350: real time   44.8533
    CHARGE:  cpu time    1.7895: real time    1.7940
    --------------------------------------------
      LOOP:  cpu time   92.4253: real time   92.6814

 eigenvalue-minimisations  :     0
 total energy-change (2. order) :-0.1406734E+01  (-0.3408641E+00)
 number of electron      30.0000000 magnetization 
 augmentation part        0.6607414 magnetization 

 Free energy of the ion-electron system (eV)
  ---------------------------------------------------
  alpha Z        PSCENC =         0.09644577
  Ewald energy   TEWEN  =      2286.97567437
  -Hartree energ DENC   =     -3043.30220536
  -exchange      EXHF   =       309.75849420
  -V(xc)+E(xc)   XCENC  =         0.00000000
  PAW double counting   =      3500.83664990    -3501.33420960
  entropy T*S    EENTRO =        -0.00000000
  eigenvalues    EBANDS =      -550.01734787
  atomic energy  EATOM  =       868.42867012
  ---------------------------------------------------
  free energy    TOTEN  =      -128.55782846 eV

  energy without entropy =     -128.55782846  energy(sigma->0) =     -128.55782846
  exchange ACFDT corr.  =        -0.00000000  see jH, gK, PRB 81, 115126


--------------------------------------------------------------------------------------------------------




----------------------------------------- Iteration    1(  21)  ---------------------------------------


    POTLOK:  cpu time   10.7392: real time   10.7659
    SETDIJ:  cpu time    0.0534: real time    0.0535
    TRIAL :  cpu time   35.3194: real time   35.4180
    CORREC:  cpu time   44.7419: real time   44.8599
    CHARGE:  cpu time    1.7903: real time    1.7948
    --------------------------------------------
      LOOP:  cpu time   92.6492: real time   92.9004

 eigenvalue-minimisations  :     0
 total energy-change (2. order) :-0.3415831E+00  (-0.1341855E+00)
 number of electron      30.0000000 magnetization 
 augmentation part        0.6592335 magnetization 

 Free energy of the ion-electron system (eV)
  ---------------------------------------------------
  alpha Z        PSCENC =         0.09644577
  Ewald energy   TEWEN  =      2286.97567437
  -Hartree energ DENC   =     -3043.38261483
  -exchange      EXHF   =       309.70723406
  -V(xc)+E(xc)   XCENC  =         0.00000000
  PAW double counting   =      3526.67943751    -3527.17347351
  entropy T*S    EENTRO =        -0.00000000
  eigenvalues    EBANDS =      -550.23078504
  atomic energy  EATOM  =       868.42867012
  ---------------------------------------------------
  free energy    TOTEN  =      -128.89941155 eV

  energy without entropy =     -128.89941155  energy(sigma->0) =     -128.89941155
  exchange ACFDT corr.  =         0.00000000  see jH, gK, PRB 81, 115126


--------------------------------------------------------------------------------------------------------




----------------------------------------- Iteration    1(  22)  ---------------------------------------


    POTLOK:  cpu time   10.7116: real time   10.7382
    SETDIJ:  cpu time    0.0546: real time    0.0547
    TRIAL :  cpu time   35.1879: real time   35.2851
    CORREC:  cpu time   44.5986: real time   44.7189
    CHARGE:  cpu time    1.7904: real time    1.7949
    --------------------------------------------
      LOOP:  cpu time   92.3484: real time   92.5995

 eigenvalue-minimisations  :     0
 total energy-change (2. order) :-0.1349994E+00  (-0.5010057E-01)
 number of electron      30.0000000 magnetization 
 augmentation part        0.6607410 magnetization 

 Free energy of the ion-electron system (eV)
  ---------------------------------------------------
  alpha Z        PSCENC =         0.09644577
  Ewald energy   TEWEN  =      2286.97567437
  -Hartree energ DENC   =     -3040.18750215
  -exchange      EXHF   =       309.35574810
  -V(xc)+E(xc)   XCENC  =         0.00000000
  PAW double counting   =      3533.89831623    -3534.39089799
  entropy T*S    EENTRO =        -0.00000000
  eigenvalues    EBANDS =      -553.21086541
  atomic energy  EATOM  =       868.42867012
  ---------------------------------------------------
  free energy    TOTEN  =      -129.03441096 eV

  energy without entropy =     -129.03441096  energy(sigma->0) =     -129.03441096
  exchange ACFDT corr.  =        -0.00000000  see jH, gK, PRB 81, 115126


--------------------------------------------------------------------------------------------------------




----------------------------------------- Iteration    1(  23)  ---------------------------------------


    POTLOK:  cpu time   10.7187: real time   10.7453
    SETDIJ:  cpu time    0.0535: real time    0.0536
    TRIAL :  cpu time   35.1261: real time   35.2232
    CORREC:  cpu time   44.6431: real time   44.7612
    CHARGE:  cpu time    1.7915: real time    1.7960
    --------------------------------------------
      LOOP:  cpu time   92.3412: real time   92.5907

 eigenvalue-minimisations  :     0
 total energy-change (2. order) :-0.5060036E-01  (-0.1399251E-01)
 number of electron      30.0000000 magnetization 
 augmentation part        0.6611752 magnetization 

 Free energy of the ion-electron system (eV)
  ---------------------------------------------------
  alpha Z        PSCENC =         0.09644577
  Ewald energy   TEWEN  =      2286.97567437
  -Hartree energ DENC   =     -3042.15548861
  -exchange      EXHF   =       309.59070074
  -V(xc)+E(xc)   XCENC  =         0.00000000
  PAW double counting   =      3537.51861755    -3538.01325713
  entropy T*S    EENTRO =        -0.00000000
  eigenvalues    EBANDS =      -551.52637413
  atomic energy  EATOM  =       868.42867012
  ---------------------------------------------------
  free energy    TOTEN  =      -129.08501132 eV

  energy without entropy =     -129.08501132  energy(sigma->0) =     -129.08501132
  exchange ACFDT corr.  =        -0.00000000  see jH, gK, PRB 81, 115126


--------------------------------------------------------------------------------------------------------




----------------------------------------- Iteration    1(  24)  ---------------------------------------


    POTLOK:  cpu time   10.7228: real time   10.7494
    SETDIJ:  cpu time    0.0547: real time    0.0548
    TRIAL :  cpu time   35.3481: real time   35.4456
    CORREC:  cpu time   44.6475: real time   44.7657
    CHARGE:  cpu time    1.8028: real time    1.8073
    --------------------------------------------
      LOOP:  cpu time   92.5833: real time   92.8334

 eigenvalue-minimisations  :     0
 total energy-change (2. order) :-0.1402444E-01  (-0.3564079E-02)
 number of electron      30.0000000 magnetization 
 augmentation part        0.6611310 magnetization 

 Free energy of the ion-electron system (eV)
  ---------------------------------------------------
  alpha Z        PSCENC =         0.09644577
  Ewald energy   TEWEN  =      2286.97567437
  -Hartree energ DENC   =     -3042.27054453
  -exchange      EXHF   =       309.61462324
  -V(xc)+E(xc)   XCENC  =         0.00000000
  PAW double counting   =      3535.08000574    -3535.57529817
  entropy T*S    EENTRO =        -0.00000000
  eigenvalues    EBANDS =      -551.44861229
  atomic energy  EATOM  =       868.42867012
  ---------------------------------------------------
  free energy    TOTEN  =      -129.09903576 eV

  energy without entropy =     -129.09903576  energy(sigma->0) =     -129.09903576
  exchange ACFDT corr.  =        -0.00000000  see jH, gK, PRB 81, 115126


--------------------------------------------------------------------------------------------------------




----------------------------------------- Iteration    1(  25)  ---------------------------------------


    POTLOK:  cpu time   10.7152: real time   10.7418
    SETDIJ:  cpu time    0.0545: real time    0.0546
    TRIAL :  cpu time   35.1640: real time   35.2617
    CORREC:  cpu time   44.5194: real time   44.6368
    CHARGE:  cpu time    1.7896: real time    1.7940
    --------------------------------------------
      LOOP:  cpu time   92.2472: real time   92.4970

 eigenvalue-minimisations  :     0
 total energy-change (2. order) :-0.3565894E-02  (-0.1053196E-02)
 number of electron      30.0000000 magnetization 
 augmentation part        0.6611981 magnetization 

 Free energy of the ion-electron system (eV)
  ---------------------------------------------------
  alpha Z        PSCENC =         0.09644577
  Ewald energy   TEWEN  =      2286.97567437
  -Hartree energ DENC   =     -3041.91154237
  -exchange      EXHF   =       309.57818610
  -V(xc)+E(xc)   XCENC  =         0.00000000
  PAW double counting   =      3532.44761357    -3532.94286628
  entropy T*S    EENTRO =        -0.00000000
  eigenvalues    EBANDS =      -551.77478294
  atomic energy  EATOM  =       868.42867012
  ---------------------------------------------------
  free energy    TOTEN  =      -129.10260165 eV

  energy without entropy =     -129.10260165  energy(sigma->0) =     -129.10260165
  exchange ACFDT corr.  =         0.00000000  see jH, gK, PRB 81, 115126


--------------------------------------------------------------------------------------------------------




----------------------------------------- Iteration    1(  26)  ---------------------------------------


    POTLOK:  cpu time   10.6927: real time   10.7193
    SETDIJ:  cpu time    0.0536: real time    0.0537
    TRIAL :  cpu time   35.1017: real time   35.1986
    CORREC:  cpu time   44.5457: real time   44.6632
    CHARGE:  cpu time    1.7833: real time    1.7878
    --------------------------------------------
      LOOP:  cpu time   92.1847: real time   92.4332

 eigenvalue-minimisations  :     0
 total energy-change (2. order) :-0.1054181E-02  (-0.3504577E-03)
 number of electron      30.0000000 magnetization 
 augmentation part        0.6612141 magnetization 

 Free energy of the ion-electron system (eV)
  ---------------------------------------------------
  alpha Z        PSCENC =         0.09644577
  Ewald energy   TEWEN  =      2286.97567437
  -Hartree energ DENC   =     -3041.98772925
  -exchange      EXHF   =       309.58584099
  -V(xc)+E(xc)   XCENC  =         0.00000000
  PAW double counting   =      3531.34845650    -3531.84364441
  entropy T*S    EENTRO =        -0.00000000
  eigenvalues    EBANDS =      -551.70736992
  atomic energy  EATOM  =       868.42867012
  ---------------------------------------------------
  free energy    TOTEN  =      -129.10365583 eV

  energy without entropy =     -129.10365583  energy(sigma->0) =     -129.10365583
  exchange ACFDT corr.  =        -0.00000000  see jH, gK, PRB 81, 115126


--------------------------------------------------------------------------------------------------------




----------------------------------------- Iteration    1(  27)  ---------------------------------------


    POTLOK:  cpu time   10.5626: real time   10.5889
    SETDIJ:  cpu time    0.0536: real time    0.0538
    TRIAL :  cpu time   35.1875: real time   35.2846
    CORREC:  cpu time   44.3028: real time   44.4204
    CHARGE:  cpu time    1.7828: real time    1.7873
    --------------------------------------------
      LOOP:  cpu time   91.8954: real time   92.1444

 eigenvalue-minimisations  :     0
 total energy-change (2. order) :-0.3506946E-03  (-0.1599313E-03)
 number of electron      30.0000000 magnetization 
 augmentation part        0.6611877 magnetization 

 Free energy of the ion-electron system (eV)
  ---------------------------------------------------
  alpha Z        PSCENC =         0.09644577
  Ewald energy   TEWEN  =      2286.97567437
  -Hartree energ DENC   =     -3042.03930069
  -exchange      EXHF   =       309.59137336
  -V(xc)+E(xc)   XCENC  =         0.00000000
  PAW double counting   =      3530.80703584    -3531.30211025
  entropy T*S    EENTRO =        -0.00000000
  eigenvalues    EBANDS =      -551.66179505
  atomic energy  EATOM  =       868.42867012
  ---------------------------------------------------
  free energy    TOTEN  =      -129.10400653 eV

  energy without entropy =     -129.10400653  energy(sigma->0) =     -129.10400653
  exchange ACFDT corr.  =         0.00000000  see jH, gK, PRB 81, 115126


--------------------------------------------------------------------------------------------------------




----------------------------------------- Iteration    1(  28)  ---------------------------------------


    POTLOK:  cpu time   10.3500: real time   10.3757
    SETDIJ:  cpu time    0.0536: real time    0.0537
    TRIAL :  cpu time   35.1953: real time   35.2925
    CORREC:  cpu time   43.9679: real time   44.0844
    CHARGE:  cpu time    1.7908: real time    1.7953
    --------------------------------------------
      LOOP:  cpu time   91.3621: real time   91.6095

 eigenvalue-minimisations  :     0
 total energy-change (2. order) :-0.1600474E-03  (-0.7298318E-04)
 number of electron      30.0000000 magnetization 
 augmentation part        0.6611752 magnetization 

 Free energy of the ion-electron system (eV)
  ---------------------------------------------------
  alpha Z        PSCENC =         0.09644577
  Ewald energy   TEWEN  =      2286.97567437
  -Hartree energ DENC   =     -3042.02446547
  -exchange      EXHF   =       309.58988548
  -V(xc)+E(xc)   XCENC  =         0.00000000
  PAW double counting   =      3530.45183956    -3530.94680673
  entropy T*S    EENTRO =        -0.00000000
  eigenvalues    EBANDS =      -551.67540968
  atomic energy  EATOM  =       868.42867012
  ---------------------------------------------------
  free energy    TOTEN  =      -129.10416658 eV

  energy without entropy =     -129.10416658  energy(sigma->0) =     -129.10416658
  exchange ACFDT corr.  =         0.00000000  see jH, gK, PRB 81, 115126


--------------------------------------------------------------------------------------------------------




----------------------------------------- Iteration    1(  29)  ---------------------------------------


    POTLOK:  cpu time   10.1687: real time   10.1939
    SETDIJ:  cpu time    0.0538: real time    0.0539
    TRIAL :  cpu time   35.2634: real time   35.3608
    CORREC:  cpu time   43.8517: real time   43.9678
    CHARGE:  cpu time    1.7909: real time    1.7954
    --------------------------------------------
      LOOP:  cpu time   91.1333: real time   91.3803

 eigenvalue-minimisations  :     0
 total energy-change (2. order) :-0.7300742E-04  (-0.4096258E-04)
 number of electron      30.0000000 magnetization 
 augmentation part        0.6611747 magnetization 

 Free energy of the ion-electron system (eV)
  ---------------------------------------------------
  alpha Z        PSCENC =         0.09644577
  Ewald energy   TEWEN  =      2286.97567437
  -Hartree energ DENC   =     -3042.02850114
  -exchange      EXHF   =       309.58989078
  -V(xc)+E(xc)   XCENC  =         0.00000000
  PAW double counting   =      3530.30215438    -3530.79708211
  entropy T*S    EENTRO =        -0.00000000
  eigenvalues    EBANDS =      -551.67149175
  atomic energy  EATOM  =       868.42867012
  ---------------------------------------------------
  free energy    TOTEN  =      -129.10423958 eV

  energy without entropy =     -129.10423958  energy(sigma->0) =     -129.10423958
  exchange ACFDT corr.  =         0.00000000  see jH, gK, PRB 81, 115126


--------------------------------------------------------------------------------------------------------




----------------------------------------- Iteration    1(  30)  ---------------------------------------


    POTLOK:  cpu time    9.9735: real time    9.9983
    SETDIJ:  cpu time    0.0540: real time    0.0542
    TRIAL :  cpu time   35.1189: real time   35.2169
    CORREC:  cpu time   43.9993: real time   44.1159
    CHARGE:  cpu time    1.7922: real time    1.7967
    --------------------------------------------
      LOOP:  cpu time   90.9448: real time   91.1922

 eigenvalue-minimisations  :     0
 total energy-change (2. order) :-0.4096418E-04  (-0.1837120E-04)
 number of electron      30.0000000 magnetization 
 augmentation part        0.6611814 magnetization 

 Free energy of the ion-electron system (eV)
  ---------------------------------------------------
  alpha Z        PSCENC =         0.09644577
  Ewald energy   TEWEN  =      2286.97567437
  -Hartree energ DENC   =     -3042.03873657
  -exchange      EXHF   =       309.59047604
  -V(xc)+E(xc)   XCENC  =         0.00000000
  PAW double counting   =      3530.23496831    -3530.72990431
  entropy T*S    EENTRO =        -0.00000000
  eigenvalues    EBANDS =      -551.66187428
  atomic energy  EATOM  =       868.42867012
  ---------------------------------------------------
  free energy    TOTEN  =      -129.10428055 eV

  energy without entropy =     -129.10428055  energy(sigma->0) =     -129.10428055
  exchange ACFDT corr.  =         0.00000000  see jH, gK, PRB 81, 115126


--------------------------------------------------------------------------------------------------------




----------------------------------------- Iteration    1(  31)  ---------------------------------------


    POTLOK:  cpu time    9.9582: real time    9.9830
    SETDIJ:  cpu time    0.0529: real time    0.0530
    TRIAL :  cpu time   35.1736: real time   35.2708
    CORREC:  cpu time   43.9249: real time   44.0413
    CHARGE:  cpu time    1.7937: real time    1.7982
    --------------------------------------------
      LOOP:  cpu time   90.9094: real time   91.1558

 eigenvalue-minimisations  :     0
 total energy-change (2. order) :-0.1835343E-04  (-0.8518984E-05)
 number of electron      30.0000000 magnetization 
 augmentation part        0.6611962 magnetization 

 Free energy of the ion-electron system (eV)
  ---------------------------------------------------
  alpha Z        PSCENC =         0.09644577
  Ewald energy   TEWEN  =      2286.97567437
  -Hartree energ DENC   =     -3042.03153809
  -exchange      EXHF   =       309.58935845
  -V(xc)+E(xc)   XCENC  =         0.00000000
  PAW double counting   =      3530.20020342    -3530.69516084
  entropy T*S    EENTRO =        -0.00000000
  eigenvalues    EBANDS =      -551.66795211
  atomic energy  EATOM  =       868.42867012
  ---------------------------------------------------
  free energy    TOTEN  =      -129.10429890 eV

  energy without entropy =     -129.10429890  energy(sigma->0) =     -129.10429890
  exchange ACFDT corr.  =         0.00000000  see jH, gK, PRB 81, 115126


--------------------------------------------------------------------------------------------------------




----------------------------------------- Iteration    1(  32)  ---------------------------------------


    POTLOK:  cpu time    9.8920: real time    9.9166
    SETDIJ:  cpu time    0.0543: real time    0.0544
    TRIAL :  cpu time   35.2055: real time   35.3030
    CORREC:  cpu time   43.6660: real time   43.7819
    CHARGE:  cpu time    1.7852: real time    1.7897
    --------------------------------------------
      LOOP:  cpu time   90.6050: real time   90.8509

 eigenvalue-minimisations  :     0
 total energy-change (2. order) :-0.8515319E-05  (-0.4098490E-05)
 number of electron      30.0000000 magnetization 
 augmentation part        0.6612074 magnetization 

 Free energy of the ion-electron system (eV)
  ---------------------------------------------------
  alpha Z        PSCENC =         0.09644577
  Ewald energy   TEWEN  =      2286.97567437
  -Hartree energ DENC   =     -3042.03261203
  -exchange      EXHF   =       309.58936363
  -V(xc)+E(xc)   XCENC  =         0.00000000
  PAW double counting   =      3530.22094877    -3530.71592788
  entropy T*S    EENTRO =        -0.00000000
  eigenvalues    EBANDS =      -551.66687018
  atomic energy  EATOM  =       868.42867012
  ---------------------------------------------------
  free energy    TOTEN  =      -129.10430742 eV

  energy without entropy =     -129.10430742  energy(sigma->0) =     -129.10430742
  exchange ACFDT corr.  =        -0.00000000  see jH, gK, PRB 81, 115126


--------------------------------------------------------------------------------------------------------




----------------------------------------- Iteration    1(  33)  ---------------------------------------


    POTLOK:  cpu time    9.8329: real time    9.8574
    SETDIJ:  cpu time    0.0534: real time    0.0535
    TRIAL :  cpu time   35.1852: real time   35.2830
    CORREC:  cpu time   43.6295: real time   43.7459
    CHARGE:  cpu time    1.7873: real time    1.7918
    --------------------------------------------
      LOOP:  cpu time   90.4972: real time   90.7439

 eigenvalue-minimisations  :     0
 total energy-change (2. order) :-0.4098181E-05  (-0.2014763E-05)
 number of electron      30.0000000 magnetization 
 augmentation part        0.6612091 magnetization 

 Free energy of the ion-electron system (eV)
  ---------------------------------------------------
  alpha Z        PSCENC =         0.09644577
  Ewald energy   TEWEN  =      2286.97567437
  -Hartree energ DENC   =     -3042.03677565
  -exchange      EXHF   =       309.58993699
  -V(xc)+E(xc)   XCENC  =         0.00000000
  PAW double counting   =      3530.27246380    -3530.76745785
  entropy T*S    EENTRO =        -0.00000000
  eigenvalues    EBANDS =      -551.66326907
  atomic energy  EATOM  =       868.42867012
  ---------------------------------------------------
  free energy    TOTEN  =      -129.10431151 eV

  energy without entropy =     -129.10431151  energy(sigma->0) =     -129.10431151
  exchange ACFDT corr.  =         0.00000000  see jH, gK, PRB 81, 115126


--------------------------------------------------------------------------------------------------------




----------------------------------------- Iteration    1(  34)  ---------------------------------------


    POTLOK:  cpu time    9.7966: real time    9.8209
    SETDIJ:  cpu time    0.0561: real time    0.0562
    TRIAL :  cpu time   35.2580: real time   35.3561
    CORREC:  cpu time   43.6171: real time   43.7334
    CHARGE:  cpu time    1.7943: real time    1.7988
    --------------------------------------------
      LOOP:  cpu time   90.5262: real time   90.7727

 eigenvalue-minimisations  :     0
 total energy-change (2. order) :-0.2014674E-05  (-0.1098834E-05)
 number of electron      30.0000000 magnetization 
 augmentation part        0.6612054 magnetization 

 Free energy of the ion-electron system (eV)
  ---------------------------------------------------
  alpha Z        PSCENC =         0.09644577
  Ewald energy   TEWEN  =      2286.97567437
  -Hartree energ DENC   =     -3042.03425104
  -exchange      EXHF   =       309.58987640
  -V(xc)+E(xc)   XCENC  =         0.00000000
  PAW double counting   =      3530.32448002    -3530.81947784
  entropy T*S    EENTRO =        -0.00000000
  eigenvalues    EBANDS =      -551.66573132
  atomic energy  EATOM  =       868.42867012
  ---------------------------------------------------
  free energy    TOTEN  =      -129.10431353 eV

  energy without entropy =     -129.10431353  energy(sigma->0) =     -129.10431353
  exchange ACFDT corr.  =         0.00000000  see jH, gK, PRB 81, 115126


--------------------------------------------------------------------------------------------------------




----------------------------------------- Iteration    1(  35)  ---------------------------------------


    POTLOK:  cpu time    9.8190: real time    9.8434
    SETDIJ:  cpu time    0.0544: real time    0.0545
    TRIAL :  cpu time   35.2436: real time   35.3418
    CORREC:  cpu time   43.8169: real time   43.9330
    CHARGE:  cpu time    1.7911: real time    1.7956
    --------------------------------------------
      LOOP:  cpu time   90.7290: real time   90.9759

 eigenvalue-minimisations  :     0
 total energy-change (2. order) :-0.1098755E-05  (-0.5699638E-06)
 number of electron      30.0000000 magnetization 
 augmentation part        0.6612004 magnetization 

 Free energy of the ion-electron system (eV)
  ---------------------------------------------------
  alpha Z        PSCENC =         0.09644577
  Ewald energy   TEWEN  =      2286.97567437
  -Hartree energ DENC   =     -3042.03154231
  -exchange      EXHF   =       309.58976089
  -V(xc)+E(xc)   XCENC  =         0.00000000
  PAW double counting   =      3530.37540893    -3530.87040371
  entropy T*S    EENTRO =        -0.00000000
  eigenvalues    EBANDS =      -551.66832870
  atomic energy  EATOM  =       868.42867012
  ---------------------------------------------------
  free energy    TOTEN  =      -129.10431463 eV

  energy without entropy =     -129.10431463  energy(sigma->0) =     -129.10431463
  exchange ACFDT corr.  =         0.00000000  see jH, gK, PRB 81, 115126


--------------------------------------------------------------------------------------------------------




----------------------------------------- Iteration    1(  36)  ---------------------------------------


    POTLOK:  cpu time    9.7882: real time    9.8125
    SETDIJ:  cpu time    0.0541: real time    0.0543
    TRIAL :  cpu time   35.2189: real time   35.3161
    CORREC:  cpu time   43.8188: real time   43.9350
    CHARGE:  cpu time    1.7892: real time    1.7937
    --------------------------------------------
      LOOP:  cpu time   90.6767: real time   90.9222

 eigenvalue-minimisations  :     0
 total energy-change (2. order) :-0.5697353E-06  (-0.2918753E-06)
 number of electron      30.0000000 magnetization 
 augmentation part        0.6611959 magnetization 

 Free energy of the ion-electron system (eV)
  ---------------------------------------------------
  alpha Z        PSCENC =         0.09644577
  Ewald energy   TEWEN  =      2286.97567437
  -Hartree energ DENC   =     -3042.03285126
  -exchange      EXHF   =       309.58995517
  -V(xc)+E(xc)   XCENC  =         0.00000000
  PAW double counting   =      3530.41250067    -3530.90749054
  entropy T*S    EENTRO =        -0.00000000
  eigenvalues    EBANDS =      -551.66721949
  atomic energy  EATOM  =       868.42867012
  ---------------------------------------------------
  free energy    TOTEN  =      -129.10431520 eV

  energy without entropy =     -129.10431520  energy(sigma->0) =     -129.10431520
  exchange ACFDT corr.  =         0.00000000  see jH, gK, PRB 81, 115126


--------------------------------------------------------------------------------------------------------




----------------------------------------- Iteration    1(  37)  ---------------------------------------


    POTLOK:  cpu time    9.7810: real time    9.8053
    SETDIJ:  cpu time    0.0539: real time    0.0540
    TRIAL :  cpu time   35.3017: real time   35.3998
    CORREC:  cpu time   43.8675: real time   43.9833
    CHARGE:  cpu time    1.7903: real time    1.7948
    --------------------------------------------
      LOOP:  cpu time   90.7996: real time   91.0457

 eigenvalue-minimisations  :     0
 total energy-change (2. order) :-0.2916338E-06  (-0.1485064E-06)
 number of electron      30.0000000 magnetization 
 augmentation part        0.6611937 magnetization 

 Free energy of the ion-electron system (eV)
  ---------------------------------------------------
  alpha Z        PSCENC =         0.09644577
  Ewald energy   TEWEN  =      2286.97567437
  -Hartree energ DENC   =     -3042.03315776
  -exchange      EXHF   =       309.58995546
  -V(xc)+E(xc)   XCENC  =         0.00000000
  PAW double counting   =      3530.42268146    -3530.91766635
  entropy T*S    EENTRO =        -0.00000000
  eigenvalues    EBANDS =      -551.66691856
  atomic energy  EATOM  =       868.42867012
  ---------------------------------------------------
  free energy    TOTEN  =      -129.10431549 eV

  energy without entropy =     -129.10431549  energy(sigma->0) =     -129.10431549
  exchange ACFDT corr.  =         0.00000000  see jH, gK, PRB 81, 115126


--------------------------------------------------------------------------------------------------------




----------------------------------------- Iteration    1(  38)  ---------------------------------------


    POTLOK:  cpu time    9.7940: real time    9.8184
    SETDIJ:  cpu time    0.0533: real time    0.0534
    TRIAL :  cpu time   35.2290: real time   35.3269
    CORREC:  cpu time   43.7817: real time   43.8980
    CHARGE:  cpu time    1.7978: real time    1.8024
    --------------------------------------------
      LOOP:  cpu time   90.6606: real time   90.9069

 eigenvalue-minimisations  :     0
 total energy-change (2. order) :-0.1483726E-06  (-0.8804566E-07)
 number of electron      30.0000000 magnetization 
 augmentation part        0.6611937 magnetization 

 Free energy of the ion-electron system (eV)
  ---------------------------------------------------
  alpha Z        PSCENC =         0.09644577
  Ewald energy   TEWEN  =      2286.97567437
  -Hartree energ DENC   =     -3042.03306778
  -exchange      EXHF   =       309.58990791
  -V(xc)+E(xc)   XCENC  =         0.00000000
  PAW double counting   =      3530.41574652    -3530.91072868
  entropy T*S    EENTRO =        -0.00000000
  eigenvalues    EBANDS =      -551.66696388
  atomic energy  EATOM  =       868.42867012
  ---------------------------------------------------
  free energy    TOTEN  =      -129.10431564 eV

  energy without entropy =     -129.10431564  energy(sigma->0) =     -129.10431564
  exchange ACFDT corr.  =         0.00000000  see jH, gK, PRB 81, 115126


--------------------------------------------------------------------------------------------------------




----------------------------------------- Iteration    1(  39)  ---------------------------------------


    POTLOK:  cpu time    9.8013: real time    9.8257
    SETDIJ:  cpu time    0.0537: real time    0.0539
    TRIAL :  cpu time   35.3140: real time   35.4116
    CORREC:  cpu time   43.8425: real time   43.9584
    CHARGE:  cpu time    1.7857: real time    1.7902
    --------------------------------------------
      LOOP:  cpu time   90.7994: real time   91.0452

 eigenvalue-minimisations  :     0
 total energy-change (2. order) :-0.8784002E-07  (-0.4207701E-07)
 number of electron      30.0000000 magnetization 
 augmentation part        0.6611948 magnetization 

 Free energy of the ion-electron system (eV)
  ---------------------------------------------------
  alpha Z        PSCENC =         0.09644577
  Ewald energy   TEWEN  =      2286.97567437
  -Hartree energ DENC   =     -3042.03346401
  -exchange      EXHF   =       309.58991962
  -V(xc)+E(xc)   XCENC  =         0.00000000
  PAW double counting   =      3530.39945930    -3530.89444114
  entropy T*S    EENTRO =        -0.00000000
  eigenvalues    EBANDS =      -551.66657975
  atomic energy  EATOM  =       868.42867012
  ---------------------------------------------------
  free energy    TOTEN  =      -129.10431573 eV

  energy without entropy =     -129.10431573  energy(sigma->0) =     -129.10431573
  exchange ACFDT corr.  =         0.00000000  see jH, gK, PRB 81, 115126


--------------------------------------------------------------------------------------------------------


  average scaling for gradient   1.2187


 average (electrostatic) potential at core
  the test charge radii are     0.6991  0.5201
  (the norm of the test charge is              1.0000)
       1 -41.0805       2 -41.0790       3 -41.0810       4 -41.0831       5 -41.0841
       6 -41.0829       7 -23.4458       8 -23.4506       9 -23.4453      10 -23.4485
      11 -23.4497      12 -23.4479
 
 
 
 E-fermi :  -9.0404     XC(G=0):   0.0000     alpha+bet : -0.0179


 k-point     1 :       0.0000    0.0000    0.0000
  band No.  band energies     occupation 
      1     -31.2962      2.00000
      2     -27.6058      2.00000
      3     -27.6003      2.00000
      4     -22.4123      2.00000
      5     -22.4106      2.00000
      6     -19.2988      2.00000
      7     -17.5106      2.00000
      8     -16.8283      2.00000
      9     -15.9895      2.00000
     10     -15.9821      2.00000
     11     -13.6746      2.00000
     12     -13.4473      2.00000
     13     -13.4402      2.00000
     14      -9.1700      2.00000
     15      -9.1666      2.00000
     16       0.0143      0.00000
     17       0.1480      0.00000
     18       0.1742      0.00000
     19       0.1976      0.00000
     20       0.1937      0.00000
     21       0.4434      0.00000
     22       0.4620      0.00000
     23       0.3754      0.00000
     24       0.8324      0.00000


--------------------------------------------------------------------------------------------------------


 soft charge-density along one line, spin component           1
         0         1         2         3         4         5         6         7         8         9
 total charge-density along one line
 
 pseudopotential strength for first ion, spin component:           1
  9.059  12.032   0.001   0.000   0.001  -0.003  -0.000  -0.002
 12.032  15.978   0.001   0.000   0.001  -0.004  -0.000  -0.003
  0.001   0.001  -3.564  -0.000  -0.001   6.912   0.000   0.003
  0.000   0.000  -0.000  -3.583   0.002   0.000   6.947  -0.004
  0.001   0.001  -0.001   0.002  -3.563   0.003  -0.004   6.910
 -0.003  -0.004   6.912   0.000   0.003 -15.448  -0.001  -0.005
 -0.000  -0.000   0.000   6.947  -0.004  -0.001 -15.513   0.007
 -0.002  -0.003   0.003  -0.004   6.910  -0.005   0.007 -15.446
 total augmentation occupancy for first ion, spin component:           1
 11.262  -5.473  -0.222  -0.013  -0.163  -0.045  -0.003  -0.033
 -5.473   2.681   0.135   0.008   0.099   0.026   0.002   0.019
 -0.222   0.135   1.893  -0.010  -0.061   0.202  -0.001  -0.011
 -0.013   0.008  -0.010   1.161   0.082  -0.001   0.100   0.011
 -0.163   0.099  -0.061   0.082   1.920  -0.011   0.011   0.207
 -0.045   0.026   0.202  -0.001  -0.011   0.022  -0.000  -0.002
 -0.003   0.002  -0.001   0.100   0.011  -0.000   0.009   0.002
 -0.033   0.019  -0.011   0.011   0.207  -0.002   0.002   0.023


------------------------ aborting loop because EDIFF is reached ----------------------------------------


    FORLOC:  cpu time    1.0825: real time    1.0852
    FORHF :  cpu time   25.4891: real time   25.5558
    FORNL :  cpu time    0.7875: real time    0.7895
    FORCOR:  cpu time    9.0713: real time    9.0939
    OFIELD:  cpu time    0.0309: real time    0.0310

 VOLUME and BASIS-vectors are now :
 -----------------------------------------------------------------------------
  energy-cutoff  :     1600.00
  volume of cell :    42875.00
      direct lattice vectors                 reciprocal lattice vectors
    35.000000000  0.000000000  0.000000000     0.028571429  0.000000000  0.000000000
     0.000000000 35.000000000  0.000000000     0.000000000  0.028571429  0.000000000
     0.000000000  0.000000000 35.000000000     0.000000000  0.000000000  0.028571429

  length of vectors
    35.000000000 35.000000000 35.000000000     0.028571429  0.028571429  0.028571429


 FORCES acting on ions:
    Electron-Ion                     Ewald-Force                    Non-Local-Force
 -----------------------------------------------------------------------------------------------
   -.107E+03 -.145E+03 -.101E+02   0.108E+03 0.145E+03 0.101E+02   -.217E+00 -.281E+00 -.252E-01
   -.178E+03 0.214E+02 -.182E+02   0.179E+03 -.215E+02 0.182E+02   -.371E+00 0.421E-01 -.205E-01
   -.705E+02 0.166E+03 -.773E+01   0.707E+02 -.166E+03 0.776E+01   -.140E+00 0.324E+00 -.184E-01
   0.108E+03 0.144E+03 0.105E+02   -.108E+03 -.145E+03 -.105E+02   0.217E+00 0.296E+00 0.180E-01
   0.178E+03 -.214E+02 0.181E+02   -.179E+03 0.214E+02 -.181E+02   0.366E+00 -.453E-01 0.117E-01
   0.705E+02 -.166E+03 0.845E+01   -.706E+02 0.166E+03 -.846E+01   0.144E+00 -.336E+00 0.202E-01
   -.484E+02 -.650E+02 -.496E+01   0.520E+02 0.699E+02 0.532E+01   -.307E+01 -.411E+01 -.321E+00
   -.802E+02 0.961E+01 -.904E+01   0.861E+02 -.103E+02 0.970E+01   -.507E+01 0.607E+00 -.588E+00
   -.318E+02 0.746E+02 -.384E+01   0.342E+02 -.802E+02 0.412E+01   -.201E+01 0.472E+01 -.249E+00
   0.484E+02 0.650E+02 0.476E+01   -.520E+02 -.699E+02 -.511E+01   0.306E+01 0.411E+01 0.302E+00
   0.802E+02 -.962E+01 0.837E+01   -.861E+02 0.103E+02 -.900E+01   0.507E+01 -.608E+00 0.534E+00
   0.318E+02 -.746E+02 0.373E+01   -.341E+02 0.802E+02 -.401E+01   0.201E+01 -.472E+01 0.236E+00
 -----------------------------------------------------------------------------------------------
   0.945E-02 0.149E-02 0.123E+00   -.639E-13 0.568E-13 -.799E-14   -.667E-02 -.107E-02 -.101E+00
 
 
 POSITION                                       TOTAL-FORCE (eV/Angst)
 -----------------------------------------------------------------------------------
      0.71265      1.12100      0.06054        -0.164799     -0.192524     -0.002041
      1.25824     34.84075      0.12423        -0.289343      0.029389      0.011147
      0.42688     33.72547      0.04265        -0.104041      0.222807      0.002044
     34.05042     33.88993     34.89969         0.155598      0.226269      0.010613
     33.50447      0.17105     34.83845         0.280723     -0.037938     -0.004066
     34.33617      1.28664     34.91660         0.103528     -0.249038      0.017454
      1.35784      1.98640      0.12774        -0.197953     -0.253091     -0.030894
      2.32495     34.71290      0.24674        -0.309753      0.035273     -0.063823
      0.85044     32.73157      0.09475        -0.132549      0.297582     -0.022948
     33.40554     33.02373     34.83629         0.199533      0.264634      0.024027
     32.43622      0.29922     34.72630         0.327473     -0.039156      0.040433
     33.91310      2.28100     34.86711         0.131582     -0.304207      0.018054
 -----------------------------------------------------------------------------------
    total drift:                                0.000028      0.000119      0.000002


--------------------------------------------------------------------------------------------------------



  FREE ENERGIE OF THE ION-ELECTRON SYSTEM (eV)
  ---------------------------------------------------
  free  energy   TOTEN  =      -129.10431573 eV

  energy  without entropy=     -129.10431573  energy(sigma->0) =     -129.10431573
 


--------------------------------------------------------------------------------------------------------


    POTLOK:  cpu time    9.8468: real time    9.8713


--------------------------------------------------------------------------------------------------------


     LOOP+:  cpu time 3941.0924: real time 3952.4409
    4ORBIT:  cpu time    0.0000: real time    0.0000

 total amount of memory used by VASP on root node  2902885. kBytes
========================================================================

   base      :      30000. kBytes
   nonl-proj :     124615. kBytes
   fftplans  :    1086078. kBytes
   grid      :    1587148. kBytes
   one-center:          3. kBytes
   HF        :          9. kBytes
   nonlr-proj:        263. kBytes
   wavefun   :      74769. kBytes
 
  
  
 General timing and accounting informations for this job:
 ========================================================
  
                  Total CPU time used (sec):     4698.739
                            User time (sec):     4270.344
                          System time (sec):      428.394
                         Elapsed time (sec):     4712.857
  
                   Maximum memory used (kb):     5598116.
                   Average memory used (kb):           0.
  
                          Minor page faults:      1615721
                          Major page faults:            3
                 Voluntary context switches:        35278
 
 PROFILE, used timers:      39
 =============================
 
 index                 routine                    time                            calls level
----------------------------------------------------------------------------------------------
    1    total_time                         4712.857794                                1   1
    2      w1_copy                               1.008124                            753   2
    3      fftwav_mpi                          125.819919                            581   2
    4      fftext_mpi                            0.550817                              4   2
    5      overl                                 0.000324                            411   2
    6      orth1                                 1.002893                            256   2
    7      lincom                                1.072984                            216   2
    8      eccp                                 16.282107                            428   2
    9      hamiltmu                             21.068359                             39   2
   10        vhamil                                4.269875                           78   3
   11        overl1                                0.000061                           78   3
   12        kinhamil                             10.385635                           78   3
   13          fftext_mpi                           10.273225                         78   4
   14      pdssyex_zheevx                        0.209332                             75   2
   15      fock_acc                           1057.926316                             68   2
   16        w1_copy                               0.701499                          340   3
   17        fftwav_mpi                           36.677575                          340   3
   18        fock_charge_mu                       52.428384                          204   3
   19          racc0mu_hf                            0.230199                        204   4
   20        rpromu_hf                             0.285538                          204   3
   21        overl1                                0.000083                          136   3
   22        fftext_mpi                            9.709795                          136   3
   23      hamilt_local                         25.506832                            136   2
   24        vhamil                                7.375077                          136   3
   25        kinhamil                             18.131432                          136   3
   26          fftext_mpi                           17.940403                        136   4
   27      w1_dscal                              4.049213                            136   2
   28      eddiag                             1188.953979                             37   2
   29        fock_acc                           1151.652414                           74   3
   30          w1_copy                               0.671138                        370   4
   31          fftwav_mpi                           41.018731                        370   4
   32          fock_charge_mu                       57.061815                        222   4
   33            racc0mu_hf                            0.239023                      222   5
   34          rpromu_hf                             0.361078                        222   4
   35          overl1                                0.000099                        148   4
   36          fftext_mpi                           10.556467                        148   4
   37        fftwav_mpi                           31.847484                          148   3
   38        eccp                                  4.772654                          148   3
   39      rpro1_hf                              0.142931                            288   2
 
 Flat profile
 ============
 
             routine name                   CPU           calls
 ---------------------------------------------------------------
 total_time                           2269.263663           1
 fock_acc                             2000.106528         142
 fftwav_mpi                            235.363709        1439
 fock_charge_mu                        109.020977         426
 fftext_mpi                             49.030708         502
 eccp                                   21.054761         576
 vhamil                                 11.644951         214
 hamiltmu                                6.412789          39
 w1_dscal                                4.049213         136
 w1_copy                                 2.380760        1463
 lincom                                  1.072984         216
 orth1                                   1.002893         256
 eddiag                                  0.681427          37
 rpromu_hf                               0.646616         426
 racc0mu_hf                              0.469223         426
 kinhamil                                0.303439         214
 pdssyex_zheevx                          0.209332          75
 rpro1_hf                                0.142931         288
 overl                                   0.000324         411
 hamilt_local                            0.000324         136
 overl1                                  0.000243         362
 ---------------------------------------------------------------
  summed up times    4712.85779404640     
 
Profiling took   0.008267  0.004757  0.003611  0.003590 seconds
Profiling took   0.004112 seconds
