 vasp.5.4.1 24Jun15 (build Jan 02 2020 16:21:29) gamma-only                     
  
 executed on           IFC15_impi date 2020.04.19  16:10:37
 running on   32 total cores
 distrk:  each k-point on   32 cores,    1 groups
 distr:  one band on NCORES_PER_BAND=   8 cores,    4 groups


--------------------------------------------------------------------------------------------------------


 INCAR:
 POTCAR:    PAW_PBE C 08Apr2002                   
 POTCAR:    PAW_PBE H 15Jun2001                   
 POTCAR:    PAW_PBE C 08Apr2002                   
   VRHFIN =C: s2p2                                                              
   LEXCH  = PE                                                                  
   EATOM  =   147.1560 eV,   10.8157 Ry                                         
                                                                                
   TITEL  = PAW_PBE C 08Apr2002                                                 
   LULTRA =        F    use ultrasoft PP ?                                      
   IUNSCR =        1    unscreen: 0-lin 1-nonlin 2-no                           
   RPACOR =    1.200    partial core radius                                     
   POMASS =   12.011; ZVAL   =    4.000    mass and valenz                      
   RCORE  =    1.500    outmost cutoff radius                                   
   RWIGS  =    1.630; RWIGS  =    0.863    wigner-seitz radius (au A)           
   ENMAX  =  400.000; ENMIN  =  300.000 eV                                      
   ICORE  =        2    local potential                                         
   LCOR   =        T    correct aug charges                                     
   LPAW   =        T    paw PP                                                  
   EAUG   =  644.873                                                            
   DEXC   =    0.000                                                            
   RMAX   =    1.529    core radius for proj-oper                               
   RAUG   =    1.300    factor for augmentation sphere                          
   RDEP   =    1.501    radius for radial grids                                 
   RDEPT  =    1.300    core radius for aug-charge                              
                                                                                
   Atomic configuration                                                         
    4 entries                                                                   
     n  l   j            E        occ.                                          
     1  0  0.50      -273.3789   2.0000                                         
     2  0  0.50       -13.7508   2.0000                                         
     2  1  0.50        -5.2854   2.0000                                         
     3  2  1.50        -5.4423   0.0000                                         
   Description                                                                  
     l       E           TYP  RCUT    TYP  RCUT                                 
     0    -13.7508458     23  1.200                                             
     0     -8.2022199     23  1.200                                             
     1     -5.2854383     23  1.500                                             
     1     34.0145650     23  1.500                                             
     2     -5.4423304      7  1.500                                             
  local pseudopotential read in
  partial core-charges read in
  partial kinetic energy density read in
  atomic valenz-charges read in
  non local Contribution for L=           0  read in
    real space projection operators read in
  non local Contribution for L=           0  read in
    real space projection operators read in
  non local Contribution for L=           1  read in
    real space projection operators read in
  non local Contribution for L=           1  read in
    real space projection operators read in
    PAW grid and wavefunctions read in
 
   number of l-projection  operators is LMAX  =           4
   number of lm-projection operators is LMMAX =           8
 
 POTCAR:    PAW_PBE H 15Jun2001                   
   VRHFIN =H: ultrasoft test                                                    
   LEXCH  = PE                                                                  
   EATOM  =    12.4884 eV,    0.9179 Ry                                         
                                                                                
   TITEL  = PAW_PBE H 15Jun2001                                                 
   LULTRA =        F    use ultrasoft PP ?                                      
   IUNSCR =        0    unscreen: 0-lin 1-nonlin 2-no                           
   RPACOR =    0.000    partial core radius                                     
   POMASS =    1.000; ZVAL   =    1.000    mass and valenz                      
   RCORE  =    1.100    outmost cutoff radius                                   
   RWIGS  =    0.700; RWIGS  =    0.370    wigner-seitz radius (au A)           
   ENMAX  =  250.000; ENMIN  =  200.000 eV                                      
   RCLOC  =    0.701    cutoff for local pot                                    
   LCOR   =        T    correct aug charges                                     
   LPAW   =        T    paw PP                                                  
   EAUG   =  400.000                                                            
   RMAX   =    1.123    core radius for proj-oper                               
   RAUG   =    1.200    factor for augmentation sphere                          
   RDEP   =    1.112    radius for radial grids                                 
   RDEPT  =    0.926    core radius for aug-charge                              
                                                                                
   Atomic configuration                                                         
    2 entries                                                                   
     n  l   j            E        occ.                                          
     1  0  0.50        -6.4927   1.0000                                         
     2  1  0.50        -3.4015   0.0000                                         
   Description                                                                  
     l       E           TYP  RCUT    TYP  RCUT                                 
     0     -6.4927494     23  1.100                                             
     0      6.8029130     23  1.100                                             
     1     -4.0817478     23  1.100                                             
  local pseudopotential read in
  atomic valenz-charges read in
  non local Contribution for L=           0  read in
    real space projection operators read in
  non local Contribution for L=           0  read in
    real space projection operators read in
  non local Contribution for L=           1  read in
    real space projection operators read in
    PAW grid and wavefunctions read in
 
   number of l-projection  operators is LMAX  =           3
   number of lm-projection operators is LMMAX =           5
 

 ----------------------------------------------------------------------------- 
|                                                                             |
|  ADVICE TO THIS USER RUNNING 'VASP/VAMP'   (HEAR YOUR MASTER'S VOICE ...):  |
|                                                                             |
|      You have a (more or less) 'large supercell' and for larger cells       |
|      it might be more efficient to use real space projection opertators     |
|      So try LREAL= Auto  in the INCAR   file.                               |
|      Mind: At the moment your POTCAR file does not contain real space       |
|       projectors, and has to be modified,  BUT if you                       |
|      want to do an extremely  accurate calculation you might also keep the  |
|      reciprocal projection scheme          (i.e. LREAL=.FALSE.)             |
|                                                                             |
 ----------------------------------------------------------------------------- 

  PAW_PBE C 08Apr2002                   :
 energy of atom  1       EATOM= -147.1560
 kinetic energy error for atom=    0.0002 (will be added to EATOM!!)
  PAW_PBE H 15Jun2001                   :
 energy of atom  2       EATOM=  -12.4884
 kinetic energy error for atom=    0.0000 (will be added to EATOM!!)
 
 
 POSCAR: C H                                     
  positions in cartesian coordinates
  No initial velocities read in
 exchange correlation table for  LEXCH =        8
   RHO(1)=    0.500       N(1)  =     2000
   RHO(2)=  100.500       N(2)  =     4000
 


--------------------------------------------------------------------------------------------------------


 ion  position               nearest neighbor table
   1  0.928  0.988  0.019-   8 1.09   6 1.09   7 1.09   2 1.52
   2  0.964  0.013  0.021-  10 1.09   9 1.09   3 1.52   1 1.52
   3  0.000  0.989  0.019-  12 1.09  11 1.09   2 1.52   4 1.52
   4  0.036  0.013  0.021-  14 1.09  13 1.09   3 1.52   5 1.52
   5  0.072  0.989  0.019-  16 1.09  15 1.09  17 1.09   4 1.52
   6  0.927  0.972  0.993-   1 1.09
   7  0.927  0.968  0.043-   1 1.09
   8  0.902  0.005  0.021-   1 1.09
   9  0.963  0.029  0.048-   2 1.09
  10  0.963  0.033  0.998-   2 1.09
  11  0.000  0.968  0.043-   3 1.09
  12  0.000  0.973  0.993-   3 1.09
  13  0.036  0.030  0.048-   4 1.09
  14  0.036  0.034  0.998-   4 1.09
  15  0.073  0.973  0.993-   5 1.09
  16  0.098  0.007  0.021-   5 1.09
  17  0.073  0.969  0.043-   5 1.09
 
  LATTYP: Found a simple cubic cell.
 ALAT       =    35.0000000000
  
  Lattice vectors:
  
 A1 = (  35.0000000000,   0.0000000000,   0.0000000000)
 A2 = (   0.0000000000,  35.0000000000,   0.0000000000)
 A3 = (   0.0000000000,   0.0000000000,  35.0000000000)


Analysis of symmetry for initial positions (statically):
=====================================================================
 Subroutine PRICEL returns:
 Original cell was already a primitive cell.
 

 Routine SETGRP: Setting up the symmetry group for a 
 simple cubic supercell.


 Subroutine GETGRP returns: Found  1 space group operations
 (whereof  1 operations were pure point group operations)
 out of a pool of 48 trial point group operations.


The static configuration has the point symmetry C_1 .


Analysis of symmetry for dynamics (positions and initial velocities):
=====================================================================
 Subroutine PRICEL returns:
 Original cell was already a primitive cell.
 

 Routine SETGRP: Setting up the symmetry group for a 
 simple cubic supercell.


 Subroutine GETGRP returns: Found  1 space group operations
 (whereof  1 operations were pure point group operations)
 out of a pool of 48 trial point group operations.


The dynamic configuration has the point symmetry C_1 .
 
 
 KPOINTS: automatic mesh                          

Automatic generation of k-mesh.
Space group operators:
 irot       det(A)        alpha          n_x          n_y          n_z        tau_x        tau_y        tau_z
    1     1.000000     0.000000     1.000000     0.000000     0.000000     0.000000     0.000000     0.000000
 
 Subroutine IBZKPT returns following result:
 ===========================================
 
 Found      1 irreducible k-points:
 
 Following reciprocal coordinates:
            Coordinates               Weight
  0.000000  0.000000  0.000000      1.000000
 
 Following cartesian coordinates:
            Coordinates               Weight
  0.000000  0.000000  0.000000      1.000000
 
 
 Subroutine IBZKPT_HF returns following result:
 ==============================================
 
 Found      1 k-points in 1st BZ
 the following      1 k-points will be used (e.g. in the exchange kernel)
 Following reciprocal coordinates:   # in IRBZ
  0.000000  0.000000  0.000000    1.00000000   1 t-inv F


--------------------------------------------------------------------------------------------------------




 Dimension of arrays:
   k-points           NKPTS =      1   k-points in BZ     NKDIM =      1   number of bands    NBANDS=     28
   number of dos      NEDOS =    301   number of ions     NIONS =     17
   non local maximal  LDIM  =      4   non local SUM 2l+1 LMDIM =      8
   total plane-waves  NPLWV = ******
   max r-space proj   IRMAX =      1   max aug-charges    IRDMAX=  30635
   dimension x,y,z NGX =   480 NGY =  480 NGZ =  480
   dimension x,y,z NGXF=   960 NGYF=  960 NGZF=  960
   support grid    NGXF=   960 NGYF=  960 NGZF=  960
   ions per type =               5  12
 NGX,Y,Z   is equivalent  to a cutoff of  22.80, 22.80, 22.80 a.u.
 NGXF,Y,Z  is equivalent  to a cutoff of  45.60, 45.60, 45.60 a.u.


 I would recommend the setting:
   dimension x,y,z NGX =   457 NGY =  457 NGZ =  457
 SYSTEM =  C                                       
 POSCAR =  C H                                     

 Startparameter for this run:
   NWRITE =      2    write-flag & timer
   PREC   = accura    normal or accurate (medium, high low for compatibility)
   ISTART =      0    job   : 0-new  1-cont  2-samecut
   ICHARG =      2    charge: 1-file 2-atom 10-const
   ISPIN  =      1    spin polarized calculation?
   LNONCOLLINEAR =      F non collinear calculations
   LSORBIT =      F    spin-orbit coupling
   INIWAV =      1    electr: 0-lowe 1-rand  2-diag
   LASPH  =      T    aspherical Exc in radial PAW
   METAGGA=      F    non-selfconsistent MetaGGA calc.

 Electronic Relaxation 1
   ENCUT  = 1600.0 eV 117.60 Ry   10.84 a.u. 114.15114.15114.15*2*pi/ulx,y,z
   ENINI  = 1600.0     initial cutoff
   ENAUG  =  644.9 eV  augmentation charge cutoff
   NELM   =     60;   NELMIN=  2; NELMDL= -5     # of ELM steps 
   EDIFF  = 0.1E-06   stopping-criterion for ELM
   LREAL  =      F    real-space projection
   NLSPLINE    = F    spline interpolate recip. space projectors
   LCOMPAT=      F    compatible to vasp.4.4
   GGA_COMPAT  = T    GGA compatible to vasp.4.4-vasp.4.6
   LMAXPAW     = -100 max onsite density
   LMAXMIX     =    2 max onsite mixed and CHGCAR
   VOSKOWN=      0    Vosko Wilk Nusair interpolation
   ROPT   =    0.00000   0.00000
 Ionic relaxation
   EDIFFG = 0.1E-05   stopping-criterion for IOM
   NSW    =      0    number of steps for IOM
   NBLOCK =      1;   KBLOCK =      1    inner block; outer block 
   IBRION =     -1    ionic relax: 0-MD 1-quasi-New 2-CG
   NFREE  =      0    steps in history (QN), initial steepest desc. (CG)
   ISIF   =      0    stress and relaxation
   IWAVPR =     10    prediction:  0-non 1-charg 2-wave 3-comb
   ISYM   =      3    0-nonsym 1-usesym 2-fastsym
   LCORR  =      T    Harris-Foulkes like correction to forces

   POTIM  = 0.5000    time-step for ionic-motion
   TEIN   =    0.0    initial temperature
   TEBEG  =    0.0;   TEEND  =   0.0 temperature during run
   SMASS  =  -3.00    Nose mass-parameter (am)
   estimated Nose-frequenzy (Omega)   =  0.10E-29 period in steps =****** mass=  -0.280E-25a.u.
   SCALEE = 1.0000    scale energy and forces
   NPACO  =    256;   APACO  = 16.0  distance and # of slots for P.C.
   PSTRESS=    0.0 pullay stress

  Mass of Ions in am
   POMASS =  12.01  1.00
  Ionic Valenz
   ZVAL   =   4.00  1.00
  Atomic Wigner-Seitz radii
   RWIGS  =  -1.00 -1.00
  virtual crystal weights 
   VCA    =   1.00  1.00
   NELECT =      32.0000    total number of electrons
   NUPDOWN=      -1.0000    fix difference up-down

 DOS related values:
   EMIN   =  10.00;   EMAX   =-10.00  energy-range for DOS
   EFERMI =   0.00
   ISMEAR =     0;   SIGMA  =   0.01  broadening in eV -4-tet -1-fermi 0-gaus

 Electronic relaxation 2 (details)
   IALGO  =     58    algorithm
   LDIAG  =      T    sub-space diagonalisation (order eigenvalues)
   LSUBROT=      F    optimize rotation matrix (better conditioning)
   TURBO    =      0    0=normal 1=particle mesh
   IRESTART =      0    0=no restart 2=restart with 2 vectors
   NREBOOT  =      0    no. of reboots
   NMIN     =      0    reboot dimension
   EREF     =   0.00    reference energy to select bands
   IMIX   =      4    mixing-type and parameters
     AMIX     =   0.40;   BMIX     =  1.00
     AMIX_MAG =   1.60;   BMIX_MAG =  1.00
     AMIN     =   0.10
     WC   =   100.;   INIMIX=   1;  MIXPRE=   1;  MAXMIX= -45

 Intra band minimization:
   WEIMIN = 0.0000     energy-eigenvalue tresh-hold
   EBREAK =  0.89E-09  absolut break condition
   DEPER  =   0.30     relativ break condition  

   TIME   =   0.40     timestep for ELM

  volume/ion in A,a.u.               =    2522.06     17019.69
  Fermi-wavevector in a.u.,A,eV,Ry     =   0.148499  0.280622  0.300035  0.022052
  Thomas-Fermi vector in A             =   0.821704
 
 Write flags
   LWAVE  =      F    write WAVECAR
   LCHARG =      T    write CHGCAR
   LVTOT  =      F    write LOCPOT, total local potential
   LVHAR  =      F    write LOCPOT, Hartree potential only
   LELF   =      F    write electronic localiz. function (ELF)
   LORBIT =      0    0 simple, 1 ext, 2 COOP (PROOUT)


 Dipole corrections
   LMONO  =      F    monopole corrections only (constant potential shift)
   LDIPOL =      F    correct potential (dipole corrections)
   IDIPOL =      0    1-x, 2-y, 3-z, 4-all directions 
   EPSILON=  1.0000000 bulk dielectric constant

 Exchange correlation treatment:
   GGA     =    --    GGA type
   LEXCH   =     8    internal setting for exchange type
   VOSKOWN=      0    Vosko Wilk Nusair interpolation
   EXXOEP  =     0    0=HF, 1=EXX-LHF (local Hartree Fock) 2=EXX OEP
   LHFCALC =     T    Hartree Fock is set to
   LSYMGRAD=     F    symmetrize gradient (conserves proper symmetry)
   PRECFOCK=normal    Normal, Fast or Accurate (Low or Medium for compatibility)
   LRHFCALC=     F    long range Hartree Fock
   LRSCOR  =     F    long range correlation only (use DFT for short range part)
   LTHOMAS =     F    Thomas Fermi screening in HF
   LMODELHF=     F    short range full HF, long range fraction AEXX
   ENCUT4O =  -1.0   cutoff for four orbital integrals eV
   LMAXFOCK=     4    L truncation for augmentation on plane wave grid
   LMAXFOCKAE=  -1    L truncation for all-electron charge restoration on plane wave grid
   NMAXFOCKAE=   1    number of basis functions for all-electron charge restoration
   LFOCKAEDFT=     F  apply the AE augmentation even for DFT
   NKREDX  =     1    reduce k-point grid by
   NKREDY  =     1    reduce k-point grid by
   NKREDZ  =     1    reduce k-point grid by
   SHIFTRED=     F    shift reduced grid of Gamma
   HFKIDENT=     F    idential grid for each k-point
   ODDONLY =     F    use only odd q-grid points
   EVENONLY=     F    use only even q-grid points
   HFALPHA =   -1.0000 decay constant for conv. correction
   MCALPHA =    0.0000 extent of test-charge in conv. correction in multipole expansion
   AEXX    =    1.0000 exact exchange contribution
   HFSCREEN=    0.0000 screening length (either q_TF or 0.3 A-1)
   HFSCREENC=   0.0000 screening length for correlation (either q_TF or 0.3 A-1)
   HFRCUT  =    0.0000 spherical cutoff for potential kernel
   ALDAX   =    0.0000 LDA exchange part
   AGGAX   =    0.0000 GGA exchange part
   ALDAC   =    0.0000 LDA correlation
   AGGAC   =    0.0000 GGA correlation
   NBANDSGWLOW=     1    first orbital included in HF term
   ENCUTFOCK=  -1.0 apply spherical cutoff to Coloumb kernel
 Linear response parameters
   LEPSILON=     F    determine dielectric tensor
   LRPA    =     F    only Hartree local field effects (RPA)
   LNABLA  =     F    use nabla operator in PAW spheres
   LVEL    =     F    velocity operator in full k-point grid
   LINTERFAST=   F  fast interpolation
   KINTER  =     0    interpolate to denser k-point grid
   CSHIFT  =0.1000    complex shift for real part using Kramers Kronig
   OMEGAMAX=  -1.0    maximum frequency
   DEG_THRESHOLD= 0.2000000E-02 threshold for treating states as degnerate
   RTIME   =    0.100 relaxation time in fs

 Orbital magnetization related:
   ORBITALMAG=     F  switch on orbital magnetization
   LCHIMAG   =     F  perturbation theory with respect to B field
   DQ        =  0.001000  dq finite difference perturbation B field



--------------------------------------------------------------------------------------------------------


 Static calculation
 charge density and potential will be updated during run
 non-spin polarized calculation
 Conjugate gradient for all bands (Freysoldt, et al. PRB 79, 241103 (2009))
 preconditioned conjugated gradient                                        
 perform sub-space diagonalisation
    before iterative eigenvector-optimisation
 modified Broyden-mixing scheme, WC =      100.0
 initial mixing is a Kerker type mixing with AMIX =  0.4000 and BMIX =      1.0000
 Hartree-type preconditioning will be used
 using additional bands           12
 reciprocal scheme for non local part
 use partial core corrections
 no Harris-corrections to forces 
 use gradient corrections 
 use of overlap-Matrix (Vanderbilt PP)
 Gauss-broadening in eV      SIGMA  =   0.01


--------------------------------------------------------------------------------------------------------


  energy-cutoff  :     1600.00
  volume of cell :    42875.00
      direct lattice vectors                 reciprocal lattice vectors
    35.000000000  0.000000000  0.000000000     0.028571429  0.000000000  0.000000000
     0.000000000 35.000000000  0.000000000     0.000000000  0.028571429  0.000000000
     0.000000000  0.000000000 35.000000000     0.000000000  0.000000000  0.028571429

  length of vectors
    35.000000000 35.000000000 35.000000000     0.028571429  0.028571429  0.028571429


 
 k-points in units of 2pi/SCALE and weight: automatic mesh                          
   0.00000000  0.00000000  0.00000000       1.000
 
 k-points in reciprocal lattice and weights: automatic mesh                          
   0.00000000  0.00000000  0.00000000       1.000
 
 position of ions in fractional coordinates (direct lattice) 
   0.92770335  0.98806928  0.01946590
   0.96353838  0.01267528  0.02142928
   0.00006299  0.98912239  0.01939979
   0.03623810  0.01321132  0.02141055
   0.07242761  0.98913072  0.01944818
   0.92686040  0.97192029  0.99285268
   0.92702754  0.96760386  0.04293308
   0.90182247  0.00526125  0.02105061
   0.96348332  0.02929194  0.04785959
   0.96341889  0.03338730  0.99808120
   0.00022368  0.96824534  0.04268089
   0.00017853  0.97255649  0.99289084
   0.03605771  0.02983572  0.04783561
   0.03604671  0.03391592  0.99805615
   0.07349829  0.97297953  0.99284423
   0.09805660  0.00669757  0.02101651
   0.07340593  0.96869114  0.04292732
 
 position of ions in cartesian coordinates  (Angst):
  32.46961713 34.58242467  0.68130643
  33.72384317  0.44363493  0.75002484
   0.00220470 34.61928380  0.67899257
   1.26833347  0.46239635  0.74936913
   2.53496627 34.61957531  0.68068636
  32.44011397 34.01721002 34.74984381
  32.44596375 33.86613505  1.50265789
  31.56378645  0.18414376  0.73677133
  33.72191616  1.02521785  1.67508548
  33.71966101  1.16855564 34.93284194
   0.00782894 33.88858696  1.49383122
   0.00624866 34.03947730 34.75117954
   1.26201985  1.04425029  1.67424645
   1.26163488  1.18705711 34.93196542
   2.57244024 34.05428348 34.74954814
   3.43198117  0.23441492  0.73557772
   2.56920771 33.90418997  1.50245608
 


--------------------------------------------------------------------------------------------------------


 use parallel FFT for wavefunctions z direction half grid
 k-point  1 :   0.0000 0.0000 0.0000  plane waves: 3115599

 maximum and minimum number of plane-waves per node :    389462   389421

 maximum number of plane-waves:   3115599
 maximum index in each direction: 
   IXMAX=  114   IYMAX=  114   IZMAX=  114
   IXMIN= -114   IYMIN= -114   IZMIN=    0

 NGX is ok and might be reduce to 458
 NGY is ok and might be reduce to 458
 NGZ is ok and might be reduce to 458

 parallel 3D FFT for wavefunctions:
    minimum data exchange during FFTs selected (reduces bandwidth)
 parallel 3D FFT for charge:
    minimum data exchange during FFTs selected (reduces bandwidth)


 FFT grid for exact exchange (Hartree Fock) 
  NGX =350; NGY =350; NGZ =350

 use parallel FFT for wavefunctions z direction half grid
 
 Radii for the augmentation spheres in the non-local exchange
 for species   1 augmentation radius   0.874 (default was   0.699)
       energy cutoff for augmentation   6400.0
 for species   2 augmentation radius   0.650 (default was   0.520)
       energy cutoff for augmentation   6400.0

 real space projection operators:
  total allocation   :       1952.86 KBytes
  max/ min on nodes  :        255.02        217.48

 Maximum index for augmentation-charges in exchange          405
  SETUP_FOCK is finished

 total amount of memory used by VASP on root node  3816440. kBytes
========================================================================

   base      :      30000. kBytes
   nonl-proj :     155769. kBytes
   fftplans  :    1395487. kBytes
   grid      :    2104012. kBytes
   one-center:          4. kBytes
   HF        :          9. kBytes
   nonlr-proj:        311. kBytes
   wavefun   :     130848. kBytes
 
     INWAV:  cpu time    0.0000: real time    0.0002
 Broyden mixing: mesh for mixing (old mesh)
   NGX =229   NGY =229   NGZ =229
  (NGX  =960   NGY  =960   NGZ  =960)
  gives a total of ****** points

 initial charge density was supplied:
 charge density of overlapping atoms calculated
 number of electron      32.0000000 magnetization 
 keeping initial charge density in first step


--------------------------------------------------------------------------------------------------------


 Maximum index for augmentation-charges         1155 (set IRDMAX)


--------------------------------------------------------------------------------------------------------


 FEWALD executed in parallel
    FEWALD:  cpu time    0.0005: real time    0.0005


----------------------------------------- Iteration    1(   1)  ---------------------------------------


    POTLOK:  cpu time   14.1682: real time   14.2035
    SETDIJ:  cpu time    0.0507: real time    0.0508
    TRIAL :  cpu time   12.6020: real time   12.6390
    CORREC:  cpu time    0.0001: real time    0.0001
    --------------------------------------------
      LOOP:  cpu time   26.9182: real time   26.9925

 eigenvalue-minimisations  :    56
 total energy-change (2. order) : 0.2567917E+03  (-0.5701138E+03)
 number of electron      32.0000000 magnetization 
 augmentation part       32.0000000 magnetization 

 Free energy of the ion-electron system (eV)
  ---------------------------------------------------
  alpha Z        PSCENC =         0.09845731
  Ewald energy   TEWEN  =      2358.21878004
  -Hartree energ DENC   =     -2887.69332137
  -exchange      EXHF   =         0.00000000
  -V(xc)+E(xc)   XCENC  =         0.00000000
  PAW double counting   =       640.42417451     -640.92425772
  entropy T*S    EENTRO =        -0.00000000
  eigenvalues    EBANDS =        -3.85218885
  atomic energy  EATOM  =       790.52010146
  ---------------------------------------------------
  free energy    TOTEN  =       256.79174538 eV

  energy without entropy =      256.79174538  energy(sigma->0) =      256.79174538
  exchange ACFDT corr.  =         0.00000000  see jH, gK, PRB 81, 115126


--------------------------------------------------------------------------------------------------------




----------------------------------------- Iteration    1(   2)  ---------------------------------------


    TRIAL :  cpu time   15.0479: real time   15.0928
    CORREC:  cpu time    0.0002: real time    0.0002
    --------------------------------------------
      LOOP:  cpu time   15.0501: real time   15.0981

 eigenvalue-minimisations  :    72
 total energy-change (2. order) :-0.5774382E+02  (-0.5640977E+02)
 number of electron      32.0000000 magnetization 
 augmentation part       32.0000000 magnetization 

 Free energy of the ion-electron system (eV)
  ---------------------------------------------------
  alpha Z        PSCENC =         0.09845731
  Ewald energy   TEWEN  =      2358.21878004
  -Hartree energ DENC   =     -2887.69332137
  -exchange      EXHF   =         0.00000000
  -V(xc)+E(xc)   XCENC  =         0.00000000
  PAW double counting   =       640.42417451     -640.92425772
  entropy T*S    EENTRO =        -0.00746903
  eigenvalues    EBANDS =       -61.58853987
  atomic energy  EATOM  =       790.52010146
  ---------------------------------------------------
  free energy    TOTEN  =       199.04792533 eV

  energy without entropy =      199.05539436  energy(sigma->0) =      199.05165985
  exchange ACFDT corr.  =         0.00000000  see jH, gK, PRB 81, 115126


--------------------------------------------------------------------------------------------------------




----------------------------------------- Iteration    1(   3)  ---------------------------------------


    TRIAL :  cpu time   18.7309: real time   18.7851
    CORREC:  cpu time    0.0002: real time    0.0002
    --------------------------------------------
      LOOP:  cpu time   18.7328: real time   18.7895

 eigenvalue-minimisations  :    96
 total energy-change (2. order) :-0.2777795E+02  (-0.2578161E+02)
 number of electron      32.0000000 magnetization 
 augmentation part       32.0000000 magnetization 

 Free energy of the ion-electron system (eV)
  ---------------------------------------------------
  alpha Z        PSCENC =         0.09845731
  Ewald energy   TEWEN  =      2358.21878004
  -Hartree energ DENC   =     -2887.69332137
  -exchange      EXHF   =         0.00000000
  -V(xc)+E(xc)   XCENC  =         0.00000000
  PAW double counting   =       640.42417451     -640.92425772
  entropy T*S    EENTRO =        -0.00000430
  eigenvalues    EBANDS =       -89.37395404
  atomic energy  EATOM  =       790.52010146
  ---------------------------------------------------
  free energy    TOTEN  =       171.26997589 eV

  energy without entropy =      171.26998019  energy(sigma->0) =      171.26997804
  exchange ACFDT corr.  =         0.00000000  see jH, gK, PRB 81, 115126


--------------------------------------------------------------------------------------------------------




----------------------------------------- Iteration    1(   4)  ---------------------------------------


    TRIAL :  cpu time   20.1018: real time   20.1608
    CORREC:  cpu time    0.0001: real time    0.0001
    --------------------------------------------
      LOOP:  cpu time   20.1036: real time   20.1653

 eigenvalue-minimisations  :   104
 total energy-change (2. order) :-0.1227170E+02  (-0.1178745E+02)
 number of electron      32.0000000 magnetization 
 augmentation part       32.0000000 magnetization 

 Free energy of the ion-electron system (eV)
  ---------------------------------------------------
  alpha Z        PSCENC =         0.09845731
  Ewald energy   TEWEN  =      2358.21878004
  -Hartree energ DENC   =     -2887.69332137
  -exchange      EXHF   =         0.00000000
  -V(xc)+E(xc)   XCENC  =         0.00000000
  PAW double counting   =       640.42417451     -640.92425772
  entropy T*S    EENTRO =        -0.00000000
  eigenvalues    EBANDS =      -101.64565650
  atomic energy  EATOM  =       790.52010146
  ---------------------------------------------------
  free energy    TOTEN  =       158.99827773 eV

  energy without entropy =      158.99827773  energy(sigma->0) =      158.99827773
  exchange ACFDT corr.  =         0.00000000  see jH, gK, PRB 81, 115126


--------------------------------------------------------------------------------------------------------




----------------------------------------- Iteration    1(   5)  ---------------------------------------


    TRIAL :  cpu time   21.5161: real time   21.5779
    CORREC:  cpu time    0.0002: real time    0.0002
    CHARGE:  cpu time    2.6361: real time    2.6463
    --------------------------------------------
      LOOP:  cpu time   24.1593: real time   24.2344

 eigenvalue-minimisations  :    96
 total energy-change (2. order) :-0.4206842E+01  (-0.4147977E+01)
 number of electron      32.0000000 magnetization 
 augmentation part        0.1970134 magnetization 

 Free energy of the ion-electron system (eV)
  ---------------------------------------------------
  alpha Z        PSCENC =         0.09845731
  Ewald energy   TEWEN  =      2358.21878004
  -Hartree energ DENC   =     -2887.69332137
  -exchange      EXHF   =         0.00000000
  -V(xc)+E(xc)   XCENC  =         0.00000000
  PAW double counting   =       640.42417451     -640.92425772
  entropy T*S    EENTRO =        -0.00080021
  eigenvalues    EBANDS =      -105.85169848
  atomic energy  EATOM  =       790.52010146
  ---------------------------------------------------
  free energy    TOTEN  =       154.79143554 eV

  energy without entropy =      154.79223575  energy(sigma->0) =      154.79183565
  exchange ACFDT corr.  =         0.00000000  see jH, gK, PRB 81, 115126


--------------------------------------------------------------------------------------------------------




----------------------------------------- Iteration    1(   6)  ---------------------------------------


    POTLOK:  cpu time   16.1299: real time   16.1690
    SETDIJ:  cpu time    0.1798: real time    0.1802
    TRIAL :  cpu time   60.7499: real time   60.9810
    CORREC:  cpu time   65.7668: real time   66.0136
    CHARGE:  cpu time    2.5781: real time    2.5879
    --------------------------------------------
      LOOP:  cpu time  145.4114: real time  145.9415

 eigenvalue-minimisations  :     0
 total energy-change (2. order) : 0.7710801E+02  (-0.2409340E+03)
 number of electron      32.0000000 magnetization 
 augmentation part        0.2394017 magnetization 

 Free energy of the ion-electron system (eV)
  ---------------------------------------------------
  alpha Z        PSCENC =         0.09845731
  Ewald energy   TEWEN  =      2358.21878004
  -Hartree energ DENC   =     -1429.85143799
  -exchange      EXHF   =       185.18326300
  -V(xc)+E(xc)   XCENC  =         0.00000000
  PAW double counting   =      1899.27544480    -1899.50582307
  entropy T*S    EENTRO =        -0.00001792
  eigenvalues    EBANDS =     -1672.03854202
  atomic energy  EATOM  =       790.52010146
  ---------------------------------------------------
  free energy    TOTEN  =       231.89944332 eV

  energy without entropy =      231.89946124  energy(sigma->0) =      231.89945228
  exchange ACFDT corr.  =        -0.02484661  see jH, gK, PRB 81, 115126


--------------------------------------------------------------------------------------------------------




----------------------------------------- Iteration    1(   7)  ---------------------------------------


    POTLOK:  cpu time   16.2157: real time   16.2550
    SETDIJ:  cpu time    0.1811: real time    0.1816
    TRIAL :  cpu time   62.2897: real time   62.5267
    CORREC:  cpu time   65.6810: real time   65.9253
    CHARGE:  cpu time    2.3445: real time    2.3535
    --------------------------------------------
      LOOP:  cpu time  146.7526: real time  147.2855

 eigenvalue-minimisations  :     0
 total energy-change (2. order) :-0.1238841E+03  (-0.8728731E+02)
 number of electron      32.0000000 magnetization 
 augmentation part        0.2868510 magnetization 

 Free energy of the ion-electron system (eV)
  ---------------------------------------------------
  alpha Z        PSCENC =         0.09845731
  Ewald energy   TEWEN  =      2358.21878004
  -Hartree energ DENC   =     -1752.74949722
  -exchange      EXHF   =       212.17139991
  -V(xc)+E(xc)   XCENC  =         0.00000000
  PAW double counting   =      2200.65337148    -2200.97127628
  entropy T*S    EENTRO =        -0.00000000
  eigenvalues    EBANDS =     -1499.92597042
  atomic energy  EATOM  =       790.52010146
  ---------------------------------------------------
  free energy    TOTEN  =       108.01534835 eV

  energy without entropy =      108.01534835  energy(sigma->0) =      108.01534835
  exchange ACFDT corr.  =        -0.00042946  see jH, gK, PRB 81, 115126


--------------------------------------------------------------------------------------------------------




----------------------------------------- Iteration    1(   8)  ---------------------------------------


    POTLOK:  cpu time   16.2152: real time   16.2545
    SETDIJ:  cpu time    0.1787: real time    0.1791
    TRIAL :  cpu time   53.2159: real time   53.4291
    CORREC:  cpu time   65.7173: real time   65.9624
    CHARGE:  cpu time    2.3470: real time    2.3563
    --------------------------------------------
      LOOP:  cpu time  137.7134: real time  138.2241

 eigenvalue-minimisations  :     0
 total energy-change (2. order) :-0.7186140E+02  (-0.4656501E+02)
 number of electron      32.0000000 magnetization 
 augmentation part        0.3205176 magnetization 

 Free energy of the ion-electron system (eV)
  ---------------------------------------------------
  alpha Z        PSCENC =         0.09845731
  Ewald energy   TEWEN  =      2358.21878004
  -Hartree energ DENC   =     -2035.86412307
  -exchange      EXHF   =       232.77227845
  -V(xc)+E(xc)   XCENC  =         0.00000000
  PAW double counting   =      2253.87892379    -2254.25238238
  entropy T*S    EENTRO =        -0.00000000
  eigenvalues    EBANDS =     -1309.21808696
  atomic energy  EATOM  =       790.52010146
  ---------------------------------------------------
  free energy    TOTEN  =        36.15394863 eV

  energy without entropy =       36.15394863  energy(sigma->0) =       36.15394863
  exchange ACFDT corr.  =         0.00000000  see jH, gK, PRB 81, 115126


--------------------------------------------------------------------------------------------------------




----------------------------------------- Iteration    1(   9)  ---------------------------------------


    POTLOK:  cpu time   16.1838: real time   16.2231
    SETDIJ:  cpu time    0.1873: real time    0.1878
    TRIAL :  cpu time   53.3163: real time   53.5286
    CORREC:  cpu time   65.8953: real time   66.1424
    CHARGE:  cpu time    2.3409: real time    2.3498
    --------------------------------------------
      LOOP:  cpu time  137.9648: real time  138.4760

 eigenvalue-minimisations  :     0
 total energy-change (2. order) :-0.4075146E+02  (-0.3364203E+02)
 number of electron      32.0000000 magnetization 
 augmentation part        0.3484189 magnetization 

 Free energy of the ion-electron system (eV)
  ---------------------------------------------------
  alpha Z        PSCENC =         0.09845731
  Ewald energy   TEWEN  =      2358.21878004
  -Hartree energ DENC   =     -2230.48707756
  -exchange      EXHF   =       245.86992532
  -V(xc)+E(xc)   XCENC  =         0.00000000
  PAW double counting   =      2236.78313478    -2237.18064720
  entropy T*S    EENTRO =        -0.00000000
  eigenvalues    EBANDS =     -1168.42018245
  atomic energy  EATOM  =       790.52010146
  ---------------------------------------------------
  free energy    TOTEN  =        -4.59750831 eV

  energy without entropy =       -4.59750831  energy(sigma->0) =       -4.59750831
  exchange ACFDT corr.  =         0.00000000  see jH, gK, PRB 81, 115126


--------------------------------------------------------------------------------------------------------




----------------------------------------- Iteration    1(  10)  ---------------------------------------


    POTLOK:  cpu time   16.2057: real time   16.2450
    SETDIJ:  cpu time    0.1832: real time    0.1837
    TRIAL :  cpu time   53.6228: real time   53.8386
    CORREC:  cpu time   65.8991: real time   66.1444
    CHARGE:  cpu time    2.3417: real time    2.3508
    --------------------------------------------
      LOOP:  cpu time  138.2977: real time  138.8109

 eigenvalue-minimisations  :     0
 total energy-change (2. order) :-0.3300458E+02  (-0.2702211E+02)
 number of electron      32.0000000 magnetization 
 augmentation part        0.3772994 magnetization 

 Free energy of the ion-electron system (eV)
  ---------------------------------------------------
  alpha Z        PSCENC =         0.09845731
  Ewald energy   TEWEN  =      2358.21878004
  -Hartree energ DENC   =     -2415.42684241
  -exchange      EXHF   =       255.15641357
  -V(xc)+E(xc)   XCENC  =         0.00000000
  PAW double counting   =      2177.57687786    -2177.98053618
  entropy T*S    EENTRO =        -0.00000000
  eigenvalues    EBANDS =     -1025.76534429
  atomic energy  EATOM  =       790.52010146
  ---------------------------------------------------
  free energy    TOTEN  =       -37.60209265 eV

  energy without entropy =      -37.60209265  energy(sigma->0) =      -37.60209265
  exchange ACFDT corr.  =         0.00000000  see jH, gK, PRB 81, 115126


--------------------------------------------------------------------------------------------------------




----------------------------------------- Iteration    1(  11)  ---------------------------------------


    POTLOK:  cpu time   16.2112: real time   16.2505
    SETDIJ:  cpu time    0.1832: real time    0.1836
    TRIAL :  cpu time   53.5340: real time   53.7475
    CORREC:  cpu time   66.1797: real time   66.4233
    CHARGE:  cpu time    2.3431: real time    2.3520
    --------------------------------------------
      LOOP:  cpu time  138.4876: real time  138.9964

 eigenvalue-minimisations  :     0
 total energy-change (2. order) :-0.2635957E+02  (-0.1620659E+02)
 number of electron      32.0000000 magnetization 
 augmentation part        0.4109504 magnetization 

 Free energy of the ion-electron system (eV)
  ---------------------------------------------------
  alpha Z        PSCENC =         0.09845731
  Ewald energy   TEWEN  =      2358.21878004
  -Hartree energ DENC   =     -2602.41035951
  -exchange      EXHF   =       265.44512410
  -V(xc)+E(xc)   XCENC  =         0.00000000
  PAW double counting   =      2136.17704050    -2136.58562291
  entropy T*S    EENTRO =        -0.00000000
  eigenvalues    EBANDS =      -875.42518567
  atomic energy  EATOM  =       790.52010146
  ---------------------------------------------------
  free energy    TOTEN  =       -63.96166468 eV

  energy without entropy =      -63.96166468  energy(sigma->0) =      -63.96166468
  exchange ACFDT corr.  =         0.00000000  see jH, gK, PRB 81, 115126


--------------------------------------------------------------------------------------------------------




----------------------------------------- Iteration    1(  12)  ---------------------------------------


    POTLOK:  cpu time   16.2001: real time   16.2395
    SETDIJ:  cpu time    0.1855: real time    0.1859
    TRIAL :  cpu time   53.5165: real time   53.7319
    CORREC:  cpu time   66.1269: real time   66.3713
    CHARGE:  cpu time    2.3504: real time    2.3595
    --------------------------------------------
      LOOP:  cpu time  138.4239: real time  138.9357

 eigenvalue-minimisations  :     0
 total energy-change (2. order) :-0.1606255E+02  (-0.1085247E+02)
 number of electron      32.0000000 magnetization 
 augmentation part        0.4528351 magnetization 

 Free energy of the ion-electron system (eV)
  ---------------------------------------------------
  alpha Z        PSCENC =         0.09845731
  Ewald energy   TEWEN  =      2358.21878004
  -Hartree energ DENC   =     -2694.48908873
  -exchange      EXHF   =       273.64117827
  -V(xc)+E(xc)   XCENC  =         0.00000000
  PAW double counting   =      2161.89438347    -2162.31398812
  entropy T*S    EENTRO =        -0.00000000
  eigenvalues    EBANDS =      -807.59403434
  atomic energy  EATOM  =       790.52010146
  ---------------------------------------------------
  free energy    TOTEN  =       -80.02421065 eV

  energy without entropy =      -80.02421065  energy(sigma->0) =      -80.02421065
  exchange ACFDT corr.  =         0.00000000  see jH, gK, PRB 81, 115126


--------------------------------------------------------------------------------------------------------




----------------------------------------- Iteration    1(  13)  ---------------------------------------


    POTLOK:  cpu time   16.2005: real time   16.2398
    SETDIJ:  cpu time    0.1852: real time    0.1856
    TRIAL :  cpu time   53.0668: real time   53.2803
    CORREC:  cpu time   66.0783: real time   66.3241
    CHARGE:  cpu time    2.3444: real time    2.3535
    --------------------------------------------
      LOOP:  cpu time  137.9120: real time  138.4230

 eigenvalue-minimisations  :     0
 total energy-change (2. order) :-0.1153786E+02  (-0.8826916E+01)
 number of electron      32.0000000 magnetization 
 augmentation part        0.5097138 magnetization 

 Free energy of the ion-electron system (eV)
  ---------------------------------------------------
  alpha Z        PSCENC =         0.09845731
  Ewald energy   TEWEN  =      2358.21878004
  -Hartree energ DENC   =     -2756.54288886
  -exchange      EXHF   =       281.08459366
  -V(xc)+E(xc)   XCENC  =         0.00000000
  PAW double counting   =      2239.78487108    -2240.22457139
  entropy T*S    EENTRO =        -0.00000000
  eigenvalues    EBANDS =      -764.50141068
  atomic energy  EATOM  =       790.52010146
  ---------------------------------------------------
  free energy    TOTEN  =       -91.56206739 eV

  energy without entropy =      -91.56206739  energy(sigma->0) =      -91.56206739
  exchange ACFDT corr.  =         0.00000000  see jH, gK, PRB 81, 115126


--------------------------------------------------------------------------------------------------------




----------------------------------------- Iteration    1(  14)  ---------------------------------------


    POTLOK:  cpu time   16.2046: real time   16.2440
    SETDIJ:  cpu time    0.1784: real time    0.1788
    TRIAL :  cpu time   52.9163: real time   53.1302
    CORREC:  cpu time   65.9789: real time   66.2255
    CHARGE:  cpu time    2.3452: real time    2.3542
    --------------------------------------------
      LOOP:  cpu time  137.6618: real time  138.1745

 eigenvalue-minimisations  :     0
 total energy-change (2. order) :-0.1002266E+02  ( 0.3055995E+03)
 number of electron      32.0000000 magnetization 
 augmentation part        0.5615290 magnetization 

 Free energy of the ion-electron system (eV)
  ---------------------------------------------------
  alpha Z        PSCENC =         0.09845731
  Ewald energy   TEWEN  =      2358.21878004
  -Hartree energ DENC   =     -2815.65783996
  -exchange      EXHF   =       289.43429147
  -V(xc)+E(xc)   XCENC  =         0.00000000
  PAW double counting   =      2382.98050080    -2383.44990962
  entropy T*S    EENTRO =        -0.00000000
  eigenvalues    EBANDS =      -723.72911211
  atomic energy  EATOM  =       790.52010146
  ---------------------------------------------------
  free energy    TOTEN  =      -101.58473061 eV

  energy without entropy =     -101.58473061  energy(sigma->0) =     -101.58473061
  exchange ACFDT corr.  =         0.00000000  see jH, gK, PRB 81, 115126


--------------------------------------------------------------------------------------------------------




----------------------------------------- Iteration    1(  15)  ---------------------------------------


    POTLOK:  cpu time   16.1918: real time   16.2311
    SETDIJ:  cpu time    0.1827: real time    0.1832
    TRIAL :  cpu time   52.9187: real time   53.1317
    CORREC:  cpu time   65.9732: real time   66.2190
    CHARGE:  cpu time    2.3445: real time    2.3535
    --------------------------------------------
      LOOP:  cpu time  137.6483: real time  138.1588

 eigenvalue-minimisations  :     0
 total energy-change (2. order) :-0.1091329E+02  (-0.1164344E+02)
 number of electron      32.0000000 magnetization 
 augmentation part        0.5924658 magnetization 

 Free energy of the ion-electron system (eV)
  ---------------------------------------------------
  alpha Z        PSCENC =         0.09845731
  Ewald energy   TEWEN  =      2358.21878004
  -Hartree energ DENC   =     -2878.31154553
  -exchange      EXHF   =       299.10299878
  -V(xc)+E(xc)   XCENC  =         0.00000000
  PAW double counting   =      2534.87130523    -2535.36573330
  entropy T*S    EENTRO =        -0.00000000
  eigenvalues    EBANDS =      -681.63238694
  atomic energy  EATOM  =       790.52010146
  ---------------------------------------------------
  free energy    TOTEN  =      -112.49802295 eV

  energy without entropy =     -112.49802295  energy(sigma->0) =     -112.49802295
  exchange ACFDT corr.  =         0.00000000  see jH, gK, PRB 81, 115126


--------------------------------------------------------------------------------------------------------




----------------------------------------- Iteration    1(  16)  ---------------------------------------


    POTLOK:  cpu time   16.1996: real time   16.2389
    SETDIJ:  cpu time    0.1821: real time    0.1825
    TRIAL :  cpu time   53.2778: real time   53.4930
    CORREC:  cpu time   65.8915: real time   66.1354
    CHARGE:  cpu time    2.3443: real time    2.3532
    --------------------------------------------
      LOOP:  cpu time  137.9363: real time  138.4469

 eigenvalue-minimisations  :     0
 total energy-change (2. order) :-0.1251621E+02  ( 0.4797483E+01)
 number of electron      32.0000000 magnetization 
 augmentation part        0.6449002 magnetization 

 Free energy of the ion-electron system (eV)
  ---------------------------------------------------
  alpha Z        PSCENC =         0.09845731
  Ewald energy   TEWEN  =      2358.21878004
  -Hartree energ DENC   =     -2915.64400910
  -exchange      EXHF   =       305.88701366
  -V(xc)+E(xc)   XCENC  =         0.00000000
  PAW double counting   =      2628.61646169    -2629.11920279
  entropy T*S    EENTRO =        -0.00000000
  eigenvalues    EBANDS =      -663.59183477
  atomic energy  EATOM  =       790.52010146
  ---------------------------------------------------
  free energy    TOTEN  =      -125.01423251 eV

  energy without entropy =     -125.01423251  energy(sigma->0) =     -125.01423251
  exchange ACFDT corr.  =         0.00000000  see jH, gK, PRB 81, 115126


--------------------------------------------------------------------------------------------------------




----------------------------------------- Iteration    1(  17)  ---------------------------------------


    POTLOK:  cpu time   16.1991: real time   16.2384
    SETDIJ:  cpu time    0.1824: real time    0.1829
    TRIAL :  cpu time   53.2701: real time   53.4836
    CORREC:  cpu time   65.9398: real time   66.1861
    CHARGE:  cpu time    2.3550: real time    2.3643
    --------------------------------------------
      LOOP:  cpu time  137.9853: real time  138.4973

 eigenvalue-minimisations  :     0
 total energy-change (2. order) :-0.1389071E+02  (-0.6101086E+01)
 number of electron      32.0000000 magnetization 
 augmentation part        0.6643203 magnetization 

 Free energy of the ion-electron system (eV)
  ---------------------------------------------------
  alpha Z        PSCENC =         0.09845731
  Ewald energy   TEWEN  =      2358.21878004
  -Hartree energ DENC   =     -3005.78286255
  -exchange      EXHF   =       318.76364755
  -V(xc)+E(xc)   XCENC  =         0.00000000
  PAW double counting   =      2790.52825156    -2791.04568747
  entropy T*S    EENTRO =        -0.00000000
  eigenvalues    EBANDS =      -600.20562580
  atomic energy  EATOM  =       790.52010146
  ---------------------------------------------------
  free energy    TOTEN  =      -138.90493790 eV

  energy without entropy =     -138.90493790  energy(sigma->0) =     -138.90493790
  exchange ACFDT corr.  =         0.00000000  see jH, gK, PRB 81, 115126


--------------------------------------------------------------------------------------------------------




----------------------------------------- Iteration    1(  18)  ---------------------------------------


    POTLOK:  cpu time   16.2029: real time   16.2423
    SETDIJ:  cpu time    0.1844: real time    0.1849
    TRIAL :  cpu time   53.0165: real time   53.2287
    CORREC:  cpu time   65.9320: real time   66.1760
    CHARGE:  cpu time    2.3450: real time    2.3540
    --------------------------------------------
      LOOP:  cpu time  137.7211: real time  138.2289

 eigenvalue-minimisations  :     0
 total energy-change (2. order) :-0.6667618E+01  (-0.4051445E+01)
 number of electron      32.0000000 magnetization 
 augmentation part        0.6896864 magnetization 

 Free energy of the ion-electron system (eV)
  ---------------------------------------------------
  alpha Z        PSCENC =         0.09845731
  Ewald energy   TEWEN  =      2358.21878004
  -Hartree energ DENC   =     -3037.87939886
  -exchange      EXHF   =       323.20977128
  -V(xc)+E(xc)   XCENC  =         0.00000000
  PAW double counting   =      2846.38490737    -2846.89949323
  entropy T*S    EENTRO =        -0.00000000
  eigenvalues    EBANDS =      -579.22568090
  atomic energy  EATOM  =       790.52010146
  ---------------------------------------------------
  free energy    TOTEN  =      -145.57255553 eV

  energy without entropy =     -145.57255553  energy(sigma->0) =     -145.57255553
  exchange ACFDT corr.  =         0.00000000  see jH, gK, PRB 81, 115126


--------------------------------------------------------------------------------------------------------




----------------------------------------- Iteration    1(  19)  ---------------------------------------


    POTLOK:  cpu time   16.2032: real time   16.2425
    SETDIJ:  cpu time    0.1816: real time    0.1820
    TRIAL :  cpu time   53.0163: real time   53.2306
    CORREC:  cpu time   65.9971: real time   66.2437
    CHARGE:  cpu time    2.3488: real time    2.3577
    --------------------------------------------
      LOOP:  cpu time  137.7871: real time  138.2994

 eigenvalue-minimisations  :     0
 total energy-change (2. order) :-0.4441654E+01  (-0.1200463E+01)
 number of electron      32.0000000 magnetization 
 augmentation part        0.7161717 magnetization 

 Free energy of the ion-electron system (eV)
  ---------------------------------------------------
  alpha Z        PSCENC =         0.09845731
  Ewald energy   TEWEN  =      2358.21878004
  -Hartree energ DENC   =     -3048.00500728
  -exchange      EXHF   =       325.64055404
  -V(xc)+E(xc)   XCENC  =         0.00000000
  PAW double counting   =      2911.18785129    -2911.70078711
  entropy T*S    EENTRO =        -0.00000000
  eigenvalues    EBANDS =      -575.97415924
  atomic energy  EATOM  =       790.52010146
  ---------------------------------------------------
  free energy    TOTEN  =      -150.01420950 eV

  energy without entropy =     -150.01420950  energy(sigma->0) =     -150.01420950
  exchange ACFDT corr.  =         0.00000000  see jH, gK, PRB 81, 115126


--------------------------------------------------------------------------------------------------------




----------------------------------------- Iteration    1(  20)  ---------------------------------------


    POTLOK:  cpu time   16.2176: real time   16.2570
    SETDIJ:  cpu time    0.1758: real time    0.1762
    TRIAL :  cpu time   53.1595: real time   53.3927
    CORREC:  cpu time   65.9749: real time   66.2187
    CHARGE:  cpu time    2.3479: real time    2.3569
    --------------------------------------------
      LOOP:  cpu time  137.9172: real time  138.4458

 eigenvalue-minimisations  :     0
 total energy-change (2. order) :-0.1267871E+01  (-0.4612075E+00)
 number of electron      32.0000000 magnetization 
 augmentation part        0.7288044 magnetization 

 Free energy of the ion-electron system (eV)
  ---------------------------------------------------
  alpha Z        PSCENC =         0.09845731
  Ewald energy   TEWEN  =      2358.21878004
  -Hartree energ DENC   =     -3063.33537678
  -exchange      EXHF   =       328.50706297
  -V(xc)+E(xc)   XCENC  =         0.00000000
  PAW double counting   =      2986.70748549    -2987.23481090
  entropy T*S    EENTRO =        -0.00000000
  eigenvalues    EBANDS =      -564.76377993
  atomic energy  EATOM  =       790.52010146
  ---------------------------------------------------
  free energy    TOTEN  =      -151.28208035 eV

  energy without entropy =     -151.28208035  energy(sigma->0) =     -151.28208035
  exchange ACFDT corr.  =         0.00000000  see jH, gK, PRB 81, 115126


--------------------------------------------------------------------------------------------------------




----------------------------------------- Iteration    1(  21)  ---------------------------------------


    POTLOK:  cpu time   16.2157: real time   16.2551
    SETDIJ:  cpu time    0.1819: real time    0.1823
    TRIAL :  cpu time   52.9900: real time   53.2056
    CORREC:  cpu time   65.9867: real time   66.2321
    CHARGE:  cpu time    2.3476: real time    2.3565
    --------------------------------------------
      LOOP:  cpu time  137.7602: real time  138.2728

 eigenvalue-minimisations  :     0
 total energy-change (2. order) :-0.4960288E+00  (-0.1513713E+00)
 number of electron      32.0000000 magnetization 
 augmentation part        0.7314010 magnetization 

 Free energy of the ion-electron system (eV)
  ---------------------------------------------------
  alpha Z        PSCENC =         0.09845731
  Ewald energy   TEWEN  =      2358.21878004
  -Hartree energ DENC   =     -3061.62790404
  -exchange      EXHF   =       328.50493765
  -V(xc)+E(xc)   XCENC  =         0.00000000
  PAW double counting   =      3025.66736737    -3026.20002316
  entropy T*S    EENTRO =        -0.00000000
  eigenvalues    EBANDS =      -566.95982580
  atomic energy  EATOM  =       790.52010146
  ---------------------------------------------------
  free energy    TOTEN  =      -151.77810918 eV

  energy without entropy =     -151.77810918  energy(sigma->0) =     -151.77810918
  exchange ACFDT corr.  =         0.00000000  see jH, gK, PRB 81, 115126


--------------------------------------------------------------------------------------------------------




----------------------------------------- Iteration    1(  22)  ---------------------------------------


    POTLOK:  cpu time   16.2130: real time   16.2523
    SETDIJ:  cpu time    0.1831: real time    0.1835
    TRIAL :  cpu time   53.0664: real time   53.2785
    CORREC:  cpu time   65.8975: real time   66.1433
    CHARGE:  cpu time    2.3487: real time    2.3579
    --------------------------------------------
      LOOP:  cpu time  137.7503: real time  138.2595

 eigenvalue-minimisations  :     0
 total energy-change (2. order) :-0.1557858E+00  (-0.3774215E-01)
 number of electron      32.0000000 magnetization 
 augmentation part        0.7308934 magnetization 

 Free energy of the ion-electron system (eV)
  ---------------------------------------------------
  alpha Z        PSCENC =         0.09845731
  Ewald energy   TEWEN  =      2358.21878004
  -Hartree energ DENC   =     -3061.31359448
  -exchange      EXHF   =       328.46463434
  -V(xc)+E(xc)   XCENC  =         0.00000000
  PAW double counting   =      3046.16371015    -3046.69837156
  entropy T*S    EENTRO =        -0.00000000
  eigenvalues    EBANDS =      -567.38761225
  atomic energy  EATOM  =       790.52010146
  ---------------------------------------------------
  free energy    TOTEN  =      -151.93389499 eV

  energy without entropy =     -151.93389499  energy(sigma->0) =     -151.93389499
  exchange ACFDT corr.  =        -0.00000000  see jH, gK, PRB 81, 115126


--------------------------------------------------------------------------------------------------------




----------------------------------------- Iteration    1(  23)  ---------------------------------------


    POTLOK:  cpu time   16.2056: real time   16.2449
    SETDIJ:  cpu time    0.1849: real time    0.1853
    TRIAL :  cpu time   53.0354: real time   53.2476
    CORREC:  cpu time   66.0288: real time   66.2735
    CHARGE:  cpu time    2.3434: real time    2.3525
    --------------------------------------------
      LOOP:  cpu time  137.8338: real time  138.3422

 eigenvalue-minimisations  :     0
 total energy-change (2. order) :-0.3814516E-01  (-0.1301945E-01)
 number of electron      32.0000000 magnetization 
 augmentation part        0.7302517 magnetization 

 Free energy of the ion-electron system (eV)
  ---------------------------------------------------
  alpha Z        PSCENC =         0.09845731
  Ewald energy   TEWEN  =      2358.21878004
  -Hartree energ DENC   =     -3061.36358175
  -exchange      EXHF   =       328.39356754
  -V(xc)+E(xc)   XCENC  =         0.00000000
  PAW double counting   =      3050.72917483    -3051.26337380
  entropy T*S    EENTRO =        -0.00000000
  eigenvalues    EBANDS =      -567.30516578
  atomic energy  EATOM  =       790.52010146
  ---------------------------------------------------
  free energy    TOTEN  =      -151.97204015 eV

  energy without entropy =     -151.97204015  energy(sigma->0) =     -151.97204015
  exchange ACFDT corr.  =         0.00000000  see jH, gK, PRB 81, 115126


--------------------------------------------------------------------------------------------------------




----------------------------------------- Iteration    1(  24)  ---------------------------------------


    POTLOK:  cpu time   16.2042: real time   16.2435
    SETDIJ:  cpu time    0.1844: real time    0.1849
    TRIAL :  cpu time   53.0783: real time   53.2909
    CORREC:  cpu time   65.9419: real time   66.1870
    CHARGE:  cpu time    2.3521: real time    2.3613
    --------------------------------------------
      LOOP:  cpu time  137.7998: real time  138.3093

 eigenvalue-minimisations  :     0
 total energy-change (2. order) :-0.1308501E-01  (-0.3705612E-02)
 number of electron      32.0000000 magnetization 
 augmentation part        0.7300160 magnetization 

 Free energy of the ion-electron system (eV)
  ---------------------------------------------------
  alpha Z        PSCENC =         0.09845731
  Ewald energy   TEWEN  =      2358.21878004
  -Hartree energ DENC   =     -3061.62951736
  -exchange      EXHF   =       328.35764368
  -V(xc)+E(xc)   XCENC  =         0.00000000
  PAW double counting   =      3051.11398330    -3051.64769433
  entropy T*S    EENTRO =        -0.00000000
  eigenvalues    EBANDS =      -567.01687926
  atomic energy  EATOM  =       790.52010146
  ---------------------------------------------------
  free energy    TOTEN  =      -151.98512516 eV

  energy without entropy =     -151.98512516  energy(sigma->0) =     -151.98512516
  exchange ACFDT corr.  =         0.00000000  see jH, gK, PRB 81, 115126


--------------------------------------------------------------------------------------------------------




----------------------------------------- Iteration    1(  25)  ---------------------------------------


    POTLOK:  cpu time   16.1997: real time   16.2390
    SETDIJ:  cpu time    0.1771: real time    0.1775
    TRIAL :  cpu time   53.0141: real time   53.2275
    CORREC:  cpu time   66.0360: real time   66.2809
    CHARGE:  cpu time    2.3547: real time    2.3636
    --------------------------------------------
      LOOP:  cpu time  137.8236: real time  138.3334

 eigenvalue-minimisations  :     0
 total energy-change (2. order) :-0.3711087E-02  (-0.1258863E-02)
 number of electron      32.0000000 magnetization 
 augmentation part        0.7299315 magnetization 

 Free energy of the ion-electron system (eV)
  ---------------------------------------------------
  alpha Z        PSCENC =         0.09845731
  Ewald energy   TEWEN  =      2358.21878004
  -Hartree energ DENC   =     -3061.62073454
  -exchange      EXHF   =       328.32399389
  -V(xc)+E(xc)   XCENC  =         0.00000000
  PAW double counting   =      3049.35373474    -3049.88714179
  entropy T*S    EENTRO =        -0.00000000
  eigenvalues    EBANDS =      -566.99602735
  atomic energy  EATOM  =       790.52010146
  ---------------------------------------------------
  free energy    TOTEN  =      -151.98883625 eV

  energy without entropy =     -151.98883625  energy(sigma->0) =     -151.98883625
  exchange ACFDT corr.  =         0.00000000  see jH, gK, PRB 81, 115126


--------------------------------------------------------------------------------------------------------




----------------------------------------- Iteration    1(  26)  ---------------------------------------


    POTLOK:  cpu time   16.2134: real time   16.2527
    SETDIJ:  cpu time    0.1793: real time    0.1797
    TRIAL :  cpu time   53.0872: real time   53.3007
    CORREC:  cpu time   65.9472: real time   66.1937
    CHARGE:  cpu time    2.3478: real time    2.3568
    --------------------------------------------
      LOOP:  cpu time  137.8137: real time  138.3253

 eigenvalue-minimisations  :     0
 total energy-change (2. order) :-0.1259627E-02  (-0.4328973E-03)
 number of electron      32.0000000 magnetization 
 augmentation part        0.7298934 magnetization 

 Free energy of the ion-electron system (eV)
  ---------------------------------------------------
  alpha Z        PSCENC =         0.09845731
  Ewald energy   TEWEN  =      2358.21878004
  -Hartree energ DENC   =     -3061.69313184
  -exchange      EXHF   =       328.32138510
  -V(xc)+E(xc)   XCENC  =         0.00000000
  PAW double counting   =      3047.69206980    -3048.22542312
  entropy T*S    EENTRO =        -0.00000000
  eigenvalues    EBANDS =      -566.92233462
  atomic energy  EATOM  =       790.52010146
  ---------------------------------------------------
  free energy    TOTEN  =      -151.99009587 eV

  energy without entropy =     -151.99009587  energy(sigma->0) =     -151.99009587
  exchange ACFDT corr.  =         0.00000000  see jH, gK, PRB 81, 115126


--------------------------------------------------------------------------------------------------------




----------------------------------------- Iteration    1(  27)  ---------------------------------------


    POTLOK:  cpu time   16.1343: real time   16.1735
    SETDIJ:  cpu time    0.1842: real time    0.1847
    TRIAL :  cpu time   53.1757: real time   53.3889
    CORREC:  cpu time   65.5327: real time   65.7759
    CHARGE:  cpu time    2.3426: real time    2.3517
    --------------------------------------------
      LOOP:  cpu time  137.4090: real time  137.9166

 eigenvalue-minimisations  :     0
 total energy-change (2. order) :-0.4333412E-03  (-0.1292110E-03)
 number of electron      32.0000000 magnetization 
 augmentation part        0.7298517 magnetization 

 Free energy of the ion-electron system (eV)
  ---------------------------------------------------
  alpha Z        PSCENC =         0.09845731
  Ewald energy   TEWEN  =      2358.21878004
  -Hartree energ DENC   =     -3061.74782546
  -exchange      EXHF   =       328.32719082
  -V(xc)+E(xc)   XCENC  =         0.00000000
  PAW double counting   =      3046.51191024    -3047.04527783
  entropy T*S    EENTRO =        -0.00000000
  eigenvalues    EBANDS =      -566.87386579
  atomic energy  EATOM  =       790.52010146
  ---------------------------------------------------
  free energy    TOTEN  =      -151.99052921 eV

  energy without entropy =     -151.99052921  energy(sigma->0) =     -151.99052921
  exchange ACFDT corr.  =         0.00000000  see jH, gK, PRB 81, 115126


--------------------------------------------------------------------------------------------------------




----------------------------------------- Iteration    1(  28)  ---------------------------------------


    POTLOK:  cpu time   15.7748: real time   15.8131
    SETDIJ:  cpu time    0.1855: real time    0.1859
    TRIAL :  cpu time   53.1469: real time   53.3608
    CORREC:  cpu time   64.9971: real time   65.2394
    CHARGE:  cpu time    2.3509: real time    2.3601
    --------------------------------------------
      LOOP:  cpu time  136.5000: real time  137.0070

 eigenvalue-minimisations  :     0
 total energy-change (2. order) :-0.1293091E-03  (-0.4668626E-04)
 number of electron      32.0000000 magnetization 
 augmentation part        0.7298384 magnetization 

 Free energy of the ion-electron system (eV)
  ---------------------------------------------------
  alpha Z        PSCENC =         0.09845731
  Ewald energy   TEWEN  =      2358.21878004
  -Hartree energ DENC   =     -3061.71571437
  -exchange      EXHF   =       328.32484437
  -V(xc)+E(xc)   XCENC  =         0.00000000
  PAW double counting   =      3045.83938076    -3046.37272229
  entropy T*S    EENTRO =        -0.00000000
  eigenvalues    EBANDS =      -566.90378580
  atomic energy  EATOM  =       790.52010146
  ---------------------------------------------------
  free energy    TOTEN  =      -151.99065852 eV

  energy without entropy =     -151.99065852  energy(sigma->0) =     -151.99065852
  exchange ACFDT corr.  =         0.00000000  see jH, gK, PRB 81, 115126


--------------------------------------------------------------------------------------------------------




----------------------------------------- Iteration    1(  29)  ---------------------------------------


    POTLOK:  cpu time   15.2306: real time   15.2676
    SETDIJ:  cpu time    0.1827: real time    0.1832
    TRIAL :  cpu time   53.0571: real time   53.2731
    CORREC:  cpu time   64.6571: real time   64.8990
    CHARGE:  cpu time    2.3488: real time    2.3579
    --------------------------------------------
      LOOP:  cpu time  135.5184: real time  136.0258

 eigenvalue-minimisations  :     0
 total energy-change (2. order) :-0.4669649E-04  (-0.1542884E-04)
 number of electron      32.0000000 magnetization 
 augmentation part        0.7298422 magnetization 

 Free energy of the ion-electron system (eV)
  ---------------------------------------------------
  alpha Z        PSCENC =         0.09845731
  Ewald energy   TEWEN  =      2358.21878004
  -Hartree energ DENC   =     -3061.71996437
  -exchange      EXHF   =       328.32689992
  -V(xc)+E(xc)   XCENC  =         0.00000000
  PAW double counting   =      3045.58801369    -3046.12135047
  entropy T*S    EENTRO =        -0.00000000
  eigenvalues    EBANDS =      -566.90164279
  atomic energy  EATOM  =       790.52010146
  ---------------------------------------------------
  free energy    TOTEN  =      -151.99070522 eV

  energy without entropy =     -151.99070522  energy(sigma->0) =     -151.99070522
  exchange ACFDT corr.  =        -0.00000000  see jH, gK, PRB 81, 115126


--------------------------------------------------------------------------------------------------------




----------------------------------------- Iteration    1(  30)  ---------------------------------------


    POTLOK:  cpu time   14.9430: real time   14.9792
    SETDIJ:  cpu time    0.1822: real time    0.1826
    TRIAL :  cpu time   53.0306: real time   53.2435
    CORREC:  cpu time   64.4912: real time   64.7343
    CHARGE:  cpu time    2.3549: real time    2.3638
    --------------------------------------------
      LOOP:  cpu time  135.0396: real time  135.5443

 eigenvalue-minimisations  :     0
 total energy-change (2. order) :-0.1543092E-04  (-0.5158274E-05)
 number of electron      32.0000000 magnetization 
 augmentation part        0.7298421 magnetization 

 Free energy of the ion-electron system (eV)
  ---------------------------------------------------
  alpha Z        PSCENC =         0.09845731
  Ewald energy   TEWEN  =      2358.21878004
  -Hartree energ DENC   =     -3061.73264804
  -exchange      EXHF   =       328.32919002
  -V(xc)+E(xc)   XCENC  =         0.00000000
  PAW double counting   =      3045.53808218    -3046.07142150
  entropy T*S    EENTRO =        -0.00000000
  eigenvalues    EBANDS =      -566.89126212
  atomic energy  EATOM  =       790.52010146
  ---------------------------------------------------
  free energy    TOTEN  =      -151.99072065 eV

  energy without entropy =     -151.99072065  energy(sigma->0) =     -151.99072065
  exchange ACFDT corr.  =         0.00000000  see jH, gK, PRB 81, 115126


--------------------------------------------------------------------------------------------------------




----------------------------------------- Iteration    1(  31)  ---------------------------------------


    POTLOK:  cpu time   14.8758: real time   14.9119
    SETDIJ:  cpu time    0.1771: real time    0.1776
    TRIAL :  cpu time   53.1234: real time   53.3387
    CORREC:  cpu time   64.7655: real time   65.0070
    CHARGE:  cpu time    2.3456: real time    2.3545
    --------------------------------------------
      LOOP:  cpu time  135.3277: real time  135.8330

 eigenvalue-minimisations  :     0
 total energy-change (2. order) :-0.5162230E-05  (-0.1866068E-05)
 number of electron      32.0000000 magnetization 
 augmentation part        0.7298419 magnetization 

 Free energy of the ion-electron system (eV)
  ---------------------------------------------------
  alpha Z        PSCENC =         0.09845731
  Ewald energy   TEWEN  =      2358.21878004
  -Hartree energ DENC   =     -3061.73511188
  -exchange      EXHF   =       328.32968167
  -V(xc)+E(xc)   XCENC  =         0.00000000
  PAW double counting   =      3045.53446366    -3046.06780107
  entropy T*S    EENTRO =        -0.00000000
  eigenvalues    EBANDS =      -566.88929700
  atomic energy  EATOM  =       790.52010146
  ---------------------------------------------------
  free energy    TOTEN  =      -151.99072581 eV

  energy without entropy =     -151.99072581  energy(sigma->0) =     -151.99072581
  exchange ACFDT corr.  =         0.00000000  see jH, gK, PRB 81, 115126


--------------------------------------------------------------------------------------------------------




----------------------------------------- Iteration    1(  32)  ---------------------------------------


    POTLOK:  cpu time   14.8296: real time   14.8656
    SETDIJ:  cpu time    0.1824: real time    0.1828
    TRIAL :  cpu time   53.0189: real time   53.2329
    CORREC:  cpu time   64.5240: real time   64.7674
    CHARGE:  cpu time    2.3528: real time    2.3620
    --------------------------------------------
      LOOP:  cpu time  134.9510: real time  135.4568

 eigenvalue-minimisations  :     0
 total energy-change (2. order) :-0.1866708E-05  (-0.6195353E-06)
 number of electron      32.0000000 magnetization 
 augmentation part        0.7298429 magnetization 

 Free energy of the ion-electron system (eV)
  ---------------------------------------------------
  alpha Z        PSCENC =         0.09845731
  Ewald energy   TEWEN  =      2358.21878004
  -Hartree energ DENC   =     -3061.73543528
  -exchange      EXHF   =       328.32969447
  -V(xc)+E(xc)   XCENC  =         0.00000000
  PAW double counting   =      3045.54455667    -3046.07789296
  entropy T*S    EENTRO =        -0.00000000
  eigenvalues    EBANDS =      -566.88898939
  atomic energy  EATOM  =       790.52010146
  ---------------------------------------------------
  free energy    TOTEN  =      -151.99072768 eV

  energy without entropy =     -151.99072768  energy(sigma->0) =     -151.99072768
  exchange ACFDT corr.  =         0.00000000  see jH, gK, PRB 81, 115126


--------------------------------------------------------------------------------------------------------




----------------------------------------- Iteration    1(  33)  ---------------------------------------


    POTLOK:  cpu time   14.8214: real time   14.8573
    SETDIJ:  cpu time    0.1831: real time    0.1835
    TRIAL :  cpu time   53.1967: real time   53.4114
    CORREC:  cpu time   64.5454: real time   64.7868
    CHARGE:  cpu time    2.3484: real time    2.3574
    --------------------------------------------
      LOOP:  cpu time  135.1375: real time  135.6423

 eigenvalue-minimisations  :     0
 total energy-change (2. order) :-0.6190326E-06  (-0.2222039E-06)
 number of electron      32.0000000 magnetization 
 augmentation part        0.7298443 magnetization 

 Free energy of the ion-electron system (eV)
  ---------------------------------------------------
  alpha Z        PSCENC =         0.09845731
  Ewald energy   TEWEN  =      2358.21878004
  -Hartree energ DENC   =     -3061.73611836
  -exchange      EXHF   =       328.32971849
  -V(xc)+E(xc)   XCENC  =         0.00000000
  PAW double counting   =      3045.55433152    -3046.08766851
  entropy T*S    EENTRO =        -0.00000000
  eigenvalues    EBANDS =      -566.88833025
  atomic energy  EATOM  =       790.52010146
  ---------------------------------------------------
  free energy    TOTEN  =      -151.99072830 eV

  energy without entropy =     -151.99072830  energy(sigma->0) =     -151.99072830
  exchange ACFDT corr.  =        -0.00000000  see jH, gK, PRB 81, 115126


--------------------------------------------------------------------------------------------------------




----------------------------------------- Iteration    1(  34)  ---------------------------------------


    POTLOK:  cpu time   14.8112: real time   14.8472
    SETDIJ:  cpu time    0.1806: real time    0.1810
    TRIAL :  cpu time   53.1885: real time   53.4028
    CORREC:  cpu time   64.4901: real time   64.7318
    CHARGE:  cpu time    2.3460: real time    2.3552
    --------------------------------------------
      LOOP:  cpu time  135.0548: real time  135.5589

 eigenvalue-minimisations  :     0
 total energy-change (2. order) :-0.2217246E-06  (-0.8836831E-07)
 number of electron      32.0000000 magnetization 
 augmentation part        0.7298457 magnetization 

 Free energy of the ion-electron system (eV)
  ---------------------------------------------------
  alpha Z        PSCENC =         0.09845731
  Ewald energy   TEWEN  =      2358.21878004
  -Hartree energ DENC   =     -3061.73654381
  -exchange      EXHF   =       328.32973613
  -V(xc)+E(xc)   XCENC  =         0.00000000
  PAW double counting   =      3045.56188600    -3046.09522379
  entropy T*S    EENTRO =        -0.00000000
  eigenvalues    EBANDS =      -566.88792186
  atomic energy  EATOM  =       790.52010146
  ---------------------------------------------------
  free energy    TOTEN  =      -151.99072852 eV

  energy without entropy =     -151.99072852  energy(sigma->0) =     -151.99072852
  exchange ACFDT corr.  =         0.00000000  see jH, gK, PRB 81, 115126


--------------------------------------------------------------------------------------------------------




----------------------------------------- Iteration    1(  35)  ---------------------------------------


    POTLOK:  cpu time   14.7978: real time   14.8337
    SETDIJ:  cpu time    0.1865: real time    0.1869
    TRIAL :  cpu time   53.2644: real time   53.4807
    CORREC:  cpu time   64.4982: real time   64.7413
    CHARGE:  cpu time    2.3476: real time    2.3569
    --------------------------------------------
      LOOP:  cpu time  135.1347: real time  135.6421

 eigenvalue-minimisations  :     0
 total energy-change (2. order) :-0.8784582E-07  (-0.3104659E-07)
 number of electron      32.0000000 magnetization 
 augmentation part        0.7298465 magnetization 

 Free energy of the ion-electron system (eV)
  ---------------------------------------------------
  alpha Z        PSCENC =         0.09845731
  Ewald energy   TEWEN  =      2358.21878004
  -Hartree energ DENC   =     -3061.73667613
  -exchange      EXHF   =       328.32972159
  -V(xc)+E(xc)   XCENC  =         0.00000000
  PAW double counting   =      3045.56866948    -3046.10200797
  entropy T*S    EENTRO =        -0.00000000
  eigenvalues    EBANDS =      -566.88777439
  atomic energy  EATOM  =       790.52010146
  ---------------------------------------------------
  free energy    TOTEN  =      -151.99072861 eV

  energy without entropy =     -151.99072861  energy(sigma->0) =     -151.99072861
  exchange ACFDT corr.  =        -0.00000000  see jH, gK, PRB 81, 115126


--------------------------------------------------------------------------------------------------------


  average scaling for gradient   1.9506


 average (electrostatic) potential at core
  the test charge radii are     0.6991  0.5201
  (the norm of the test charge is              1.0000)
       1 -40.2729       2 -40.4015       3 -40.3482       4 -40.4015       5 -40.2729
       6 -22.6440       7 -22.6447       8 -22.6515       9 -22.5158      10 -22.5180
      11 -22.5203      12 -22.5209      13 -22.5158      14 -22.5181      15 -22.6440
      16 -22.6516      17 -22.6447
 
 
 
 E-fermi : -12.0913     XC(G=0):   0.0000     alpha+bet : -0.0194


 k-point     1 :       0.0000    0.0000    0.0000
  band No.  band energies     occupation 
      1     -29.4071      2.00000
      2     -27.6184      2.00000
      3     -24.9938      2.00000
      4     -22.3005      2.00000
      5     -21.3543      2.00000
      6     -17.5973      2.00000
      7     -16.2732      2.00000
      8     -16.1197      2.00000
      9     -15.0558      2.00000
     10     -14.8842      2.00000
     11     -14.2877      2.00000
     12     -13.4455      2.00000
     13     -12.9356      2.00000
     14     -12.5555      2.00000
     15     -12.4761      2.00000
     16     -12.1391      2.00000
     17       0.0161      0.00000
     18       0.1355      0.00000
     19       0.1363      0.00000
     20       0.1442      0.00000
     21       0.1551      0.00000
     22       0.1904      0.00000
     23       0.2510      0.00000
     24       0.2581      0.00000
     25       0.2584      0.00000
     26       0.2596      0.00000
     27       0.2792      0.00000
     28       0.2872      0.00000


--------------------------------------------------------------------------------------------------------


 soft charge-density along one line, spin component           1
         0         1         2         3         4         5         6         7         8         9
 total charge-density along one line
 
 pseudopotential strength for first ion, spin component:           1
  9.009  11.964  -0.000  -0.000  -0.000   0.001   0.000   0.001
 11.964  15.887  -0.000  -0.000  -0.000   0.001   0.000   0.001
 -0.000  -0.000  -3.528   0.000   0.000   6.841  -0.000  -0.001
 -0.000  -0.000   0.000  -3.528   0.000  -0.000   6.841  -0.000
 -0.000  -0.000   0.000   0.000  -3.527  -0.001  -0.000   6.840
  0.001   0.001   6.841  -0.000  -0.001 -15.309  -0.000   0.001
  0.000   0.000  -0.000   6.841  -0.000  -0.000 -15.309   0.000
  0.001   0.001  -0.001  -0.000   6.840   0.001   0.000 -15.306
 total augmentation occupancy for first ion, spin component:           1
 11.099  -5.415  -0.027  -0.003  -0.022  -0.002  -0.000  -0.000
 -5.415   2.650   0.017   0.002   0.014   0.000   0.000  -0.001
 -0.027   0.017   1.670  -0.001  -0.010   0.171   0.000   0.001
 -0.003   0.002  -0.001   1.677  -0.001   0.000   0.170   0.000
 -0.022   0.014  -0.010  -0.001   1.678   0.001   0.000   0.174
 -0.002   0.000   0.171   0.000   0.001   0.018   0.000   0.001
 -0.000   0.000   0.000   0.170   0.000   0.000   0.017   0.000
 -0.000  -0.001   0.001   0.000   0.174   0.001   0.000   0.018


------------------------ aborting loop because EDIFF is reached ----------------------------------------


    FORLOC:  cpu time    2.0477: real time    2.0527
    FORHF :  cpu time   38.4910: real time   38.5862
    FORNL :  cpu time    1.7742: real time    1.7786
    FORCOR:  cpu time   13.9215: real time   13.9553
    OFIELD:  cpu time    0.0461: real time    0.0462

 VOLUME and BASIS-vectors are now :
 -----------------------------------------------------------------------------
  energy-cutoff  :     1600.00
  volume of cell :    42875.00
      direct lattice vectors                 reciprocal lattice vectors
    35.000000000  0.000000000  0.000000000     0.028571429  0.000000000  0.000000000
     0.000000000 35.000000000  0.000000000     0.000000000  0.028571429  0.000000000
     0.000000000  0.000000000 35.000000000     0.000000000  0.000000000  0.028571429

  length of vectors
    35.000000000 35.000000000 35.000000000     0.028571429  0.028571429  0.028571429


 FORCES acting on ions:
    Electron-Ion                     Ewald-Force                    Non-Local-Force
 -----------------------------------------------------------------------------------------------
   0.139E+03 0.465E+02 0.356E+01   -.138E+03 -.461E+02 -.353E+01   -.553E+00 -.415E+00 -.364E-01
   0.625E+02 -.898E+02 -.756E+01   -.621E+02 0.895E+02 0.754E+01   -.320E+00 0.468E+00 0.410E-01
   -.589E+00 0.806E+02 0.683E+01   0.584E+00 -.799E+02 -.676E+01   0.564E-02 -.747E+00 -.706E-01
   -.611E+02 -.908E+02 -.749E+01   0.608E+02 0.904E+02 0.747E+01   0.313E+00 0.472E+00 0.412E-01
   -.139E+03 0.445E+02 0.359E+01   0.139E+03 -.441E+02 -.356E+01   0.559E+00 -.408E+00 -.360E-01
   0.255E+02 0.394E+02 0.554E+02   -.258E+02 -.425E+02 -.604E+02   0.168E+00 0.254E+01 0.414E+01
   0.252E+02 0.483E+02 -.480E+02   -.254E+02 -.522E+02 0.524E+02   0.144E+00 0.321E+01 -.365E+01
   0.690E+02 -.284E+02 -.270E+01   -.739E+02 0.316E+02 0.300E+01   0.408E+01 -.267E+01 -.247E+00
   0.134E+02 -.486E+02 -.598E+02   -.135E+02 0.517E+02 0.647E+02   0.122E-01 -.261E+01 -.408E+01
   0.136E+02 -.578E+02 0.511E+02   -.136E+02 0.617E+02 -.554E+02   0.206E-01 -.325E+01 0.360E+01
   -.437E+00 0.578E+02 -.527E+02   0.466E+00 -.617E+02 0.569E+02   -.250E-01 0.324E+01 -.356E+01
   -.339E+00 0.480E+02 0.618E+02   0.361E+00 -.511E+02 -.667E+02   -.181E-01 0.259E+01 0.406E+01
   -.127E+02 -.488E+02 -.598E+02   0.127E+02 0.519E+02 0.647E+02   0.248E-01 -.261E+01 -.408E+01
   -.127E+02 -.579E+02 0.511E+02   0.127E+02 0.618E+02 -.554E+02   0.281E-01 -.325E+01 0.360E+01
   -.261E+02 0.391E+02 0.554E+02   0.264E+02 -.421E+02 -.604E+02   -.204E+00 0.254E+01 0.414E+01
   -.685E+02 -.294E+02 -.267E+01   0.734E+02 0.327E+02 0.296E+01   -.404E+01 -.272E+01 -.244E+00
   -.259E+02 0.479E+02 -.480E+02   0.262E+02 -.518E+02 0.524E+02   -.191E+00 0.320E+01 -.365E+01
 -----------------------------------------------------------------------------------------------
   -.431E-02 0.563E+00 0.195E-01   0.284E-13 0.355E-13 -.213E-13   0.307E-02 -.422E+00 -.130E-01
 
 
 POSITION                                       TOTAL-FORCE (eV/Angst)
 -----------------------------------------------------------------------------------
     32.46962     34.58242      0.68131        -0.176068     -0.097796     -0.010811
     33.72384      0.44363      0.75002        -0.013154      0.214032      0.031982
      0.00220     34.61928      0.67899         0.001927     -0.234571     -0.013871
      1.26833      0.46240      0.74937         0.009342      0.214347      0.032083
      2.53497     34.61958      0.68069         0.177923     -0.095758     -0.010744
     32.44011     34.01721     34.74984        -0.032416      0.091616      0.163170
     32.44596     33.86614      1.50266        -0.024882      0.124328     -0.146157
     31.56379      0.18414      0.73677         0.157396     -0.104172     -0.013468
     33.72192      1.02522      1.67509        -0.025393     -0.115702     -0.185403
     33.71966      1.16856     34.93284        -0.034214     -0.135124      0.159123
      0.00783     33.88859      1.49383        -0.001421      0.163670     -0.176831
      0.00625     34.03948     34.75118        -0.000759      0.115006      0.193922
      1.26202      1.04425      1.67425         0.026772     -0.115458     -0.185470
      1.26163      1.18706     34.93197         0.036377     -0.134983      0.159086
      2.57244     34.05428     34.74955         0.031104      0.092476      0.163252
      3.43198      0.23441      0.73558        -0.156054     -0.106349     -0.013429
      2.56921     33.90419      1.50246         0.023521      0.124439     -0.146436
 -----------------------------------------------------------------------------------
    total drift:                               -0.000218      0.000087     -0.000130


--------------------------------------------------------------------------------------------------------



  FREE ENERGIE OF THE ION-ELECTRON SYSTEM (eV)
  ---------------------------------------------------
  free  energy   TOTEN  =      -151.99072861 eV

  energy  without entropy=     -151.99072861  energy(sigma->0) =     -151.99072861
 


--------------------------------------------------------------------------------------------------------


    POTLOK:  cpu time   14.9864: real time   15.0228


--------------------------------------------------------------------------------------------------------


     LOOP+:  cpu time 4892.3809: real time 4909.7572
    4ORBIT:  cpu time    0.0000: real time    0.0000

 total amount of memory used by VASP on root node  3816440. kBytes
========================================================================

   base      :      30000. kBytes
   nonl-proj :     155769. kBytes
   fftplans  :    1395487. kBytes
   grid      :    2104012. kBytes
   one-center:          4. kBytes
   HF        :          9. kBytes
   nonlr-proj:        311. kBytes
   wavefun   :     130848. kBytes
 
  
  
 General timing and accounting informations for this job:
 ========================================================
  
                  Total CPU time used (sec):     5676.540
                            User time (sec):     5171.370
                          System time (sec):      505.170
                         Elapsed time (sec):     5696.327
  
                   Maximum memory used (kb):     5529540.
                   Average memory used (kb):           0.
  
                          Minor page faults:      1647200
                          Major page faults:            6
                 Voluntary context switches:       597432
 
 PROFILE, used timers:      39
 =============================
 
 index                 routine                    time                            calls level
----------------------------------------------------------------------------------------------
    1    total_time                         5696.328702                                1   1
    2      w1_copy                               1.373520                           1127   2
    3      fftwav_mpi                          171.158071                            838   2
    4      fftext_mpi                            0.933594                              7   2
    5      overl                                 0.000673                            576   2
    6      orth1                                 1.933611                            422   2
    7      lincom                                1.767772                            180   2
    8      eccp                                 26.581997                            665   2
    9      hamiltmu                             40.912624                             81   2
   10        vhamil                                7.092979                          141   3
   11        overl1                                0.000139                          141   3
   12        kinhamil                             19.440220                          141   3
   13          fftext_mpi                           19.251385                        141   4
   14      pdssyex_zheevx                        1.600378                             63   2
   15      fock_acc                           1383.220192                            120   2
   16        w1_copy                               1.311087                          698   3
   17        fftwav_mpi                           70.632607                          698   3
   18        fock_charge_mu                       69.903656                          488   3
   19          racc0mu_hf                            1.664054                        488   4
   20        rpromu_hf                             3.507984                          488   3
   21        overl1                                0.000185                          210   3
   22        fftext_mpi                           21.373254                          210   3
   23      hamilt_local                         44.991887                            210   2
   24        vhamil                               10.248333                          210   3
   25        kinhamil                             34.742999                          210   3
   26          fftext_mpi                           34.460170                        210   4
   27      w1_dscal                              4.944596                            210   2
   28      eddiag                             1418.107534                             30   2
   29        fock_acc                           1368.663335                          120   3
   30          w1_copy                               1.150325                        690   4
   31          fftwav_mpi                           72.598534                        690   4
   32          fock_charge_mu                       68.438046                        480   4
   33            racc0mu_hf                            1.256164                      480   5
   34          rpromu_hf                             2.985466                        480   4
   35          overl1                                0.000171                        210   4
   36          fftext_mpi                           21.080663                        210   4
   37        fftwav_mpi                           40.874378                          210   3
   38        eccp                                  7.960847                          210   3
   39      rpro1_hf                              0.299048                            448   2
 
 Flat profile
 ============
 
             routine name                   CPU           calls
 ---------------------------------------------------------------
 total_time                           2598.503204           1
 fock_acc                             2418.901549         240
 fftwav_mpi                            355.263590        2436
 fock_charge_mu                        135.421484         968
 fftext_mpi                             97.099066         778
 eccp                                   34.542844         875
 vhamil                                 17.341313         351
 hamiltmu                               14.379286          81
 rpromu_hf                               6.493450         968
 w1_dscal                                4.944596         210
 w1_copy                                 3.834932        2515
 racc0mu_hf                              2.920218         968
 orth1                                   1.933611         422
 lincom                                  1.767772         180
 pdssyex_zheevx                          1.600378          63
 eddiag                                  0.608973          30
 kinhamil                                0.471664         351
 rpro1_hf                                0.299048         448
 overl                                   0.000673         576
 hamilt_local                            0.000555         210
 overl1                                  0.000495         561
 ---------------------------------------------------------------
  summed up times    5696.32870221138     
 
Profiling took   0.011111  0.005344  0.003253  0.003231 seconds
Profiling took   0.007077 seconds
