 vasp.5.4.1 24Jun15 (build Jan 02 2020 16:21:29) gamma-only                     
  
 executed on           IFC15_impi date 2020.04.19  23:01:44
 running on   32 total cores
 distrk:  each k-point on   32 cores,    1 groups
 distr:  one band on NCORES_PER_BAND=   8 cores,    4 groups


--------------------------------------------------------------------------------------------------------


 INCAR:
 POTCAR:    PAW_PBE C 08Apr2002                   
 POTCAR:    PAW_PBE H 15Jun2001                   
 POTCAR:    PAW_PBE C 08Apr2002                   
   VRHFIN =C: s2p2                                                              
   LEXCH  = PE                                                                  
   EATOM  =   147.1560 eV,   10.8157 Ry                                         
                                                                                
   TITEL  = PAW_PBE C 08Apr2002                                                 
   LULTRA =        F    use ultrasoft PP ?                                      
   IUNSCR =        1    unscreen: 0-lin 1-nonlin 2-no                           
   RPACOR =    1.200    partial core radius                                     
   POMASS =   12.011; ZVAL   =    4.000    mass and valenz                      
   RCORE  =    1.500    outmost cutoff radius                                   
   RWIGS  =    1.630; RWIGS  =    0.863    wigner-seitz radius (au A)           
   ENMAX  =  400.000; ENMIN  =  300.000 eV                                      
   ICORE  =        2    local potential                                         
   LCOR   =        T    correct aug charges                                     
   LPAW   =        T    paw PP                                                  
   EAUG   =  644.873                                                            
   DEXC   =    0.000                                                            
   RMAX   =    1.529    core radius for proj-oper                               
   RAUG   =    1.300    factor for augmentation sphere                          
   RDEP   =    1.501    radius for radial grids                                 
   RDEPT  =    1.300    core radius for aug-charge                              
                                                                                
   Atomic configuration                                                         
    4 entries                                                                   
     n  l   j            E        occ.                                          
     1  0  0.50      -273.3789   2.0000                                         
     2  0  0.50       -13.7508   2.0000                                         
     2  1  0.50        -5.2854   2.0000                                         
     3  2  1.50        -5.4423   0.0000                                         
   Description                                                                  
     l       E           TYP  RCUT    TYP  RCUT                                 
     0    -13.7508458     23  1.200                                             
     0     -8.2022199     23  1.200                                             
     1     -5.2854383     23  1.500                                             
     1     34.0145650     23  1.500                                             
     2     -5.4423304      7  1.500                                             
  local pseudopotential read in
  partial core-charges read in
  partial kinetic energy density read in
  atomic valenz-charges read in
  non local Contribution for L=           0  read in
    real space projection operators read in
  non local Contribution for L=           0  read in
    real space projection operators read in
  non local Contribution for L=           1  read in
    real space projection operators read in
  non local Contribution for L=           1  read in
    real space projection operators read in
    PAW grid and wavefunctions read in
 
   number of l-projection  operators is LMAX  =           4
   number of lm-projection operators is LMMAX =           8
 
 POTCAR:    PAW_PBE H 15Jun2001                   
   VRHFIN =H: ultrasoft test                                                    
   LEXCH  = PE                                                                  
   EATOM  =    12.4884 eV,    0.9179 Ry                                         
                                                                                
   TITEL  = PAW_PBE H 15Jun2001                                                 
   LULTRA =        F    use ultrasoft PP ?                                      
   IUNSCR =        0    unscreen: 0-lin 1-nonlin 2-no                           
   RPACOR =    0.000    partial core radius                                     
   POMASS =    1.000; ZVAL   =    1.000    mass and valenz                      
   RCORE  =    1.100    outmost cutoff radius                                   
   RWIGS  =    0.700; RWIGS  =    0.370    wigner-seitz radius (au A)           
   ENMAX  =  250.000; ENMIN  =  200.000 eV                                      
   RCLOC  =    0.701    cutoff for local pot                                    
   LCOR   =        T    correct aug charges                                     
   LPAW   =        T    paw PP                                                  
   EAUG   =  400.000                                                            
   RMAX   =    1.123    core radius for proj-oper                               
   RAUG   =    1.200    factor for augmentation sphere                          
   RDEP   =    1.112    radius for radial grids                                 
   RDEPT  =    0.926    core radius for aug-charge                              
                                                                                
   Atomic configuration                                                         
    2 entries                                                                   
     n  l   j            E        occ.                                          
     1  0  0.50        -6.4927   1.0000                                         
     2  1  0.50        -3.4015   0.0000                                         
   Description                                                                  
     l       E           TYP  RCUT    TYP  RCUT                                 
     0     -6.4927494     23  1.100                                             
     0      6.8029130     23  1.100                                             
     1     -4.0817478     23  1.100                                             
  local pseudopotential read in
  atomic valenz-charges read in
  non local Contribution for L=           0  read in
    real space projection operators read in
  non local Contribution for L=           0  read in
    real space projection operators read in
  non local Contribution for L=           1  read in
    real space projection operators read in
    PAW grid and wavefunctions read in
 
   number of l-projection  operators is LMAX  =           3
   number of lm-projection operators is LMMAX =           5
 
  PAW_PBE C 08Apr2002                   :
 energy of atom  1       EATOM= -147.1560
 kinetic energy error for atom=    0.0002 (will be added to EATOM!!)
  PAW_PBE H 15Jun2001                   :
 energy of atom  2       EATOM=  -12.4884
 kinetic energy error for atom=    0.0000 (will be added to EATOM!!)
 
 
 POSCAR: C H                                     
  positions in cartesian coordinates
  No initial velocities read in
 exchange correlation table for  LEXCH =        8
   RHO(1)=    0.500       N(1)  =     2000
   RHO(2)=  100.500       N(2)  =     4000
 


--------------------------------------------------------------------------------------------------------


 ion  position               nearest neighbor table
   1  0.022  0.025  0.023-   7 1.08   2 1.39   6 1.39
   2  0.035  0.987  0.023-   8 1.08   1 1.39   3 1.39
   3  0.011  0.957  0.014-   9 1.08   2 1.39   4 1.39
   4  0.972  0.965  0.005-  10 1.08   3 1.39   5 1.39
   5  0.959  0.003  0.006-  11 1.08   6 1.39   4 1.39
   6  0.984  0.032  0.015-  12 1.08   5 1.39   1 1.39
   7  0.041  0.048  0.030-   1 1.08
   8  0.065  0.981  0.029-   2 1.08
   9  0.021  0.928  0.013-   3 1.08
  10  0.953  0.942  0.998-   4 1.08
  11  0.929  0.008  1.000-   5 1.08
  12  0.973  0.061  0.016-   6 1.08
 
  LATTYP: Found a simple cubic cell.
 ALAT       =    35.0000000000
  
  Lattice vectors:
  
 A1 = (  35.0000000000,   0.0000000000,   0.0000000000)
 A2 = (   0.0000000000,  35.0000000000,   0.0000000000)
 A3 = (   0.0000000000,   0.0000000000,  35.0000000000)


Analysis of symmetry for initial positions (statically):
=====================================================================
 Subroutine PRICEL returns:
 Original cell was already a primitive cell.
 

 Routine SETGRP: Setting up the symmetry group for a 
 simple cubic supercell.


 Subroutine GETGRP returns: Found  1 space group operations
 (whereof  1 operations were pure point group operations)
 out of a pool of 48 trial point group operations.


The static configuration has the point symmetry C_1 .


Analysis of symmetry for dynamics (positions and initial velocities):
=====================================================================
 Subroutine PRICEL returns:
 Original cell was already a primitive cell.
 

 Routine SETGRP: Setting up the symmetry group for a 
 simple cubic supercell.


 Subroutine GETGRP returns: Found  1 space group operations
 (whereof  1 operations were pure point group operations)
 out of a pool of 48 trial point group operations.


The dynamic configuration has the point symmetry C_1 .
 
 
 KPOINTS: automatic mesh                          

Automatic generation of k-mesh.
Space group operators:
 irot       det(A)        alpha          n_x          n_y          n_z        tau_x        tau_y        tau_z
    1     1.000000     0.000000     1.000000     0.000000     0.000000     0.000000     0.000000     0.000000
 
 Subroutine IBZKPT returns following result:
 ===========================================
 
 Found      1 irreducible k-points:
 
 Following reciprocal coordinates:
            Coordinates               Weight
  0.000000  0.000000  0.000000      1.000000
 
 Following cartesian coordinates:
            Coordinates               Weight
  0.000000  0.000000  0.000000      1.000000
 
 
 Subroutine IBZKPT_HF returns following result:
 ==============================================
 
 Found      1 k-points in 1st BZ
 the following      1 k-points will be used (e.g. in the exchange kernel)
 Following reciprocal coordinates:   # in IRBZ
  0.000000  0.000000  0.000000    1.00000000   1 t-inv F


--------------------------------------------------------------------------------------------------------




 Dimension of arrays:
   k-points           NKPTS =      1   k-points in BZ     NKDIM =      1   number of bands    NBANDS=     24
   number of dos      NEDOS =    301   number of ions     NIONS =     12
   non local maximal  LDIM  =      4   non local SUM 2l+1 LMDIM =      8
   total plane-waves  NPLWV = ******
   max r-space proj   IRMAX =      1   max aug-charges    IRDMAX=  30635
   dimension x,y,z NGX =   480 NGY =  480 NGZ =  480
   dimension x,y,z NGXF=   960 NGYF=  960 NGZF=  960
   support grid    NGXF=   960 NGYF=  960 NGZF=  960
   ions per type =               6   6
 NGX,Y,Z   is equivalent  to a cutoff of  22.80, 22.80, 22.80 a.u.
 NGXF,Y,Z  is equivalent  to a cutoff of  45.60, 45.60, 45.60 a.u.


 I would recommend the setting:
   dimension x,y,z NGX =   457 NGY =  457 NGZ =  457
 SYSTEM =  C                                       
 POSCAR =  C H                                     

 Startparameter for this run:
   NWRITE =      2    write-flag & timer
   PREC   = accura    normal or accurate (medium, high low for compatibility)
   ISTART =      0    job   : 0-new  1-cont  2-samecut
   ICHARG =      2    charge: 1-file 2-atom 10-const
   ISPIN  =      1    spin polarized calculation?
   LNONCOLLINEAR =      F non collinear calculations
   LSORBIT =      F    spin-orbit coupling
   INIWAV =      1    electr: 0-lowe 1-rand  2-diag
   LASPH  =      T    aspherical Exc in radial PAW
   METAGGA=      F    non-selfconsistent MetaGGA calc.

 Electronic Relaxation 1
   ENCUT  = 1600.0 eV 117.60 Ry   10.84 a.u. 114.15114.15114.15*2*pi/ulx,y,z
   ENINI  = 1600.0     initial cutoff
   ENAUG  =  644.9 eV  augmentation charge cutoff
   NELM   =     60;   NELMIN=  2; NELMDL= -5     # of ELM steps 
   EDIFF  = 0.1E-06   stopping-criterion for ELM
   LREAL  =      F    real-space projection
   NLSPLINE    = F    spline interpolate recip. space projectors
   LCOMPAT=      F    compatible to vasp.4.4
   GGA_COMPAT  = T    GGA compatible to vasp.4.4-vasp.4.6
   LMAXPAW     = -100 max onsite density
   LMAXMIX     =    2 max onsite mixed and CHGCAR
   VOSKOWN=      0    Vosko Wilk Nusair interpolation
   ROPT   =    0.00000   0.00000
 Ionic relaxation
   EDIFFG = 0.1E-05   stopping-criterion for IOM
   NSW    =      0    number of steps for IOM
   NBLOCK =      1;   KBLOCK =      1    inner block; outer block 
   IBRION =     -1    ionic relax: 0-MD 1-quasi-New 2-CG
   NFREE  =      0    steps in history (QN), initial steepest desc. (CG)
   ISIF   =      0    stress and relaxation
   IWAVPR =     10    prediction:  0-non 1-charg 2-wave 3-comb
   ISYM   =      3    0-nonsym 1-usesym 2-fastsym
   LCORR  =      T    Harris-Foulkes like correction to forces

   POTIM  = 0.5000    time-step for ionic-motion
   TEIN   =    0.0    initial temperature
   TEBEG  =    0.0;   TEEND  =   0.0 temperature during run
   SMASS  =  -3.00    Nose mass-parameter (am)
   estimated Nose-frequenzy (Omega)   =  0.10E-29 period in steps =****** mass=  -0.280E-25a.u.
   SCALEE = 1.0000    scale energy and forces
   NPACO  =    256;   APACO  = 16.0  distance and # of slots for P.C.
   PSTRESS=    0.0 pullay stress

  Mass of Ions in am
   POMASS =  12.01  1.00
  Ionic Valenz
   ZVAL   =   4.00  1.00
  Atomic Wigner-Seitz radii
   RWIGS  =  -1.00 -1.00
  virtual crystal weights 
   VCA    =   1.00  1.00
   NELECT =      30.0000    total number of electrons
   NUPDOWN=      -1.0000    fix difference up-down

 DOS related values:
   EMIN   =  10.00;   EMAX   =-10.00  energy-range for DOS
   EFERMI =   0.00
   ISMEAR =     0;   SIGMA  =   0.01  broadening in eV -4-tet -1-fermi 0-gaus

 Electronic relaxation 2 (details)
   IALGO  =     58    algorithm
   LDIAG  =      T    sub-space diagonalisation (order eigenvalues)
   LSUBROT=      F    optimize rotation matrix (better conditioning)
   TURBO    =      0    0=normal 1=particle mesh
   IRESTART =      0    0=no restart 2=restart with 2 vectors
   NREBOOT  =      0    no. of reboots
   NMIN     =      0    reboot dimension
   EREF     =   0.00    reference energy to select bands
   IMIX   =      4    mixing-type and parameters
     AMIX     =   0.40;   BMIX     =  1.00
     AMIX_MAG =   1.60;   BMIX_MAG =  1.00
     AMIN     =   0.10
     WC   =   100.;   INIMIX=   1;  MIXPRE=   1;  MAXMIX= -45

 Intra band minimization:
   WEIMIN = 0.0000     energy-eigenvalue tresh-hold
   EBREAK =  0.10E-08  absolut break condition
   DEPER  =   0.30     relativ break condition  

   TIME   =   0.40     timestep for ELM

  volume/ion in A,a.u.               =    3572.92     24111.23
  Fermi-wavevector in a.u.,A,eV,Ry     =   0.145338  0.274650  0.287399  0.021123
  Thomas-Fermi vector in A             =   0.812913
 
 Write flags
   LWAVE  =      F    write WAVECAR
   LCHARG =      T    write CHGCAR
   LVTOT  =      F    write LOCPOT, total local potential
   LVHAR  =      F    write LOCPOT, Hartree potential only
   LELF   =      F    write electronic localiz. function (ELF)
   LORBIT =      0    0 simple, 1 ext, 2 COOP (PROOUT)


 Dipole corrections
   LMONO  =      F    monopole corrections only (constant potential shift)
   LDIPOL =      F    correct potential (dipole corrections)
   IDIPOL =      0    1-x, 2-y, 3-z, 4-all directions 
   EPSILON=  1.0000000 bulk dielectric constant

 Exchange correlation treatment:
   GGA     =    --    GGA type
   LEXCH   =     8    internal setting for exchange type
   VOSKOWN=      0    Vosko Wilk Nusair interpolation
   EXXOEP  =     0    0=HF, 1=EXX-LHF (local Hartree Fock) 2=EXX OEP
   LHFCALC =     T    Hartree Fock is set to
   LSYMGRAD=     F    symmetrize gradient (conserves proper symmetry)
   PRECFOCK=normal    Normal, Fast or Accurate (Low or Medium for compatibility)
   LRHFCALC=     F    long range Hartree Fock
   LRSCOR  =     F    long range correlation only (use DFT for short range part)
   LTHOMAS =     F    Thomas Fermi screening in HF
   LMODELHF=     F    short range full HF, long range fraction AEXX
   ENCUT4O =  -1.0   cutoff for four orbital integrals eV
   LMAXFOCK=     4    L truncation for augmentation on plane wave grid
   LMAXFOCKAE=  -1    L truncation for all-electron charge restoration on plane wave grid
   NMAXFOCKAE=   1    number of basis functions for all-electron charge restoration
   LFOCKAEDFT=     F  apply the AE augmentation even for DFT
   NKREDX  =     1    reduce k-point grid by
   NKREDY  =     1    reduce k-point grid by
   NKREDZ  =     1    reduce k-point grid by
   SHIFTRED=     F    shift reduced grid of Gamma
   HFKIDENT=     F    idential grid for each k-point
   ODDONLY =     F    use only odd q-grid points
   EVENONLY=     F    use only even q-grid points
   HFALPHA =   -1.0000 decay constant for conv. correction
   MCALPHA =    0.0000 extent of test-charge in conv. correction in multipole expansion
   AEXX    =    1.0000 exact exchange contribution
   HFSCREEN=    0.0000 screening length (either q_TF or 0.3 A-1)
   HFSCREENC=   0.0000 screening length for correlation (either q_TF or 0.3 A-1)
   HFRCUT  =    0.0000 spherical cutoff for potential kernel
   ALDAX   =    0.0000 LDA exchange part
   AGGAX   =    0.0000 GGA exchange part
   ALDAC   =    0.0000 LDA correlation
   AGGAC   =    0.0000 GGA correlation
   NBANDSGWLOW=     1    first orbital included in HF term
   ENCUTFOCK=  -1.0 apply spherical cutoff to Coloumb kernel
 Linear response parameters
   LEPSILON=     F    determine dielectric tensor
   LRPA    =     F    only Hartree local field effects (RPA)
   LNABLA  =     F    use nabla operator in PAW spheres
   LVEL    =     F    velocity operator in full k-point grid
   LINTERFAST=   F  fast interpolation
   KINTER  =     0    interpolate to denser k-point grid
   CSHIFT  =0.1000    complex shift for real part using Kramers Kronig
   OMEGAMAX=  -1.0    maximum frequency
   DEG_THRESHOLD= 0.2000000E-02 threshold for treating states as degnerate
   RTIME   =    0.100 relaxation time in fs

 Orbital magnetization related:
   ORBITALMAG=     F  switch on orbital magnetization
   LCHIMAG   =     F  perturbation theory with respect to B field
   DQ        =  0.001000  dq finite difference perturbation B field



--------------------------------------------------------------------------------------------------------


 Static calculation
 charge density and potential will be updated during run
 non-spin polarized calculation
 Conjugate gradient for all bands (Freysoldt, et al. PRB 79, 241103 (2009))
 preconditioned conjugated gradient                                        
 perform sub-space diagonalisation
    before iterative eigenvector-optimisation
 modified Broyden-mixing scheme, WC =      100.0
 initial mixing is a Kerker type mixing with AMIX =  0.4000 and BMIX =      1.0000
 Hartree-type preconditioning will be used
 using additional bands            9
 reciprocal scheme for non local part
 use partial core corrections
 no Harris-corrections to forces 
 use gradient corrections 
 use of overlap-Matrix (Vanderbilt PP)
 Gauss-broadening in eV      SIGMA  =   0.01


--------------------------------------------------------------------------------------------------------


  energy-cutoff  :     1600.00
  volume of cell :    42875.00
      direct lattice vectors                 reciprocal lattice vectors
    35.000000000  0.000000000  0.000000000     0.028571429  0.000000000  0.000000000
     0.000000000 35.000000000  0.000000000     0.000000000  0.028571429  0.000000000
     0.000000000  0.000000000 35.000000000     0.000000000  0.000000000  0.028571429

  length of vectors
    35.000000000 35.000000000 35.000000000     0.028571429  0.028571429  0.028571429


 
 k-points in units of 2pi/SCALE and weight: automatic mesh                          
   0.00000000  0.00000000  0.00000000       1.000
 
 k-points in reciprocal lattice and weights: automatic mesh                          
   0.00000000  0.00000000  0.00000000       1.000
 
 position of ions in fractional coordinates (direct lattice) 
   0.02187273  0.02480698  0.02345688
   0.03536150  0.98734748  0.02268251
   0.01063535  0.95747038  0.01363625
   0.97243048  0.96505795  0.00533938
   0.95894100  0.00252587  0.00609363
   0.98365981  0.03240069  0.01516608
   0.04107076  0.04800019  0.03043151
   0.06502168  0.98147034  0.02907747
   0.02109108  0.92839771  0.01305875
   0.95324401  0.94186969  0.99834933
   0.92929473  0.00840863  0.99967236
   0.97320859  0.06147745  0.01574508
 
 position of ions in cartesian coordinates  (Angst):
   0.76554546  0.86824433  0.82099095
   1.23765260 34.55716192  0.79388795
   0.37223723 33.51146334  0.47726862
  34.03506682 33.77702838  0.18687833
  33.56293491  0.08840558  0.21327714
  34.42809351  1.13402416  0.53081280
   1.43747647  1.68000664  1.06510281
   2.27575877 34.35146192  1.01771141
   0.73818789 32.49391988  0.45705609
  33.36354052 32.96543921 34.94222638
  32.52531568  0.29430216 34.98853254
  34.06230065  2.15171058  0.55107764
 


--------------------------------------------------------------------------------------------------------


 use parallel FFT for wavefunctions z direction half grid
 k-point  1 :   0.0000 0.0000 0.0000  plane waves: 3115599

 maximum and minimum number of plane-waves per node :    389462   389421

 maximum number of plane-waves:   3115599
 maximum index in each direction: 
   IXMAX=  114   IYMAX=  114   IZMAX=  114
   IXMIN= -114   IYMIN= -114   IZMIN=    0

 NGX is ok and might be reduce to 458
 NGY is ok and might be reduce to 458
 NGZ is ok and might be reduce to 458

 parallel 3D FFT for wavefunctions:
    minimum data exchange during FFTs selected (reduces bandwidth)
 parallel 3D FFT for charge:
    minimum data exchange during FFTs selected (reduces bandwidth)


 FFT grid for exact exchange (Hartree Fock) 
  NGX =350; NGY =350; NGZ =350

 use parallel FFT for wavefunctions z direction half grid
 
 Radii for the augmentation spheres in the non-local exchange
 for species   1 augmentation radius   0.874 (default was   0.699)
       energy cutoff for augmentation   6400.0
 for species   2 augmentation radius   0.650 (default was   0.520)
       energy cutoff for augmentation   6400.0

 real space projection operators:
  total allocation   :       1660.85 KBytes
  max/ min on nodes  :        225.42        182.60

 Maximum index for augmentation-charges in exchange          404
  SETUP_FOCK is finished

 total amount of memory used by VASP on root node  3766542. kBytes
========================================================================

   base      :      30000. kBytes
   nonl-proj :     124615. kBytes
   fftplans  :    1395487. kBytes
   grid      :    2104012. kBytes
   one-center:          3. kBytes
   HF        :          9. kBytes
   nonlr-proj:        261. kBytes
   wavefun   :     112155. kBytes
 
     INWAV:  cpu time    0.0000: real time    0.0001
 Broyden mixing: mesh for mixing (old mesh)
   NGX =229   NGY =229   NGZ =229
  (NGX  =960   NGY  =960   NGZ  =960)
  gives a total of ****** points

 initial charge density was supplied:
 charge density of overlapping atoms calculated
 number of electron      30.0000000 magnetization 
 keeping initial charge density in first step


--------------------------------------------------------------------------------------------------------


 Maximum index for augmentation-charges         1142 (set IRDMAX)


--------------------------------------------------------------------------------------------------------


 FEWALD executed in parallel
    FEWALD:  cpu time    0.0022: real time    0.0022


----------------------------------------- Iteration    1(   1)  ---------------------------------------


    POTLOK:  cpu time   14.8501: real time   14.8876
    SETDIJ:  cpu time    0.1730: real time    0.1734
    TRIAL :  cpu time    9.9721: real time   10.0033
    CORREC:  cpu time    0.0002: real time    0.0002
    --------------------------------------------
      LOOP:  cpu time   25.0913: real time   25.1626

 eigenvalue-minimisations  :    48
 total energy-change (2. order) : 0.2531941E+03  (-0.4788587E+03)
 number of electron      30.0000000 magnetization 
 augmentation part       30.0000000 magnetization 

 Free energy of the ion-electron system (eV)
  ---------------------------------------------------
  alpha Z        PSCENC =         0.09644577
  Ewald energy   TEWEN  =      2286.53307223
  -Hartree energ DENC   =     -2895.89480731
  -exchange      EXHF   =         0.00000000
  -V(xc)+E(xc)   XCENC  =         0.00000000
  PAW double counting   =       737.20683752     -737.75327021
  entropy T*S    EENTRO =        -0.00124428
  eigenvalues    EBANDS =        -5.42155476
  atomic energy  EATOM  =       868.42867012
  ---------------------------------------------------
  free energy    TOTEN  =       253.19414908 eV

  energy without entropy =      253.19539335  energy(sigma->0) =      253.19477121
  exchange ACFDT corr.  =         0.00000000  see jH, gK, PRB 81, 115126


--------------------------------------------------------------------------------------------------------




----------------------------------------- Iteration    1(   2)  ---------------------------------------


    TRIAL :  cpu time   12.1243: real time   12.1631
    CORREC:  cpu time    0.0002: real time    0.0002
    --------------------------------------------
      LOOP:  cpu time   12.1301: real time   12.1712

 eigenvalue-minimisations  :    64
 total energy-change (2. order) :-0.5301937E+02  (-0.5214986E+02)
 number of electron      30.0000000 magnetization 
 augmentation part       30.0000000 magnetization 

 Free energy of the ion-electron system (eV)
  ---------------------------------------------------
  alpha Z        PSCENC =         0.09644577
  Ewald energy   TEWEN  =      2286.53307223
  -Hartree energ DENC   =     -2895.89480731
  -exchange      EXHF   =         0.00000000
  -V(xc)+E(xc)   XCENC  =         0.00000000
  PAW double counting   =       737.20683752     -737.75327021
  entropy T*S    EENTRO =        -0.00673440
  eigenvalues    EBANDS =       -58.43543071
  atomic energy  EATOM  =       868.42867012
  ---------------------------------------------------
  free energy    TOTEN  =       200.17478300 eV

  energy without entropy =      200.18151741  energy(sigma->0) =      200.17815020
  exchange ACFDT corr.  =         0.00000000  see jH, gK, PRB 81, 115126


--------------------------------------------------------------------------------------------------------




----------------------------------------- Iteration    1(   3)  ---------------------------------------


    TRIAL :  cpu time   14.3905: real time   14.4362
    CORREC:  cpu time    0.0002: real time    0.0002
    --------------------------------------------
      LOOP:  cpu time   14.3972: real time   14.4455

 eigenvalue-minimisations  :    80
 total energy-change (2. order) :-0.2769491E+02  (-0.2713476E+02)
 number of electron      30.0000000 magnetization 
 augmentation part       30.0000000 magnetization 

 Free energy of the ion-electron system (eV)
  ---------------------------------------------------
  alpha Z        PSCENC =         0.09644577
  Ewald energy   TEWEN  =      2286.53307223
  -Hartree energ DENC   =     -2895.89480731
  -exchange      EXHF   =         0.00000000
  -V(xc)+E(xc)   XCENC  =         0.00000000
  PAW double counting   =       737.20683752     -737.75327021
  entropy T*S    EENTRO =        -0.01318155
  eigenvalues    EBANDS =       -86.12389783
  atomic energy  EATOM  =       868.42867012
  ---------------------------------------------------
  free energy    TOTEN  =       172.47986874 eV

  energy without entropy =      172.49305029  energy(sigma->0) =      172.48645951
  exchange ACFDT corr.  =         0.00000000  see jH, gK, PRB 81, 115126


--------------------------------------------------------------------------------------------------------




----------------------------------------- Iteration    1(   4)  ---------------------------------------


    TRIAL :  cpu time   15.5015: real time   15.5500
    CORREC:  cpu time    0.0002: real time    0.0002
    --------------------------------------------
      LOOP:  cpu time   15.5091: real time   15.5600

 eigenvalue-minimisations  :    88
 total energy-change (2. order) :-0.7411096E+01  (-0.6500742E+01)
 number of electron      30.0000000 magnetization 
 augmentation part       30.0000000 magnetization 

 Free energy of the ion-electron system (eV)
  ---------------------------------------------------
  alpha Z        PSCENC =         0.09644577
  Ewald energy   TEWEN  =      2286.53307223
  -Hartree energ DENC   =     -2895.89480731
  -exchange      EXHF   =         0.00000000
  -V(xc)+E(xc)   XCENC  =         0.00000000
  PAW double counting   =       737.20683752     -737.75327021
  entropy T*S    EENTRO =        -0.00983835
  eigenvalues    EBANDS =       -93.53833741
  atomic energy  EATOM  =       868.42867012
  ---------------------------------------------------
  free energy    TOTEN  =       165.06877235 eV

  energy without entropy =      165.07861070  energy(sigma->0) =      165.07369153
  exchange ACFDT corr.  =         0.00000000  see jH, gK, PRB 81, 115126


--------------------------------------------------------------------------------------------------------




----------------------------------------- Iteration    1(   5)  ---------------------------------------


    TRIAL :  cpu time   14.4347: real time   14.4803
    CORREC:  cpu time    0.0002: real time    0.0002
    CHARGE:  cpu time    2.5635: real time    2.5730
    --------------------------------------------
      LOOP:  cpu time   17.0055: real time   17.0635

 eigenvalue-minimisations  :    80
 total energy-change (2. order) :-0.6707815E+01  (-0.6675935E+01)
 number of electron      30.0000000 magnetization 
 augmentation part        0.0150332 magnetization 

 Free energy of the ion-electron system (eV)
  ---------------------------------------------------
  alpha Z        PSCENC =         0.09644577
  Ewald energy   TEWEN  =      2286.53307223
  -Hartree energ DENC   =     -2895.89480731
  -exchange      EXHF   =         0.00000000
  -V(xc)+E(xc)   XCENC  =         0.00000000
  PAW double counting   =       737.20683752     -737.75327021
  entropy T*S    EENTRO =        -0.01790153
  eigenvalues    EBANDS =      -100.23808886
  atomic energy  EATOM  =       868.42867012
  ---------------------------------------------------
  free energy    TOTEN  =       158.36095773 eV

  energy without entropy =      158.37885925  energy(sigma->0) =      158.36990849
  exchange ACFDT corr.  =         0.00000000  see jH, gK, PRB 81, 115126


--------------------------------------------------------------------------------------------------------




----------------------------------------- Iteration    1(   6)  ---------------------------------------


    POTLOK:  cpu time   16.0250: real time   16.0639
    SETDIJ:  cpu time    0.1733: real time    0.1737
    TRIAL :  cpu time   50.3813: real time   50.5709
    CORREC:  cpu time   57.9692: real time   58.1775
    CHARGE:  cpu time    2.3223: real time    2.3310
    --------------------------------------------
      LOOP:  cpu time  126.9150: real time  127.3638

 eigenvalue-minimisations  :     0
 total energy-change (2. order) : 0.2093483E+03  (-0.1396229E+03)
 number of electron      30.0000000 magnetization 
 augmentation part        0.0242511 magnetization 

 Free energy of the ion-electron system (eV)
  ---------------------------------------------------
  alpha Z        PSCENC =         0.09644577
  Ewald energy   TEWEN  =      2286.53307223
  -Hartree energ DENC   =     -1199.43964916
  -exchange      EXHF   =       164.31508506
  -V(xc)+E(xc)   XCENC  =         0.00000000
  PAW double counting   =      2097.01093023    -2097.23360841
  entropy T*S    EENTRO =        -0.00630425
  eigenvalues    EBANDS =     -1751.98375292
  atomic energy  EATOM  =       868.42867012
  ---------------------------------------------------
  free energy    TOTEN  =       367.70929139 eV

  energy without entropy =      367.71559564  energy(sigma->0) =      367.71244351
  exchange ACFDT corr.  =        -0.89810593  see jH, gK, PRB 81, 115126


--------------------------------------------------------------------------------------------------------




----------------------------------------- Iteration    1(   7)  ---------------------------------------


    POTLOK:  cpu time   16.0344: real time   16.0734
    SETDIJ:  cpu time    0.1737: real time    0.1741
    TRIAL :  cpu time   43.9819: real time   44.1549
    CORREC:  cpu time   57.9676: real time   58.1757
    CHARGE:  cpu time    2.3339: real time    2.3427
    --------------------------------------------
      LOOP:  cpu time  120.5395: real time  120.9715

 eigenvalue-minimisations  :     0
 total energy-change (2. order) :-0.9792293E+02  (-0.5344778E+02)
 number of electron      30.0000000 magnetization 
 augmentation part        0.0298708 magnetization 

 Free energy of the ion-electron system (eV)
  ---------------------------------------------------
  alpha Z        PSCENC =         0.09644577
  Ewald energy   TEWEN  =      2286.53307223
  -Hartree energ DENC   =     -1384.41324814
  -exchange      EXHF   =       182.21511804
  -V(xc)+E(xc)   XCENC  =         0.00000000
  PAW double counting   =      2169.74729960    -2170.04078539
  entropy T*S    EENTRO =        -0.00000000
  eigenvalues    EBANDS =     -1682.77390955
  atomic energy  EATOM  =       868.42867012
  ---------------------------------------------------
  free energy    TOTEN  =       269.78635843 eV

  energy without entropy =      269.78635843  energy(sigma->0) =      269.78635843
  exchange ACFDT corr.  =        -0.29897146  see jH, gK, PRB 81, 115126


--------------------------------------------------------------------------------------------------------




----------------------------------------- Iteration    1(   8)  ---------------------------------------


    POTLOK:  cpu time   16.0307: real time   16.0697
    SETDIJ:  cpu time    0.1750: real time    0.1754
    TRIAL :  cpu time   43.7370: real time   43.9108
    CORREC:  cpu time   57.8841: real time   58.0921
    CHARGE:  cpu time    2.3278: real time    2.3366
    --------------------------------------------
      LOOP:  cpu time  120.1975: real time  120.6303

 eigenvalue-minimisations  :     0
 total energy-change (2. order) :-0.4073481E+02  (-0.3369328E+02)
 number of electron      30.0000000 magnetization 
 augmentation part        0.0362394 magnetization 

 Free energy of the ion-electron system (eV)
  ---------------------------------------------------
  alpha Z        PSCENC =         0.09644577
  Ewald energy   TEWEN  =      2286.53307223
  -Hartree energ DENC   =     -1496.94713063
  -exchange      EXHF   =       192.85788956
  -V(xc)+E(xc)   XCENC  =         0.00000000
  PAW double counting   =      2123.75829231    -2124.10108833
  entropy T*S    EENTRO =        -0.00000000
  eigenvalues    EBANDS =     -1621.57460671
  atomic energy  EATOM  =       868.42867012
  ---------------------------------------------------
  free energy    TOTEN  =       229.05154431 eV

  energy without entropy =      229.05154431  energy(sigma->0) =      229.05154431
  exchange ACFDT corr.  =        -0.00000000  see jH, gK, PRB 81, 115126


--------------------------------------------------------------------------------------------------------




----------------------------------------- Iteration    1(   9)  ---------------------------------------


    POTLOK:  cpu time   16.0292: real time   16.0682
    SETDIJ:  cpu time    0.1729: real time    0.1733
    TRIAL :  cpu time   43.4553: real time   43.6257
    CORREC:  cpu time   57.8439: real time   58.0521
    CHARGE:  cpu time    2.3172: real time    2.3259
    --------------------------------------------
      LOOP:  cpu time  119.8645: real time  120.2941

 eigenvalue-minimisations  :     0
 total energy-change (2. order) :-0.3095809E+02  (-0.4547645E+02)
 number of electron      30.0000000 magnetization 
 augmentation part        0.0249562 magnetization 

 Free energy of the ion-electron system (eV)
  ---------------------------------------------------
  alpha Z        PSCENC =         0.09644577
  Ewald energy   TEWEN  =      2286.53307223
  -Hartree energ DENC   =     -1624.37782995
  -exchange      EXHF   =       200.84522014
  -V(xc)+E(xc)   XCENC  =         0.00000000
  PAW double counting   =      1973.78424772    -1974.17622966
  entropy T*S    EENTRO =        -0.00000000
  eigenvalues    EBANDS =     -1533.04014703
  atomic energy  EATOM  =       868.42867012
  ---------------------------------------------------
  free energy    TOTEN  =       198.09344933 eV

  energy without entropy =      198.09344933  energy(sigma->0) =      198.09344933
  exchange ACFDT corr.  =         0.00000000  see jH, gK, PRB 81, 115126


--------------------------------------------------------------------------------------------------------




----------------------------------------- Iteration    1(  10)  ---------------------------------------


    POTLOK:  cpu time   16.0069: real time   16.0459
    SETDIJ:  cpu time    0.1790: real time    0.1794
    TRIAL :  cpu time   43.6588: real time   43.8304
    CORREC:  cpu time   57.8003: real time   58.0090
    CHARGE:  cpu time    2.3133: real time    2.3220
    --------------------------------------------
      LOOP:  cpu time  120.0072: real time  120.4386

 eigenvalue-minimisations  :     0
 total energy-change (2. order) :-0.4415352E+02  (-0.5014540E+02)
 number of electron      30.0000000 magnetization 
 augmentation part        0.0083141 magnetization 

 Free energy of the ion-electron system (eV)
  ---------------------------------------------------
  alpha Z        PSCENC =         0.09644577
  Ewald energy   TEWEN  =      2286.53307223
  -Hartree energ DENC   =     -1873.47057895
  -exchange      EXHF   =       210.76061689
  -V(xc)+E(xc)   XCENC  =         0.00000000
  PAW double counting   =      1687.84023031    -1688.29097464
  entropy T*S    EENTRO =        -0.00000000
  eigenvalues    EBANDS =     -1337.95755618
  atomic energy  EATOM  =       868.42867012
  ---------------------------------------------------
  free energy    TOTEN  =       153.93992555 eV

  energy without entropy =      153.93992555  energy(sigma->0) =      153.93992555
  exchange ACFDT corr.  =         0.00000000  see jH, gK, PRB 81, 115126


--------------------------------------------------------------------------------------------------------




----------------------------------------- Iteration    1(  11)  ---------------------------------------


    POTLOK:  cpu time   16.0365: real time   16.0756
    SETDIJ:  cpu time    0.1745: real time    0.1749
    TRIAL :  cpu time   43.5927: real time   43.7657
    CORREC:  cpu time   57.9051: real time   58.1132
    CHARGE:  cpu time    2.3319: real time    2.3405
    --------------------------------------------
      LOOP:  cpu time  120.0910: real time  120.5232

 eigenvalue-minimisations  :     0
 total energy-change (2. order) :-0.4110787E+02  (-0.4576369E+02)
 number of electron      30.0000000 magnetization 
 augmentation part       -0.0013219 magnetization 

 Free energy of the ion-electron system (eV)
  ---------------------------------------------------
  alpha Z        PSCENC =         0.09644577
  Ewald energy   TEWEN  =      2286.53307223
  -Hartree energ DENC   =     -2108.73901941
  -exchange      EXHF   =       220.39225750
  -V(xc)+E(xc)   XCENC  =         0.00000000
  PAW double counting   =      1510.28518855    -1510.76385356
  entropy T*S    EENTRO =        -0.00000000
  eigenvalues    EBANDS =     -1153.40070199
  atomic energy  EATOM  =       868.42867012
  ---------------------------------------------------
  free energy    TOTEN  =       112.83205920 eV

  energy without entropy =      112.83205920  energy(sigma->0) =      112.83205920
  exchange ACFDT corr.  =        -0.00000000  see jH, gK, PRB 81, 115126


--------------------------------------------------------------------------------------------------------




----------------------------------------- Iteration    1(  12)  ---------------------------------------


    POTLOK:  cpu time   16.0394: real time   16.0784
    SETDIJ:  cpu time    0.1767: real time    0.1772
    TRIAL :  cpu time   43.5788: real time   43.7504
    CORREC:  cpu time   57.8425: real time   58.0499
    CHARGE:  cpu time    2.3221: real time    2.3309
    --------------------------------------------
      LOOP:  cpu time  120.0058: real time  120.4357

 eigenvalue-minimisations  :     0
 total energy-change (2. order) :-0.3966495E+02  (-0.3657953E+02)
 number of electron      30.0000000 magnetization 
 augmentation part        0.0035421 magnetization 

 Free energy of the ion-electron system (eV)
  ---------------------------------------------------
  alpha Z        PSCENC =         0.09644577
  Ewald energy   TEWEN  =      2286.53307223
  -Hartree energ DENC   =     -2262.72002747
  -exchange      EXHF   =       226.52976984
  -V(xc)+E(xc)   XCENC  =         0.00000000
  PAW double counting   =      1445.35038977    -1445.81570090
  entropy T*S    EENTRO =        -0.00000000
  eigenvalues    EBANDS =     -1045.23550523
  atomic energy  EATOM  =       868.42867012
  ---------------------------------------------------
  free energy    TOTEN  =        73.16711413 eV

  energy without entropy =       73.16711413  energy(sigma->0) =       73.16711413
  exchange ACFDT corr.  =         0.00000000  see jH, gK, PRB 81, 115126


--------------------------------------------------------------------------------------------------------




----------------------------------------- Iteration    1(  13)  ---------------------------------------


    POTLOK:  cpu time   16.0202: real time   16.0591
    SETDIJ:  cpu time    0.1798: real time    0.1802
    TRIAL :  cpu time   43.6191: real time   43.7909
    CORREC:  cpu time   57.7950: real time   58.0018
    CHARGE:  cpu time    2.3280: real time    2.3368
    --------------------------------------------
      LOOP:  cpu time  119.9974: real time  120.4271

 eigenvalue-minimisations  :     0
 total energy-change (2. order) :-0.3859942E+02  (-0.3551884E+02)
 number of electron      30.0000000 magnetization 
 augmentation part        0.0412954 magnetization 

 Free energy of the ion-electron system (eV)
  ---------------------------------------------------
  alpha Z        PSCENC =         0.09644577
  Ewald energy   TEWEN  =      2286.53307223
  -Hartree energ DENC   =     -2365.73274760
  -exchange      EXHF   =       229.25617645
  -V(xc)+E(xc)   XCENC  =         0.00000000
  PAW double counting   =      1458.48917202    -1458.90156066
  entropy T*S    EENTRO =        -0.00000000
  eigenvalues    EBANDS =      -983.60153272
  atomic energy  EATOM  =       868.42867012
  ---------------------------------------------------
  free energy    TOTEN  =        34.56769561 eV

  energy without entropy =       34.56769561  energy(sigma->0) =       34.56769561
  exchange ACFDT corr.  =         0.00000000  see jH, gK, PRB 81, 115126


--------------------------------------------------------------------------------------------------------




----------------------------------------- Iteration    1(  14)  ---------------------------------------


    POTLOK:  cpu time   16.0330: real time   16.0719
    SETDIJ:  cpu time    0.1739: real time    0.1743
    TRIAL :  cpu time   43.7021: real time   43.8753
    CORREC:  cpu time   58.5307: real time   58.7399
    CHARGE:  cpu time    2.3352: real time    2.3440
    --------------------------------------------
      LOOP:  cpu time  120.8212: real time  121.2544

 eigenvalue-minimisations  :     0
 total energy-change (2. order) :-0.3664076E+02  (-0.2469183E+02)
 number of electron      30.0000000 magnetization 
 augmentation part        0.1096994 magnetization 

 Free energy of the ion-electron system (eV)
  ---------------------------------------------------
  alpha Z        PSCENC =         0.09644577
  Ewald energy   TEWEN  =      2286.53307223
  -Hartree energ DENC   =     -2502.79870596
  -exchange      EXHF   =       237.79905727
  -V(xc)+E(xc)   XCENC  =         0.00000000
  PAW double counting   =      1603.21338854    -1603.58195441
  entropy T*S    EENTRO =        -0.00000000
  eigenvalues    EBANDS =      -891.76303696
  atomic energy  EATOM  =       868.42867012
  ---------------------------------------------------
  free energy    TOTEN  =        -2.07306340 eV

  energy without entropy =       -2.07306340  energy(sigma->0) =       -2.07306340
  exchange ACFDT corr.  =         0.00000000  see jH, gK, PRB 81, 115126


--------------------------------------------------------------------------------------------------------




----------------------------------------- Iteration    1(  15)  ---------------------------------------


    POTLOK:  cpu time   16.2404: real time   16.2799
    SETDIJ:  cpu time    0.1787: real time    0.1792
    TRIAL :  cpu time   44.5078: real time   44.6830
    CORREC:  cpu time   58.7535: real time   58.9634
    CHARGE:  cpu time    2.3323: real time    2.3412
    --------------------------------------------
      LOOP:  cpu time  122.0539: real time  122.4905

 eigenvalue-minimisations  :     0
 total energy-change (2. order) :-0.2758797E+02  ( 0.8109738E+02)
 number of electron      30.0000000 magnetization 
 augmentation part        0.1872056 magnetization 

 Free energy of the ion-electron system (eV)
  ---------------------------------------------------
  alpha Z        PSCENC =         0.09644577
  Ewald energy   TEWEN  =      2286.53307223
  -Hartree energ DENC   =     -2632.61053804
  -exchange      EXHF   =       249.48544250
  -V(xc)+E(xc)   XCENC  =         0.00000000
  PAW double counting   =      1844.69297587    -1845.05020405
  entropy T*S    EENTRO =        -0.00000000
  eigenvalues    EBANDS =      -801.23689849
  atomic energy  EATOM  =       868.42867012
  ---------------------------------------------------
  free energy    TOTEN  =       -29.66103410 eV

  energy without entropy =      -29.66103410  energy(sigma->0) =      -29.66103410
  exchange ACFDT corr.  =         0.00000000  see jH, gK, PRB 81, 115126


--------------------------------------------------------------------------------------------------------




----------------------------------------- Iteration    1(  16)  ---------------------------------------


    POTLOK:  cpu time   16.2981: real time   16.3377
    SETDIJ:  cpu time    0.1804: real time    0.1809
    TRIAL :  cpu time   44.6969: real time   44.8720
    CORREC:  cpu time   58.6476: real time   58.8580
    CHARGE:  cpu time    2.3176: real time    2.3262
    --------------------------------------------
      LOOP:  cpu time  122.1820: real time  122.6192

 eigenvalue-minimisations  :     0
 total energy-change (2. order) :-0.3102838E+02  (-0.1582250E+02)
 number of electron      30.0000000 magnetization 
 augmentation part        0.2740789 magnetization 

 Free energy of the ion-electron system (eV)
  ---------------------------------------------------
  alpha Z        PSCENC =         0.09644577
  Ewald energy   TEWEN  =      2286.53307223
  -Hartree energ DENC   =     -2795.06893848
  -exchange      EXHF   =       266.88810463
  -V(xc)+E(xc)   XCENC  =         0.00000000
  PAW double counting   =      2084.83462179    -2085.21837237
  entropy T*S    EENTRO =        -0.00000000
  eigenvalues    EBANDS =      -687.18301393
  atomic energy  EATOM  =       868.42867012
  ---------------------------------------------------
  free energy    TOTEN  =       -60.68941024 eV

  energy without entropy =      -60.68941024  energy(sigma->0) =      -60.68941024
  exchange ACFDT corr.  =         0.00000000  see jH, gK, PRB 81, 115126


--------------------------------------------------------------------------------------------------------




----------------------------------------- Iteration    1(  17)  ---------------------------------------


    POTLOK:  cpu time   16.2997: real time   16.3392
    SETDIJ:  cpu time    0.1794: real time    0.1798
    TRIAL :  cpu time   44.6255: real time   44.8012
    CORREC:  cpu time   58.8839: real time   59.0943
    CHARGE:  cpu time    2.3292: real time    2.3380
    --------------------------------------------
      LOOP:  cpu time  122.3589: real time  122.7968

 eigenvalue-minimisations  :     0
 total energy-change (2. order) :-0.1969643E+02  (-0.2553702E+02)
 number of electron      30.0000000 magnetization 
 augmentation part        0.6264820 magnetization 

 Free energy of the ion-electron system (eV)
  ---------------------------------------------------
  alpha Z        PSCENC =         0.09644577
  Ewald energy   TEWEN  =      2286.53307223
  -Hartree energ DENC   =     -2869.88726479
  -exchange      EXHF   =       277.99269124
  -V(xc)+E(xc)   XCENC  =         0.00000000
  PAW double counting   =      2298.56530503    -2298.96567081
  entropy T*S    EENTRO =        -0.00000000
  eigenvalues    EBANDS =      -643.14908709
  atomic energy  EATOM  =       868.42867012
  ---------------------------------------------------
  free energy    TOTEN  =       -80.38583831 eV

  energy without entropy =      -80.38583831  energy(sigma->0) =      -80.38583831
  exchange ACFDT corr.  =         0.00000000  see jH, gK, PRB 81, 115126


--------------------------------------------------------------------------------------------------------




----------------------------------------- Iteration    1(  18)  ---------------------------------------


    POTLOK:  cpu time   16.2799: real time   16.3195
    SETDIJ:  cpu time    0.1810: real time    0.1814
    TRIAL :  cpu time   44.5458: real time   44.7193
    CORREC:  cpu time   58.7376: real time   58.9478
    CHARGE:  cpu time    2.3269: real time    2.3356
    --------------------------------------------
      LOOP:  cpu time  122.1203: real time  122.5558

 eigenvalue-minimisations  :     0
 total energy-change (2. order) :-0.3414670E+02  (-0.1247793E+02)
 number of electron      30.0000000 magnetization 
 augmentation part        0.5919789 magnetization 

 Free energy of the ion-electron system (eV)
  ---------------------------------------------------
  alpha Z        PSCENC =         0.09644577
  Ewald energy   TEWEN  =      2286.53307223
  -Hartree energ DENC   =     -3104.26020765
  -exchange      EXHF   =       315.98939036
  -V(xc)+E(xc)   XCENC  =         0.00000000
  PAW double counting   =      3230.28210258    -3230.77507570
  entropy T*S    EENTRO =        -0.00000000
  eigenvalues    EBANDS =      -480.82693301
  atomic energy  EATOM  =       868.42867012
  ---------------------------------------------------
  free energy    TOTEN  =      -114.53253531 eV

  energy without entropy =     -114.53253531  energy(sigma->0) =     -114.53253531
  exchange ACFDT corr.  =         0.00000000  see jH, gK, PRB 81, 115126


--------------------------------------------------------------------------------------------------------




----------------------------------------- Iteration    1(  19)  ---------------------------------------


    POTLOK:  cpu time   16.2845: real time   16.3241
    SETDIJ:  cpu time    0.1778: real time    0.1782
    TRIAL :  cpu time   44.4976: real time   44.6728
    CORREC:  cpu time   58.7563: real time   58.9667
    CHARGE:  cpu time    2.3265: real time    2.3353
    --------------------------------------------
      LOOP:  cpu time  122.0880: real time  122.5250

 eigenvalue-minimisations  :     0
 total energy-change (2. order) :-0.1199336E+02  (-0.1581636E+01)
 number of electron      30.0000000 magnetization 
 augmentation part        0.6084126 magnetization 

 Free energy of the ion-electron system (eV)
  ---------------------------------------------------
  alpha Z        PSCENC =         0.09644577
  Ewald energy   TEWEN  =      2286.53307223
  -Hartree energ DENC   =     -3017.07644605
  -exchange      EXHF   =       306.37823647
  -V(xc)+E(xc)   XCENC  =         0.00000000
  PAW double counting   =      3211.28467557    -3211.72536914
  entropy T*S    EENTRO =        -0.00000000
  eigenvalues    EBANDS =      -570.44518343
  atomic energy  EATOM  =       868.42867012
  ---------------------------------------------------
  free energy    TOTEN  =      -126.52589847 eV

  energy without entropy =     -126.52589847  energy(sigma->0) =     -126.52589847
  exchange ACFDT corr.  =         0.00000000  see jH, gK, PRB 81, 115126


--------------------------------------------------------------------------------------------------------




----------------------------------------- Iteration    1(  20)  ---------------------------------------


    POTLOK:  cpu time   16.3008: real time   16.3404
    SETDIJ:  cpu time    0.1794: real time    0.1798
    TRIAL :  cpu time   44.6082: real time   44.7848
    CORREC:  cpu time   58.7293: real time   58.9392
    CHARGE:  cpu time    2.3205: real time    2.3293
    --------------------------------------------
      LOOP:  cpu time  122.1823: real time  122.6201

 eigenvalue-minimisations  :     0
 total energy-change (2. order) :-0.1595200E+01  (-0.6442030E+00)
 number of electron      30.0000000 magnetization 
 augmentation part        0.6395940 magnetization 

 Free energy of the ion-electron system (eV)
  ---------------------------------------------------
  alpha Z        PSCENC =         0.09644577
  Ewald energy   TEWEN  =      2286.53307223
  -Hartree energ DENC   =     -3032.87831504
  -exchange      EXHF   =       308.20069190
  -V(xc)+E(xc)   XCENC  =         0.00000000
  PAW double counting   =      3313.38009176    -3313.83797429
  entropy T*S    EENTRO =        -0.00000000
  eigenvalues    EBANDS =      -558.04378076
  atomic energy  EATOM  =       868.42867012
  ---------------------------------------------------
  free energy    TOTEN  =      -128.12109830 eV

  energy without entropy =     -128.12109830  energy(sigma->0) =     -128.12109830
  exchange ACFDT corr.  =         0.00000000  see jH, gK, PRB 81, 115126


--------------------------------------------------------------------------------------------------------




----------------------------------------- Iteration    1(  21)  ---------------------------------------


    POTLOK:  cpu time   16.2913: real time   16.3309
    SETDIJ:  cpu time    0.1783: real time    0.1788
    TRIAL :  cpu time   44.6354: real time   44.8103
    CORREC:  cpu time   58.8406: real time   59.0521
    CHARGE:  cpu time    2.3287: real time    2.3373
    --------------------------------------------
      LOOP:  cpu time  122.3155: real time  122.7536

 eigenvalue-minimisations  :     0
 total energy-change (2. order) :-0.6482217E+00  (-0.2452786E+00)
 number of electron      30.0000000 magnetization 
 augmentation part        0.6551227 magnetization 

 Free energy of the ion-electron system (eV)
  ---------------------------------------------------
  alpha Z        PSCENC =         0.09644577
  Ewald energy   TEWEN  =      2286.53307223
  -Hartree energ DENC   =     -3047.69346321
  -exchange      EXHF   =       310.05935256
  -V(xc)+E(xc)   XCENC  =         0.00000000
  PAW double counting   =      3420.30200392    -3420.78217678
  entropy T*S    EENTRO =        -0.00000000
  eigenvalues    EBANDS =      -545.71322457
  atomic energy  EATOM  =       868.42867012
  ---------------------------------------------------
  free energy    TOTEN  =      -128.76931996 eV

  energy without entropy =     -128.76931996  energy(sigma->0) =     -128.76931996
  exchange ACFDT corr.  =         0.00000000  see jH, gK, PRB 81, 115126


--------------------------------------------------------------------------------------------------------




----------------------------------------- Iteration    1(  22)  ---------------------------------------


    POTLOK:  cpu time   16.2960: real time   16.3356
    SETDIJ:  cpu time    0.1787: real time    0.1791
    TRIAL :  cpu time   44.5853: real time   44.7609
    CORREC:  cpu time   58.5349: real time   58.7439
    CHARGE:  cpu time    2.3279: real time    2.3366
    --------------------------------------------
      LOOP:  cpu time  121.9674: real time  122.4034

 eigenvalue-minimisations  :     0
 total energy-change (2. order) :-0.2465729E+00  (-0.6429706E-01)
 number of electron      30.0000000 magnetization 
 augmentation part        0.6594847 magnetization 

 Free energy of the ion-electron system (eV)
  ---------------------------------------------------
  alpha Z        PSCENC =         0.09644577
  Ewald energy   TEWEN  =      2286.53307223
  -Hartree energ DENC   =     -3041.84182138
  -exchange      EXHF   =       309.57173773
  -V(xc)+E(xc)   XCENC  =         0.00000000
  PAW double counting   =      3477.07484044    -3477.56372839
  entropy T*S    EENTRO =        -0.00000000
  eigenvalues    EBANDS =      -551.31510939
  atomic energy  EATOM  =       868.42867012
  ---------------------------------------------------
  free energy    TOTEN  =      -129.01589288 eV

  energy without entropy =     -129.01589288  energy(sigma->0) =     -129.01589288
  exchange ACFDT corr.  =         0.00000000  see jH, gK, PRB 81, 115126


--------------------------------------------------------------------------------------------------------




----------------------------------------- Iteration    1(  23)  ---------------------------------------


    POTLOK:  cpu time   16.2935: real time   16.3330
    SETDIJ:  cpu time    0.1797: real time    0.1801
    TRIAL :  cpu time   44.8348: real time   45.0092
    CORREC:  cpu time   58.6570: real time   58.8669
    CHARGE:  cpu time    2.3243: real time    2.3332
    --------------------------------------------
      LOOP:  cpu time  122.3293: real time  122.7652

 eigenvalue-minimisations  :     0
 total energy-change (2. order) :-0.6458275E-01  (-0.1608545E-01)
 number of electron      30.0000000 magnetization 
 augmentation part        0.6612303 magnetization 

 Free energy of the ion-electron system (eV)
  ---------------------------------------------------
  alpha Z        PSCENC =         0.09644577
  Ewald energy   TEWEN  =      2286.53307223
  -Hartree energ DENC   =     -3040.77805699
  -exchange      EXHF   =       309.52351087
  -V(xc)+E(xc)   XCENC  =         0.00000000
  PAW double counting   =      3505.58308506    -3506.07638254
  entropy T*S    EENTRO =        -0.00000000
  eigenvalues    EBANDS =      -552.39082014
  atomic energy  EATOM  =       868.42867012
  ---------------------------------------------------
  free energy    TOTEN  =      -129.08047563 eV

  energy without entropy =     -129.08047563  energy(sigma->0) =     -129.08047563
  exchange ACFDT corr.  =         0.00000000  see jH, gK, PRB 81, 115126


--------------------------------------------------------------------------------------------------------




----------------------------------------- Iteration    1(  24)  ---------------------------------------


    POTLOK:  cpu time   16.2886: real time   16.3282
    SETDIJ:  cpu time    0.1785: real time    0.1789
    TRIAL :  cpu time   44.8482: real time   45.0227
    CORREC:  cpu time   58.7628: real time   58.9732
    CHARGE:  cpu time    2.3235: real time    2.3320
    --------------------------------------------
      LOOP:  cpu time  122.4417: real time  122.8771

 eigenvalue-minimisations  :     0
 total energy-change (2. order) :-0.1612543E-01  (-0.4756492E-02)
 number of electron      30.0000000 magnetization 
 augmentation part        0.6614290 magnetization 

 Free energy of the ion-electron system (eV)
  ---------------------------------------------------
  alpha Z        PSCENC =         0.09644577
  Ewald energy   TEWEN  =      2286.53307223
  -Hartree energ DENC   =     -3042.02886587
  -exchange      EXHF   =       309.64925894
  -V(xc)+E(xc)   XCENC  =         0.00000000
  PAW double counting   =      3520.58558707    -3521.08086283
  entropy T*S    EENTRO =        -0.00000000
  eigenvalues    EBANDS =      -551.27990649
  atomic energy  EATOM  =       868.42867012
  ---------------------------------------------------
  free energy    TOTEN  =      -129.09660106 eV

  energy without entropy =     -129.09660106  energy(sigma->0) =     -129.09660106
  exchange ACFDT corr.  =        -0.00000000  see jH, gK, PRB 81, 115126


--------------------------------------------------------------------------------------------------------




----------------------------------------- Iteration    1(  25)  ---------------------------------------


    POTLOK:  cpu time   16.2782: real time   16.3178
    SETDIJ:  cpu time    0.1795: real time    0.1799
    TRIAL :  cpu time   44.9162: real time   45.0926
    CORREC:  cpu time   58.7878: real time   58.9981
    CHARGE:  cpu time    2.3205: real time    2.3294
    --------------------------------------------
      LOOP:  cpu time  122.5261: real time  122.9646

 eigenvalue-minimisations  :     0
 total energy-change (2. order) :-0.4761797E-02  (-0.1376465E-02)
 number of electron      30.0000000 magnetization 
 augmentation part        0.6612806 magnetization 

 Free energy of the ion-electron system (eV)
  ---------------------------------------------------
  alpha Z        PSCENC =         0.09644577
  Ewald energy   TEWEN  =      2286.53307223
  -Hartree energ DENC   =     -3041.67311256
  -exchange      EXHF   =       309.58140633
  -V(xc)+E(xc)   XCENC  =         0.00000000
  PAW double counting   =      3526.20974172    -3526.70509469
  entropy T*S    EENTRO =        -0.00000000
  eigenvalues    EBANDS =      -551.57249178
  atomic energy  EATOM  =       868.42867012
  ---------------------------------------------------
  free energy    TOTEN  =      -129.10136286 eV

  energy without entropy =     -129.10136286  energy(sigma->0) =     -129.10136286
  exchange ACFDT corr.  =         0.00000000  see jH, gK, PRB 81, 115126


--------------------------------------------------------------------------------------------------------




----------------------------------------- Iteration    1(  26)  ---------------------------------------


    POTLOK:  cpu time   16.2698: real time   16.3093
    SETDIJ:  cpu time    0.1795: real time    0.1800
    TRIAL :  cpu time   44.5760: real time   44.7520
    CORREC:  cpu time   58.1938: real time   58.4040
    CHARGE:  cpu time    2.3310: real time    2.3398
    --------------------------------------------
      LOOP:  cpu time  121.5970: real time  122.0347

 eigenvalue-minimisations  :     0
 total energy-change (2. order) :-0.1378530E-02  (-0.4996589E-03)
 number of electron      30.0000000 magnetization 
 augmentation part        0.6612301 magnetization 

 Free energy of the ion-electron system (eV)
  ---------------------------------------------------
  alpha Z        PSCENC =         0.09644577
  Ewald energy   TEWEN  =      2286.53307223
  -Hartree energ DENC   =     -3041.45221246
  -exchange      EXHF   =       309.54809549
  -V(xc)+E(xc)   XCENC  =         0.00000000
  PAW double counting   =      3528.47151041    -3528.96673008
  entropy T*S    EENTRO =        -0.00000000
  eigenvalues    EBANDS =      -551.76159286
  atomic energy  EATOM  =       868.42867012
  ---------------------------------------------------
  free energy    TOTEN  =      -129.10274139 eV

  energy without entropy =     -129.10274139  energy(sigma->0) =     -129.10274139
  exchange ACFDT corr.  =         0.00000000  see jH, gK, PRB 81, 115126


--------------------------------------------------------------------------------------------------------




----------------------------------------- Iteration    1(  27)  ---------------------------------------


    POTLOK:  cpu time   15.9180: real time   15.9567
    SETDIJ:  cpu time    0.1790: real time    0.1794
    TRIAL :  cpu time   44.7448: real time   44.9201
    CORREC:  cpu time   57.8427: real time   58.0496
    CHARGE:  cpu time    2.3262: real time    2.3351
    --------------------------------------------
      LOOP:  cpu time  121.0528: real time  121.4858

 eigenvalue-minimisations  :     0
 total energy-change (2. order) :-0.4999284E-03  (-0.2027017E-03)
 number of electron      30.0000000 magnetization 
 augmentation part        0.6611487 magnetization 

 Free energy of the ion-electron system (eV)
  ---------------------------------------------------
  alpha Z        PSCENC =         0.09644577
  Ewald energy   TEWEN  =      2286.53307223
  -Hartree energ DENC   =     -3041.61992192
  -exchange      EXHF   =       309.56729945
  -V(xc)+E(xc)   XCENC  =         0.00000000
  PAW double counting   =      3529.66980266    -3530.16498275
  entropy T*S    EENTRO =        -0.00000000
  eigenvalues    EBANDS =      -551.61362688
  atomic energy  EATOM  =       868.42867012
  ---------------------------------------------------
  free energy    TOTEN  =      -129.10324132 eV

  energy without entropy =     -129.10324132  energy(sigma->0) =     -129.10324132
  exchange ACFDT corr.  =        -0.00000000  see jH, gK, PRB 81, 115126


--------------------------------------------------------------------------------------------------------




----------------------------------------- Iteration    1(  28)  ---------------------------------------


    POTLOK:  cpu time   15.6496: real time   15.6876
    SETDIJ:  cpu time    0.1808: real time    0.1812
    TRIAL :  cpu time   44.6093: real time   44.7850
    CORREC:  cpu time   57.6205: real time   57.8294
    CHARGE:  cpu time    2.3170: real time    2.3255
    --------------------------------------------
      LOOP:  cpu time  120.4172: real time  120.8511

 eigenvalue-minimisations  :     0
 total energy-change (2. order) :-0.2026710E-03  (-0.8749369E-04)
 number of electron      30.0000000 magnetization 
 augmentation part        0.6610455 magnetization 

 Free energy of the ion-electron system (eV)
  ---------------------------------------------------
  alpha Z        PSCENC =         0.09644577
  Ewald energy   TEWEN  =      2286.53307223
  -Hartree energ DENC   =     -3041.64711540
  -exchange      EXHF   =       309.57091366
  -V(xc)+E(xc)   XCENC  =         0.00000000
  PAW double counting   =      3529.69028036    -3530.18533890
  entropy T*S    EENTRO =        -0.00000000
  eigenvalues    EBANDS =      -551.59037183
  atomic energy  EATOM  =       868.42867012
  ---------------------------------------------------
  free energy    TOTEN  =      -129.10344399 eV

  energy without entropy =     -129.10344399  energy(sigma->0) =     -129.10344399
  exchange ACFDT corr.  =         0.00000000  see jH, gK, PRB 81, 115126


--------------------------------------------------------------------------------------------------------




----------------------------------------- Iteration    1(  29)  ---------------------------------------


    POTLOK:  cpu time   15.4170: real time   15.4545
    SETDIJ:  cpu time    0.1778: real time    0.1783
    TRIAL :  cpu time   44.6190: real time   44.7943
    CORREC:  cpu time   57.4880: real time   57.6949
    CHARGE:  cpu time    2.3223: real time    2.3311
    --------------------------------------------
      LOOP:  cpu time  120.0694: real time  120.5010

 eigenvalue-minimisations  :     0
 total energy-change (2. order) :-0.8754760E-04  (-0.4367475E-04)
 number of electron      30.0000000 magnetization 
 augmentation part        0.6609932 magnetization 

 Free energy of the ion-electron system (eV)
  ---------------------------------------------------
  alpha Z        PSCENC =         0.09644577
  Ewald energy   TEWEN  =      2286.53307223
  -Hartree energ DENC   =     -3041.59000651
  -exchange      EXHF   =       309.56430797
  -V(xc)+E(xc)   XCENC  =         0.00000000
  PAW double counting   =      3529.19311074    -3529.68804407
  entropy T*S    EENTRO =        -0.00000000
  eigenvalues    EBANDS =      -551.64108779
  atomic energy  EATOM  =       868.42867012
  ---------------------------------------------------
  free energy    TOTEN  =      -129.10353153 eV

  energy without entropy =     -129.10353153  energy(sigma->0) =     -129.10353153
  exchange ACFDT corr.  =        -0.00000000  see jH, gK, PRB 81, 115126


--------------------------------------------------------------------------------------------------------




----------------------------------------- Iteration    1(  30)  ---------------------------------------


    POTLOK:  cpu time   15.1957: real time   15.2326
    SETDIJ:  cpu time    0.1787: real time    0.1791
    TRIAL :  cpu time   44.6877: real time   44.8632
    CORREC:  cpu time   57.5170: real time   57.7241
    CHARGE:  cpu time    2.3198: real time    2.3288
    --------------------------------------------
      LOOP:  cpu time  119.9434: real time  120.3752

 eigenvalue-minimisations  :     0
 total energy-change (2. order) :-0.4366682E-04  (-0.1988809E-04)
 number of electron      30.0000000 magnetization 
 augmentation part        0.6609905 magnetization 

 Free energy of the ion-electron system (eV)
  ---------------------------------------------------
  alpha Z        PSCENC =         0.09644577
  Ewald energy   TEWEN  =      2286.53307223
  -Hartree energ DENC   =     -3041.58937892
  -exchange      EXHF   =       309.56427854
  -V(xc)+E(xc)   XCENC  =         0.00000000
  PAW double counting   =      3528.71806384    -3529.21294132
  entropy T*S    EENTRO =        -0.00000000
  eigenvalues    EBANDS =      -551.64178545
  atomic energy  EATOM  =       868.42867012
  ---------------------------------------------------
  free energy    TOTEN  =      -129.10357520 eV

  energy without entropy =     -129.10357520  energy(sigma->0) =     -129.10357520
  exchange ACFDT corr.  =         0.00000000  see jH, gK, PRB 81, 115126


--------------------------------------------------------------------------------------------------------




----------------------------------------- Iteration    1(  31)  ---------------------------------------


    POTLOK:  cpu time   15.0876: real time   15.1243
    SETDIJ:  cpu time    0.1778: real time    0.1782
    TRIAL :  cpu time   44.8337: real time   45.0089
    CORREC:  cpu time   57.3772: real time   57.5840
    CHARGE:  cpu time    2.3172: real time    2.3260
    --------------------------------------------
      LOOP:  cpu time  119.8383: real time  120.2691

 eigenvalue-minimisations  :     0
 total energy-change (2. order) :-0.1988453E-04  (-0.8028870E-05)
 number of electron      30.0000000 magnetization 
 augmentation part        0.6609957 magnetization 

 Free energy of the ion-electron system (eV)
  ---------------------------------------------------
  alpha Z        PSCENC =         0.09644577
  Ewald energy   TEWEN  =      2286.53307223
  -Hartree energ DENC   =     -3041.60874928
  -exchange      EXHF   =       309.56671226
  -V(xc)+E(xc)   XCENC  =         0.00000000
  PAW double counting   =      3528.43589977    -3528.93077007
  entropy T*S    EENTRO =        -0.00000000
  eigenvalues    EBANDS =      -551.62487588
  atomic energy  EATOM  =       868.42867012
  ---------------------------------------------------
  free energy    TOTEN  =      -129.10359509 eV

  energy without entropy =     -129.10359509  energy(sigma->0) =     -129.10359509
  exchange ACFDT corr.  =        -0.00000000  see jH, gK, PRB 81, 115126


--------------------------------------------------------------------------------------------------------




----------------------------------------- Iteration    1(  32)  ---------------------------------------


    POTLOK:  cpu time   14.9738: real time   15.0101
    SETDIJ:  cpu time    0.1776: real time    0.1780
    TRIAL :  cpu time   44.8415: real time   45.0173
    CORREC:  cpu time   57.4580: real time   57.6659
    CHARGE:  cpu time    2.3269: real time    2.3357
    --------------------------------------------
      LOOP:  cpu time  119.8219: real time  120.2543

 eigenvalue-minimisations  :     0
 total energy-change (2. order) :-0.8031093E-05  (-0.3235169E-05)
 number of electron      30.0000000 magnetization 
 augmentation part        0.6610026 magnetization 

 Free energy of the ion-electron system (eV)
  ---------------------------------------------------
  alpha Z        PSCENC =         0.09644577
  Ewald energy   TEWEN  =      2286.53307223
  -Hartree energ DENC   =     -3041.60592941
  -exchange      EXHF   =       309.56674198
  -V(xc)+E(xc)   XCENC  =         0.00000000
  PAW double counting   =      3528.32071505    -3528.81558995
  entropy T*S    EENTRO =        -0.00000000
  eigenvalues    EBANDS =      -551.62772891
  atomic energy  EATOM  =       868.42867012
  ---------------------------------------------------
  free energy    TOTEN  =      -129.10360312 eV

  energy without entropy =     -129.10360312  energy(sigma->0) =     -129.10360312
  exchange ACFDT corr.  =         0.00000000  see jH, gK, PRB 81, 115126


--------------------------------------------------------------------------------------------------------




----------------------------------------- Iteration    1(  33)  ---------------------------------------


    POTLOK:  cpu time   14.9421: real time   14.9784
    SETDIJ:  cpu time    0.1804: real time    0.1808
    TRIAL :  cpu time   44.7463: real time   44.9207
    CORREC:  cpu time   57.3244: real time   57.5316
    CHARGE:  cpu time    2.3233: real time    2.3324
    --------------------------------------------
      LOOP:  cpu time  119.5566: real time  119.9867

 eigenvalue-minimisations  :     0
 total energy-change (2. order) :-0.3235212E-05  (-0.1343311E-05)
 number of electron      30.0000000 magnetization 
 augmentation part        0.6610114 magnetization 

 Free energy of the ion-electron system (eV)
  ---------------------------------------------------
  alpha Z        PSCENC =         0.09644577
  Ewald energy   TEWEN  =      2286.53307223
  -Hartree energ DENC   =     -3041.60095246
  -exchange      EXHF   =       309.56638607
  -V(xc)+E(xc)   XCENC  =         0.00000000
  PAW double counting   =      3528.30957542    -3528.80446165
  entropy T*S    EENTRO =        -0.00000000
  eigenvalues    EBANDS =      -551.63234185
  atomic energy  EATOM  =       868.42867012
  ---------------------------------------------------
  free energy    TOTEN  =      -129.10360635 eV

  energy without entropy =     -129.10360635  energy(sigma->0) =     -129.10360635
  exchange ACFDT corr.  =         0.00000000  see jH, gK, PRB 81, 115126


--------------------------------------------------------------------------------------------------------




----------------------------------------- Iteration    1(  34)  ---------------------------------------


    POTLOK:  cpu time   14.9073: real time   14.9436
    SETDIJ:  cpu time    0.1779: real time    0.1783
    TRIAL :  cpu time   44.8874: real time   45.0629
    CORREC:  cpu time   57.2987: real time   57.5047
    CHARGE:  cpu time    2.3184: real time    2.3272
    --------------------------------------------
      LOOP:  cpu time  119.6330: real time  120.0627

 eigenvalue-minimisations  :     0
 total energy-change (2. order) :-0.1342899E-05  (-0.5448525E-06)
 number of electron      30.0000000 magnetization 
 augmentation part        0.6610167 magnetization 

 Free energy of the ion-electron system (eV)
  ---------------------------------------------------
  alpha Z        PSCENC =         0.09644577
  Ewald energy   TEWEN  =      2286.53307223
  -Hartree energ DENC   =     -3041.60313889
  -exchange      EXHF   =       309.56667557
  -V(xc)+E(xc)   XCENC  =         0.00000000
  PAW double counting   =      3528.34961507    -3528.84451477
  entropy T*S    EENTRO =        -0.00000000
  eigenvalues    EBANDS =      -551.63043279
  atomic energy  EATOM  =       868.42867012
  ---------------------------------------------------
  free energy    TOTEN  =      -129.10360770 eV

  energy without entropy =     -129.10360770  energy(sigma->0) =     -129.10360770
  exchange ACFDT corr.  =         0.00000000  see jH, gK, PRB 81, 115126


--------------------------------------------------------------------------------------------------------




----------------------------------------- Iteration    1(  35)  ---------------------------------------


    POTLOK:  cpu time   14.8955: real time   14.9317
    SETDIJ:  cpu time    0.1805: real time    0.1809
    TRIAL :  cpu time   44.7345: real time   44.9110
    CORREC:  cpu time   57.2973: real time   57.5050
    CHARGE:  cpu time    2.3212: real time    2.3300
    --------------------------------------------
      LOOP:  cpu time  119.4723: real time  119.9048

 eigenvalue-minimisations  :     0
 total energy-change (2. order) :-0.5446535E-06  (-0.2581689E-06)
 number of electron      30.0000000 magnetization 
 augmentation part        0.6610186 magnetization 

 Free energy of the ion-electron system (eV)
  ---------------------------------------------------
  alpha Z        PSCENC =         0.09644577
  Ewald energy   TEWEN  =      2286.53307223
  -Hartree energ DENC   =     -3041.60438688
  -exchange      EXHF   =       309.56679448
  -V(xc)+E(xc)   XCENC  =         0.00000000
  PAW double counting   =      3528.38740086    -3528.88230870
  entropy T*S    EENTRO =        -0.00000000
  eigenvalues    EBANDS =      -551.62929612
  atomic energy  EATOM  =       868.42867012
  ---------------------------------------------------
  free energy    TOTEN  =      -129.10360824 eV

  energy without entropy =     -129.10360824  energy(sigma->0) =     -129.10360824
  exchange ACFDT corr.  =         0.00000000  see jH, gK, PRB 81, 115126


--------------------------------------------------------------------------------------------------------




----------------------------------------- Iteration    1(  36)  ---------------------------------------


    POTLOK:  cpu time   14.8965: real time   14.9327
    SETDIJ:  cpu time    0.1790: real time    0.1794
    TRIAL :  cpu time   44.6567: real time   44.8337
    CORREC:  cpu time   57.3425: real time   57.5485
    CHARGE:  cpu time    2.3278: real time    2.3367
    --------------------------------------------
      LOOP:  cpu time  119.4506: real time  119.8817

 eigenvalue-minimisations  :     0
 total energy-change (2. order) :-0.2579294E-06  (-0.1423458E-06)
 number of electron      30.0000000 magnetization 
 augmentation part        0.6610189 magnetization 

 Free energy of the ion-electron system (eV)
  ---------------------------------------------------
  alpha Z        PSCENC =         0.09644577
  Ewald energy   TEWEN  =      2286.53307223
  -Hartree energ DENC   =     -3041.60362451
  -exchange      EXHF   =       309.56668716
  -V(xc)+E(xc)   XCENC  =         0.00000000
  PAW double counting   =      3528.41408212    -3528.90899352
  entropy T*S    EENTRO =        -0.00000000
  eigenvalues    EBANDS =      -551.62994786
  atomic energy  EATOM  =       868.42867012
  ---------------------------------------------------
  free energy    TOTEN  =      -129.10360850 eV

  energy without entropy =     -129.10360850  energy(sigma->0) =     -129.10360850
  exchange ACFDT corr.  =         0.00000000  see jH, gK, PRB 81, 115126


--------------------------------------------------------------------------------------------------------




----------------------------------------- Iteration    1(  37)  ---------------------------------------


    POTLOK:  cpu time   14.8993: real time   14.9355
    SETDIJ:  cpu time    0.1777: real time    0.1781
    TRIAL :  cpu time   44.7942: real time   44.9686
    CORREC:  cpu time   57.2464: real time   57.4523
    CHARGE:  cpu time    2.3224: real time    2.3311
    --------------------------------------------
      LOOP:  cpu time  119.4775: real time  119.9059

 eigenvalue-minimisations  :     0
 total energy-change (2. order) :-0.1420325E-06  (-0.8225442E-07)
 number of electron      30.0000000 magnetization 
 augmentation part        0.6610188 magnetization 

 Free energy of the ion-electron system (eV)
  ---------------------------------------------------
  alpha Z        PSCENC =         0.09644577
  Ewald energy   TEWEN  =      2286.53307223
  -Hartree energ DENC   =     -3041.60327462
  -exchange      EXHF   =       309.56663017
  -V(xc)+E(xc)   XCENC  =         0.00000000
  PAW double counting   =      3528.43160929    -3528.92652165
  entropy T*S    EENTRO =        -0.00000000
  eigenvalues    EBANDS =      -551.63023995
  atomic energy  EATOM  =       868.42867012
  ---------------------------------------------------
  free energy    TOTEN  =      -129.10360864 eV

  energy without entropy =     -129.10360864  energy(sigma->0) =     -129.10360864
  exchange ACFDT corr.  =         0.00000000  see jH, gK, PRB 81, 115126


--------------------------------------------------------------------------------------------------------




----------------------------------------- Iteration    1(  38)  ---------------------------------------


    POTLOK:  cpu time   14.9003: real time   14.9366
    SETDIJ:  cpu time    0.1779: real time    0.1784
    TRIAL :  cpu time   44.7611: real time   44.9362
    CORREC:  cpu time   57.0962: real time   57.3031
    CHARGE:  cpu time    2.3275: real time    2.3364
    --------------------------------------------
      LOOP:  cpu time  119.3046: real time  119.7344

 eigenvalue-minimisations  :     0
 total energy-change (2. order) :-0.8199163E-07  (-0.5036620E-07)
 number of electron      30.0000000 magnetization 
 augmentation part        0.6610180 magnetization 

 Free energy of the ion-electron system (eV)
  ---------------------------------------------------
  alpha Z        PSCENC =         0.09644577
  Ewald energy   TEWEN  =      2286.53307223
  -Hartree energ DENC   =     -3041.60366036
  -exchange      EXHF   =       309.56665967
  -V(xc)+E(xc)   XCENC  =         0.00000000
  PAW double counting   =      3528.43820946    -3528.93312143
  entropy T*S    EENTRO =        -0.00000000
  eigenvalues    EBANDS =      -551.62988418
  atomic energy  EATOM  =       868.42867012
  ---------------------------------------------------
  free energy    TOTEN  =      -129.10360872 eV

  energy without entropy =     -129.10360872  energy(sigma->0) =     -129.10360872
  exchange ACFDT corr.  =        -0.00000000  see jH, gK, PRB 81, 115126


--------------------------------------------------------------------------------------------------------


  average scaling for gradient   1.3201


 average (electrostatic) potential at core
  the test charge radii are     0.6991  0.5201
  (the norm of the test charge is              1.0000)
       1 -41.0837       2 -41.0836       3 -41.0832       4 -41.0837       5 -41.0837
       6 -41.0843       7 -23.4479       8 -23.4491       9 -23.4486      10 -23.4487
      11 -23.4495      12 -23.4492
 
 
 
 E-fermi :  -9.1162     XC(G=0):   0.0000     alpha+bet : -0.0179


 k-point     1 :       0.0000    0.0000    0.0000
  band No.  band energies     occupation 
      1     -31.2914      2.00000
      2     -27.6020      2.00000
      3     -27.5995      2.00000
      4     -22.4110      2.00000
      5     -22.4104      2.00000
      6     -19.2972      2.00000
      7     -17.5136      2.00000
      8     -16.8252      2.00000
      9     -15.9871      2.00000
     10     -15.9839      2.00000
     11     -13.6711      2.00000
     12     -13.4446      2.00000
     13     -13.4443      2.00000
     14      -9.1680      2.00000
     15      -9.1658      2.00000
     16       0.0162      0.00000
     17       0.1418      0.00000
     18       0.1522      0.00000
     19       0.1714      0.00000
     20       0.1898      0.00000
     21       0.2280      0.00000
     22       0.2441      0.00000
     23       0.2776      0.00000
     24       0.3001      0.00000


--------------------------------------------------------------------------------------------------------


 soft charge-density along one line, spin component           1
         0         1         2         3         4         5         6         7         8         9
 total charge-density along one line
 
 pseudopotential strength for first ion, spin component:           1
  9.059  12.032   0.001   0.000   0.001  -0.003  -0.001  -0.002
 12.032  15.979   0.001   0.000   0.001  -0.004  -0.001  -0.003
  0.001   0.001  -3.564   0.002  -0.002   6.912  -0.003   0.004
  0.000   0.000   0.002  -3.582   0.004  -0.003   6.946  -0.008
  0.001   0.001  -0.002   0.004  -3.564   0.004  -0.008   6.913
 -0.003  -0.004   6.912  -0.003   0.004 -15.449   0.005  -0.006
 -0.001  -0.001  -0.003   6.946  -0.008   0.005 -15.511   0.015
 -0.002  -0.003   0.004  -0.008   6.913  -0.006   0.015 -15.450
 total augmentation occupancy for first ion, spin component:           1
 11.254  -5.469  -0.206  -0.064  -0.170  -0.042  -0.013  -0.034
 -5.469   2.679   0.126   0.039   0.104   0.025   0.008   0.020
 -0.206   0.126   1.893   0.059  -0.079   0.202   0.008  -0.013
 -0.064   0.039   0.059   1.197   0.165   0.008   0.105   0.023
 -0.170   0.104  -0.079   0.165   1.880  -0.013   0.023   0.201
 -0.042   0.025   0.202   0.008  -0.013   0.022   0.001  -0.002
 -0.013   0.008   0.008   0.105   0.023   0.001   0.009   0.003
 -0.034   0.020  -0.013   0.023   0.201  -0.002   0.003   0.022


------------------------ aborting loop because EDIFF is reached ----------------------------------------


    FORLOC:  cpu time    1.6244: real time    1.6284
    FORHF :  cpu time   32.7597: real time   32.8407
    FORNL :  cpu time    1.1869: real time    1.1898
    FORCOR:  cpu time   13.9897: real time   14.0237
    OFIELD:  cpu time    0.0460: real time    0.0461

 VOLUME and BASIS-vectors are now :
 -----------------------------------------------------------------------------
  energy-cutoff  :     1600.00
  volume of cell :    42875.00
      direct lattice vectors                 reciprocal lattice vectors
    35.000000000  0.000000000  0.000000000     0.028571429  0.000000000  0.000000000
     0.000000000 35.000000000  0.000000000     0.000000000  0.028571429  0.000000000
     0.000000000  0.000000000 35.000000000     0.000000000  0.000000000  0.028571429

  length of vectors
    35.000000000 35.000000000 35.000000000     0.028571429  0.028571429  0.028571429


 FORCES acting on ions:
    Electron-Ion                     Ewald-Force                    Non-Local-Force
 -----------------------------------------------------------------------------------------------
   -.112E+03 -.135E+03 -.411E+02   0.112E+03 0.136E+03 0.412E+02   -.229E+00 -.272E+00 -.885E-01
   -.173E+03 0.344E+02 -.376E+02   0.173E+03 -.344E+02 0.376E+02   -.353E+00 0.720E-01 -.756E-01
   -.610E+02 0.170E+03 0.343E+01   0.611E+02 -.170E+03 -.344E+01   -.126E+00 0.347E+00 0.685E-02
   0.112E+03 0.135E+03 0.411E+02   -.112E+03 -.135E+03 -.411E+02   0.228E+00 0.278E+00 0.869E-01
   0.173E+03 -.343E+02 0.377E+02   -.173E+03 0.344E+02 -.377E+02   0.357E+00 -.726E-01 0.829E-01
   0.610E+02 -.170E+03 -.358E+01   -.611E+02 0.170E+03 0.359E+01   0.130E+00 -.347E+00 -.879E-02
   -.504E+02 -.609E+02 -.184E+02   0.542E+02 0.655E+02 0.197E+02   -.319E+01 -.385E+01 -.116E+01
   -.779E+02 0.154E+02 -.168E+02   0.837E+02 -.166E+02 0.181E+02   -.493E+01 0.976E+00 -.106E+01
   -.275E+02 0.764E+02 0.152E+01   0.295E+02 -.821E+02 -.164E+01   -.174E+01 0.483E+01 0.957E-01
   0.504E+02 0.609E+02 0.184E+02   -.542E+02 -.655E+02 -.198E+02   0.319E+01 0.386E+01 0.116E+01
   0.779E+02 -.155E+02 0.169E+02   -.837E+02 0.166E+02 -.182E+02   0.493E+01 -.978E+00 0.107E+01
   0.275E+02 -.764E+02 -.154E+01   -.295E+02 0.821E+02 0.165E+01   0.174E+01 -.483E+01 -.959E-01
 -----------------------------------------------------------------------------------------------
   -.958E-02 -.867E-02 -.157E-01   0.213E-13 -.284E-13 0.249E-13   0.668E-02 0.729E-02 0.126E-01
 
 
 POSITION                                       TOTAL-FORCE (eV/Angst)
 -----------------------------------------------------------------------------------
      0.76555      0.86824      0.82099        -0.178985     -0.201423     -0.074824
      1.23765     34.55716      0.79389        -0.267228      0.057278     -0.060060
      0.37224     33.51146      0.47727        -0.101411      0.264811      0.004757
     34.03507     33.77703      0.18688         0.176675      0.218046      0.071623
     33.56293      0.08841      0.21328         0.278621     -0.059953      0.067965
     34.42809      1.13402      0.53081         0.107546     -0.268063     -0.008564
      1.43748      1.68001      1.06510        -0.205871     -0.247489     -0.069184
      2.27576     34.35146      1.01771        -0.317695      0.061529     -0.065291
      0.73819     32.49392      0.45706        -0.109599      0.304769      0.004496
     33.36354     32.96544     34.94223         0.199173      0.240661      0.068852
     32.52532      0.29430     34.98853         0.308822     -0.061771      0.064849
     34.06230      2.15171      0.55108         0.109951     -0.308396     -0.004620
 -----------------------------------------------------------------------------------
    total drift:                               -0.000312      0.001346      0.000067


--------------------------------------------------------------------------------------------------------



  FREE ENERGIE OF THE ION-ELECTRON SYSTEM (eV)
  ---------------------------------------------------
  free  energy   TOTEN  =      -129.10360872 eV

  energy  without entropy=     -129.10360872  energy(sigma->0) =     -129.10360872
 


--------------------------------------------------------------------------------------------------------


    POTLOK:  cpu time   14.9958: real time   15.0322


--------------------------------------------------------------------------------------------------------


     LOOP+:  cpu time 4723.0179: real time 4739.3632
    4ORBIT:  cpu time    0.0000: real time    0.0000

 total amount of memory used by VASP on root node  3766542. kBytes
========================================================================

   base      :      30000. kBytes
   nonl-proj :     124615. kBytes
   fftplans  :    1395487. kBytes
   grid      :    2104012. kBytes
   one-center:          3. kBytes
   HF        :          9. kBytes
   nonlr-proj:        261. kBytes
   wavefun   :     112155. kBytes
 
  
  
 General timing and accounting informations for this job:
 ========================================================
  
                  Total CPU time used (sec):     5502.382
                            User time (sec):     5035.635
                          System time (sec):      466.748
                         Elapsed time (sec):     5521.417
  
                   Maximum memory used (kb):     5504580.
                   Average memory used (kb):           0.
  
                          Minor page faults:      1476773
                          Major page faults:            5
                 Voluntary context switches:       567521
 
 PROFILE, used timers:      39
 =============================
 
 index                 routine                    time                            calls level
----------------------------------------------------------------------------------------------
    1    total_time                         5521.417984                                1   1
    2      w1_copy                               1.274510                           1055   2
    3      fftwav_mpi                          159.208084                            809   2
    4      fftext_mpi                            0.783212                              6   2
    5      overl                                 0.000573                            540   2
    6      orth1                                 1.415404                            345   2
    7      lincom                                1.472246                            201   2
    8      eccp                                 22.898031                            624   2
    9      hamiltmu                             29.518950                             60   2
   10        vhamil                                5.637422                          120   3
   11        overl1                                0.000089                          120   3
   12        kinhamil                             15.073498                          120   3
   13          fftext_mpi                           14.915657                        120   4
   14      pdssyex_zheevx                        1.494591                             70   2
   15      fock_acc                           1268.411897                             99   2
   16        w1_copy                               1.140500                          597   3
   17        fftwav_mpi                           60.145928                          597   3
   18        fock_charge_mu                       64.254513                          399   3
   19          racc0mu_hf                            0.657313                        399   4
   20        rpromu_hf                             0.945245                          399   3
   21        overl1                                0.000140                          198   3
   22        fftext_mpi                           14.100431                          198   3
   23      hamilt_local                         34.313106                            198   2
   24        vhamil                                9.312942                          198   3
   25        kinhamil                             24.999774                          198   3
   26          fftext_mpi                           24.743061                        198   4
   27      w1_dscal                              4.631870                            198   2
   28      eddiag                             1313.447517                             33   2
   29        fock_acc                           1265.014934                           99   3
   30          w1_copy                               1.011866                        594   4
   31          fftwav_mpi                           60.482860                        594   4
   32          fock_charge_mu                       63.979753                        396   4
   33            racc0mu_hf                            0.733583                      396   5
   34          rpromu_hf                             0.922233                        396   4
   35          overl1                                0.000145                        198   4
   36          fftext_mpi                           13.858552                        198   4
   37        fftwav_mpi                           38.461536                          198   3
   38        eccp                                  6.246138                          198   3
   39      rpro1_hf                              0.042087                            384   2
 
 Flat profile
 ============
 
             routine name                   CPU           calls
 ---------------------------------------------------------------
 total_time                           2682.505905           1
 fock_acc                             2252.584665         198
 fftwav_mpi                            318.298409        2198
 fock_charge_mu                        126.843370         795
 fftext_mpi                             68.400914         720
 eccp                                   29.144169         822
 vhamil                                 14.950364         318
 hamiltmu                                8.807940          60
 w1_dscal                                4.631870         198
 eddiag                                  3.724909          33
 w1_copy                                 3.426876        2246
 rpromu_hf                               1.867477         795
 pdssyex_zheevx                          1.494591          70
 lincom                                  1.472246         201
 orth1                                   1.415404         345
 racc0mu_hf                              1.390896         795
 kinhamil                                0.414555         318
 rpro1_hf                                0.042087         384
 overl                                   0.000573         540
 hamilt_local                            0.000389         198
 overl1                                  0.000374         516
 ---------------------------------------------------------------
  summed up times    5521.41798400879     
 
Profiling took   0.010086  0.005157  0.003296  0.003272 seconds
Profiling took   0.006268 seconds
