 vasp.5.4.1 24Jun15 (build Jan 02 2020 16:21:29) gamma-only                     
  
 executed on           IFC15_impi date 2020.04.20  21:49:53
 running on   32 total cores
 distrk:  each k-point on   32 cores,    1 groups
 distr:  one band on NCORES_PER_BAND=   8 cores,    4 groups


--------------------------------------------------------------------------------------------------------


 INCAR:
 POTCAR:    PAW_PBE N 08Apr2002                   
 POTCAR:    PAW_PBE C 08Apr2002                   
 POTCAR:    PAW_PBE H 15Jun2001                   
 POTCAR:    PAW_PBE N 08Apr2002                   
   VRHFIN =N: s2p3                                                              
   LEXCH  = PE                                                                  
   EATOM  =   264.5486 eV,   19.4438 Ry                                         
                                                                                
   TITEL  = PAW_PBE N 08Apr2002                                                 
   LULTRA =        F    use ultrasoft PP ?                                      
   IUNSCR =        1    unscreen: 0-lin 1-nonlin 2-no                           
   RPACOR =    1.200    partial core radius                                     
   POMASS =   14.001; ZVAL   =    5.000    mass and valenz                      
   RCORE  =    1.500    outmost cutoff radius                                   
   RWIGS  =    1.400; RWIGS  =    0.741    wigner-seitz radius (au A)           
   ENMAX  =  400.000; ENMIN  =  300.000 eV                                      
   ICORE  =        2    local potential                                         
   LCOR   =        T    correct aug charges                                     
   LPAW   =        T    paw PP                                                  
   EAUG   =  627.112                                                            
   DEXC   =    0.000                                                            
   RMAX   =    1.529    core radius for proj-oper                               
   RAUG   =    1.300    factor for augmentation sphere                          
   RDEP   =    1.514    radius for radial grids                                 
   RDEPT  =    1.338    core radius for aug-charge                              
                                                                                
   Atomic configuration                                                         
    4 entries                                                                   
     n  l   j            E        occ.                                          
     1  0  0.50      -384.7179   2.0000                                         
     2  0  0.50       -18.5828   2.0000                                         
     2  1  0.50        -7.0898   3.0000                                         
     3  2  1.50        -6.8029   0.0000                                         
   Description                                                                  
     l       E           TYP  RCUT    TYP  RCUT                                 
     0    -18.5828119     23  1.200                                             
     0    -13.5018863     23  1.200                                             
     1     -7.0897853     23  1.500                                             
     1      9.5240782     23  1.500                                             
     2     -6.8029130      7  1.500                                             
  local pseudopotential read in
  partial core-charges read in
  partial kinetic energy density read in
  atomic valenz-charges read in
  non local Contribution for L=           0  read in
    real space projection operators read in
  non local Contribution for L=           0  read in
    real space projection operators read in
  non local Contribution for L=           1  read in
    real space projection operators read in
  non local Contribution for L=           1  read in
    real space projection operators read in
    PAW grid and wavefunctions read in
 
   number of l-projection  operators is LMAX  =           4
   number of lm-projection operators is LMMAX =           8
 
 POTCAR:    PAW_PBE C 08Apr2002                   
   VRHFIN =C: s2p2                                                              
   LEXCH  = PE                                                                  
   EATOM  =   147.1560 eV,   10.8157 Ry                                         
                                                                                
   TITEL  = PAW_PBE C 08Apr2002                                                 
   LULTRA =        F    use ultrasoft PP ?                                      
   IUNSCR =        1    unscreen: 0-lin 1-nonlin 2-no                           
   RPACOR =    1.200    partial core radius                                     
   POMASS =   12.011; ZVAL   =    4.000    mass and valenz                      
   RCORE  =    1.500    outmost cutoff radius                                   
   RWIGS  =    1.630; RWIGS  =    0.863    wigner-seitz radius (au A)           
   ENMAX  =  400.000; ENMIN  =  300.000 eV                                      
   ICORE  =        2    local potential                                         
   LCOR   =        T    correct aug charges                                     
   LPAW   =        T    paw PP                                                  
   EAUG   =  644.873                                                            
   DEXC   =    0.000                                                            
   RMAX   =    1.529    core radius for proj-oper                               
   RAUG   =    1.300    factor for augmentation sphere                          
   RDEP   =    1.501    radius for radial grids                                 
   RDEPT  =    1.300    core radius for aug-charge                              
                                                                                
   Atomic configuration                                                         
    4 entries                                                                   
     n  l   j            E        occ.                                          
     1  0  0.50      -273.3789   2.0000                                         
     2  0  0.50       -13.7508   2.0000                                         
     2  1  0.50        -5.2854   2.0000                                         
     3  2  1.50        -5.4423   0.0000                                         
   Description                                                                  
     l       E           TYP  RCUT    TYP  RCUT                                 
     0    -13.7508458     23  1.200                                             
     0     -8.2022199     23  1.200                                             
     1     -5.2854383     23  1.500                                             
     1     34.0145650     23  1.500                                             
     2     -5.4423304      7  1.500                                             
  local pseudopotential read in
  partial core-charges read in
  partial kinetic energy density read in
  atomic valenz-charges read in
  non local Contribution for L=           0  read in
    real space projection operators read in
  non local Contribution for L=           0  read in
    real space projection operators read in
  non local Contribution for L=           1  read in
    real space projection operators read in
  non local Contribution for L=           1  read in
    real space projection operators read in
    PAW grid and wavefunctions read in
 
   number of l-projection  operators is LMAX  =           4
   number of lm-projection operators is LMMAX =           8
 
 POTCAR:    PAW_PBE H 15Jun2001                   
   VRHFIN =H: ultrasoft test                                                    
   LEXCH  = PE                                                                  
   EATOM  =    12.4884 eV,    0.9179 Ry                                         
                                                                                
   TITEL  = PAW_PBE H 15Jun2001                                                 
   LULTRA =        F    use ultrasoft PP ?                                      
   IUNSCR =        0    unscreen: 0-lin 1-nonlin 2-no                           
   RPACOR =    0.000    partial core radius                                     
   POMASS =    1.000; ZVAL   =    1.000    mass and valenz                      
   RCORE  =    1.100    outmost cutoff radius                                   
   RWIGS  =    0.700; RWIGS  =    0.370    wigner-seitz radius (au A)           
   ENMAX  =  250.000; ENMIN  =  200.000 eV                                      
   RCLOC  =    0.701    cutoff for local pot                                    
   LCOR   =        T    correct aug charges                                     
   LPAW   =        T    paw PP                                                  
   EAUG   =  400.000                                                            
   RMAX   =    1.123    core radius for proj-oper                               
   RAUG   =    1.200    factor for augmentation sphere                          
   RDEP   =    1.112    radius for radial grids                                 
   RDEPT  =    0.926    core radius for aug-charge                              
                                                                                
   Atomic configuration                                                         
    2 entries                                                                   
     n  l   j            E        occ.                                          
     1  0  0.50        -6.4927   1.0000                                         
     2  1  0.50        -3.4015   0.0000                                         
   Description                                                                  
     l       E           TYP  RCUT    TYP  RCUT                                 
     0     -6.4927494     23  1.100                                             
     0      6.8029130     23  1.100                                             
     1     -4.0817478     23  1.100                                             
  local pseudopotential read in
  atomic valenz-charges read in
  non local Contribution for L=           0  read in
    real space projection operators read in
  non local Contribution for L=           0  read in
    real space projection operators read in
  non local Contribution for L=           1  read in
    real space projection operators read in
    PAW grid and wavefunctions read in
 
   number of l-projection  operators is LMAX  =           3
   number of lm-projection operators is LMMAX =           5
 
  PAW_PBE N 08Apr2002                   :
 energy of atom  1       EATOM= -264.5486
 kinetic energy error for atom=    0.0004 (will be added to EATOM!!)
  PAW_PBE C 08Apr2002                   :
 energy of atom  2       EATOM= -147.1560
 kinetic energy error for atom=    0.0002 (will be added to EATOM!!)
  PAW_PBE H 15Jun2001                   :
 energy of atom  3       EATOM=  -12.4884
 kinetic energy error for atom=    0.0000 (will be added to EATOM!!)
 
 
 POSCAR: N C H                                   
  positions in cartesian coordinates
  No initial velocities read in
 exchange correlation table for  LEXCH =        8
   RHO(1)=    0.500       N(1)  =     2000
   RHO(2)=  100.500       N(2)  =     4000
 


--------------------------------------------------------------------------------------------------------


 ion  position               nearest neighbor table
   1  0.013  0.000  0.193-   6 1.34   2 1.34
   2  0.038  1.000  0.164-   7 1.08   1 1.34   3 1.39
   3  0.027  1.000  0.126-   8 1.08   4 1.39   2 1.39
   4  0.988  1.000  0.117-   9 1.08   5 1.39   3 1.39
   5  0.962  1.000  0.147-  10 1.08   4 1.39   6 1.39
   6  0.976  1.000  0.184-  11 1.08   1 1.34   5 1.39
   7  0.068  1.000  0.172-   2 1.08
   8  0.049  1.000  0.103-   3 1.08
   9  0.979  0.999  0.087-   4 1.08
  10  0.932  1.000  0.141-   5 1.08
  11  0.956  0.000  0.208-   6 1.08
 
  LATTYP: Found a simple cubic cell.
 ALAT       =    35.0000000000
  
  Lattice vectors:
  
 A1 = (  35.0000000000,   0.0000000000,   0.0000000000)
 A2 = (   0.0000000000,  35.0000000000,   0.0000000000)
 A3 = (   0.0000000000,   0.0000000000,  35.0000000000)


Analysis of symmetry for initial positions (statically):
=====================================================================
 Subroutine PRICEL returns:
 Original cell was already a primitive cell.
 

 Routine SETGRP: Setting up the symmetry group for a 
 simple cubic supercell.


 Subroutine GETGRP returns: Found  1 space group operations
 (whereof  1 operations were pure point group operations)
 out of a pool of 48 trial point group operations.


The static configuration has the point symmetry C_1 .


Analysis of symmetry for dynamics (positions and initial velocities):
=====================================================================
 Subroutine PRICEL returns:
 Original cell was already a primitive cell.
 

 Routine SETGRP: Setting up the symmetry group for a 
 simple cubic supercell.


 Subroutine GETGRP returns: Found  1 space group operations
 (whereof  1 operations were pure point group operations)
 out of a pool of 48 trial point group operations.


The dynamic configuration has the point symmetry C_1 .
 
 
 KPOINTS: automatic mesh                          

Automatic generation of k-mesh.
Space group operators:
 irot       det(A)        alpha          n_x          n_y          n_z        tau_x        tau_y        tau_z
    1     1.000000     0.000000     1.000000     0.000000     0.000000     0.000000     0.000000     0.000000
 
 Subroutine IBZKPT returns following result:
 ===========================================
 
 Found      1 irreducible k-points:
 
 Following reciprocal coordinates:
            Coordinates               Weight
  0.000000  0.000000  0.000000      1.000000
 
 Following cartesian coordinates:
            Coordinates               Weight
  0.000000  0.000000  0.000000      1.000000
 
 
 Subroutine IBZKPT_HF returns following result:
 ==============================================
 
 Found      1 k-points in 1st BZ
 the following      1 k-points will be used (e.g. in the exchange kernel)
 Following reciprocal coordinates:   # in IRBZ
  0.000000  0.000000  0.000000    1.00000000   1 t-inv F


--------------------------------------------------------------------------------------------------------




 Dimension of arrays:
   k-points           NKPTS =      1   k-points in BZ     NKDIM =      1   number of bands    NBANDS=     24
   number of dos      NEDOS =    301   number of ions     NIONS =     11
   non local maximal  LDIM  =      4   non local SUM 2l+1 LMDIM =      8
   total plane-waves  NPLWV = ******
   max r-space proj   IRMAX =      1   max aug-charges    IRDMAX=  31937
   dimension x,y,z NGX =   480 NGY =  480 NGZ =  480
   dimension x,y,z NGXF=   960 NGYF=  960 NGZF=  960
   support grid    NGXF=   960 NGYF=  960 NGZF=  960
   ions per type =               1   5   5
 NGX,Y,Z   is equivalent  to a cutoff of  22.80, 22.80, 22.80 a.u.
 NGXF,Y,Z  is equivalent  to a cutoff of  45.60, 45.60, 45.60 a.u.


 I would recommend the setting:
   dimension x,y,z NGX =   457 NGY =  457 NGZ =  457
 SYSTEM =  C                                       
 POSCAR =  N C H                                   

 Startparameter for this run:
   NWRITE =      2    write-flag & timer
   PREC   = accura    normal or accurate (medium, high low for compatibility)
   ISTART =      0    job   : 0-new  1-cont  2-samecut
   ICHARG =      2    charge: 1-file 2-atom 10-const
   ISPIN  =      1    spin polarized calculation?
   LNONCOLLINEAR =      F non collinear calculations
   LSORBIT =      F    spin-orbit coupling
   INIWAV =      1    electr: 0-lowe 1-rand  2-diag
   LASPH  =      T    aspherical Exc in radial PAW
   METAGGA=      F    non-selfconsistent MetaGGA calc.

 Electronic Relaxation 1
   ENCUT  = 1600.0 eV 117.60 Ry   10.84 a.u. 114.15114.15114.15*2*pi/ulx,y,z
   ENINI  = 1600.0     initial cutoff
   ENAUG  =  644.9 eV  augmentation charge cutoff
   NELM   =     60;   NELMIN=  2; NELMDL= -5     # of ELM steps 
   EDIFF  = 0.1E-06   stopping-criterion for ELM
   LREAL  =      F    real-space projection
   NLSPLINE    = F    spline interpolate recip. space projectors
   LCOMPAT=      F    compatible to vasp.4.4
   GGA_COMPAT  = T    GGA compatible to vasp.4.4-vasp.4.6
   LMAXPAW     = -100 max onsite density
   LMAXMIX     =    2 max onsite mixed and CHGCAR
   VOSKOWN=      0    Vosko Wilk Nusair interpolation
   ROPT   =    0.00000   0.00000   0.00000
 Ionic relaxation
   EDIFFG = 0.1E-05   stopping-criterion for IOM
   NSW    =      0    number of steps for IOM
   NBLOCK =      1;   KBLOCK =      1    inner block; outer block 
   IBRION =     -1    ionic relax: 0-MD 1-quasi-New 2-CG
   NFREE  =      0    steps in history (QN), initial steepest desc. (CG)
   ISIF   =      0    stress and relaxation
   IWAVPR =     10    prediction:  0-non 1-charg 2-wave 3-comb
   ISYM   =      3    0-nonsym 1-usesym 2-fastsym
   LCORR  =      T    Harris-Foulkes like correction to forces

   POTIM  = 0.5000    time-step for ionic-motion
   TEIN   =    0.0    initial temperature
   TEBEG  =    0.0;   TEEND  =   0.0 temperature during run
   SMASS  =  -3.00    Nose mass-parameter (am)
   estimated Nose-frequenzy (Omega)   =  0.10E-29 period in steps =****** mass=  -0.280E-25a.u.
   SCALEE = 1.0000    scale energy and forces
   NPACO  =    256;   APACO  = 16.0  distance and # of slots for P.C.
   PSTRESS=    0.0 pullay stress

  Mass of Ions in am
   POMASS =  14.00 12.01  1.00
  Ionic Valenz
   ZVAL   =   5.00  4.00  1.00
  Atomic Wigner-Seitz radii
   RWIGS  =  -1.00 -1.00 -1.00
  virtual crystal weights 
   VCA    =   1.00  1.00  1.00
   NELECT =      30.0000    total number of electrons
   NUPDOWN=      -1.0000    fix difference up-down

 DOS related values:
   EMIN   =  10.00;   EMAX   =-10.00  energy-range for DOS
   EFERMI =   0.00
   ISMEAR =     0;   SIGMA  =   0.01  broadening in eV -4-tet -1-fermi 0-gaus

 Electronic relaxation 2 (details)
   IALGO  =     58    algorithm
   LDIAG  =      T    sub-space diagonalisation (order eigenvalues)
   LSUBROT=      F    optimize rotation matrix (better conditioning)
   TURBO    =      0    0=normal 1=particle mesh
   IRESTART =      0    0=no restart 2=restart with 2 vectors
   NREBOOT  =      0    no. of reboots
   NMIN     =      0    reboot dimension
   EREF     =   0.00    reference energy to select bands
   IMIX   =      4    mixing-type and parameters
     AMIX     =   0.40;   BMIX     =  1.00
     AMIX_MAG =   1.60;   BMIX_MAG =  1.00
     AMIN     =   0.10
     WC   =   100.;   INIMIX=   1;  MIXPRE=   1;  MAXMIX= -45

 Intra band minimization:
   WEIMIN = 0.0000     energy-eigenvalue tresh-hold
   EBREAK =  0.10E-08  absolut break condition
   DEPER  =   0.30     relativ break condition  

   TIME   =   0.40     timestep for ELM

  volume/ion in A,a.u.               =    3897.73     26303.16
  Fermi-wavevector in a.u.,A,eV,Ry     =   0.145338  0.274650  0.287399  0.021123
  Thomas-Fermi vector in A             =   0.812913
 
 Write flags
   LWAVE  =      F    write WAVECAR
   LCHARG =      T    write CHGCAR
   LVTOT  =      F    write LOCPOT, total local potential
   LVHAR  =      F    write LOCPOT, Hartree potential only
   LELF   =      F    write electronic localiz. function (ELF)
   LORBIT =      0    0 simple, 1 ext, 2 COOP (PROOUT)


 Dipole corrections
   LMONO  =      F    monopole corrections only (constant potential shift)
   LDIPOL =      F    correct potential (dipole corrections)
   IDIPOL =      0    1-x, 2-y, 3-z, 4-all directions 
   EPSILON=  1.0000000 bulk dielectric constant

 Exchange correlation treatment:
   GGA     =    --    GGA type
   LEXCH   =     8    internal setting for exchange type
   VOSKOWN=      0    Vosko Wilk Nusair interpolation
   EXXOEP  =     0    0=HF, 1=EXX-LHF (local Hartree Fock) 2=EXX OEP
   LHFCALC =     T    Hartree Fock is set to
   LSYMGRAD=     F    symmetrize gradient (conserves proper symmetry)
   PRECFOCK=normal    Normal, Fast or Accurate (Low or Medium for compatibility)
   LRHFCALC=     F    long range Hartree Fock
   LRSCOR  =     F    long range correlation only (use DFT for short range part)
   LTHOMAS =     F    Thomas Fermi screening in HF
   LMODELHF=     F    short range full HF, long range fraction AEXX
   ENCUT4O =  -1.0   cutoff for four orbital integrals eV
   LMAXFOCK=     4    L truncation for augmentation on plane wave grid
   LMAXFOCKAE=  -1    L truncation for all-electron charge restoration on plane wave grid
   NMAXFOCKAE=   1    number of basis functions for all-electron charge restoration
   LFOCKAEDFT=     F  apply the AE augmentation even for DFT
   NKREDX  =     1    reduce k-point grid by
   NKREDY  =     1    reduce k-point grid by
   NKREDZ  =     1    reduce k-point grid by
   SHIFTRED=     F    shift reduced grid of Gamma
   HFKIDENT=     F    idential grid for each k-point
   ODDONLY =     F    use only odd q-grid points
   EVENONLY=     F    use only even q-grid points
   HFALPHA =   -1.0000 decay constant for conv. correction
   MCALPHA =    0.0000 extent of test-charge in conv. correction in multipole expansion
   AEXX    =    1.0000 exact exchange contribution
   HFSCREEN=    0.0000 screening length (either q_TF or 0.3 A-1)
   HFSCREENC=   0.0000 screening length for correlation (either q_TF or 0.3 A-1)
   HFRCUT  =    0.0000 spherical cutoff for potential kernel
   ALDAX   =    0.0000 LDA exchange part
   AGGAX   =    0.0000 GGA exchange part
   ALDAC   =    0.0000 LDA correlation
   AGGAC   =    0.0000 GGA correlation
   NBANDSGWLOW=     1    first orbital included in HF term
   ENCUTFOCK=  -1.0 apply spherical cutoff to Coloumb kernel
 Linear response parameters
   LEPSILON=     F    determine dielectric tensor
   LRPA    =     F    only Hartree local field effects (RPA)
   LNABLA  =     F    use nabla operator in PAW spheres
   LVEL    =     F    velocity operator in full k-point grid
   LINTERFAST=   F  fast interpolation
   KINTER  =     0    interpolate to denser k-point grid
   CSHIFT  =0.1000    complex shift for real part using Kramers Kronig
   OMEGAMAX=  -1.0    maximum frequency
   DEG_THRESHOLD= 0.2000000E-02 threshold for treating states as degnerate
   RTIME   =    0.100 relaxation time in fs

 Orbital magnetization related:
   ORBITALMAG=     F  switch on orbital magnetization
   LCHIMAG   =     F  perturbation theory with respect to B field
   DQ        =  0.001000  dq finite difference perturbation B field



--------------------------------------------------------------------------------------------------------


 Static calculation
 charge density and potential will be updated during run
 non-spin polarized calculation
 Conjugate gradient for all bands (Freysoldt, et al. PRB 79, 241103 (2009))
 preconditioned conjugated gradient                                        
 perform sub-space diagonalisation
    before iterative eigenvector-optimisation
 modified Broyden-mixing scheme, WC =      100.0
 initial mixing is a Kerker type mixing with AMIX =  0.4000 and BMIX =      1.0000
 Hartree-type preconditioning will be used
 using additional bands            9
 reciprocal scheme for non local part
 use partial core corrections
 no Harris-corrections to forces 
 use gradient corrections 
 use of overlap-Matrix (Vanderbilt PP)
 Gauss-broadening in eV      SIGMA  =   0.01


--------------------------------------------------------------------------------------------------------


  energy-cutoff  :     1600.00
  volume of cell :    42875.00
      direct lattice vectors                 reciprocal lattice vectors
    35.000000000  0.000000000  0.000000000     0.028571429  0.000000000  0.000000000
     0.000000000 35.000000000  0.000000000     0.000000000  0.028571429  0.000000000
     0.000000000  0.000000000 35.000000000     0.000000000  0.000000000  0.028571429

  length of vectors
    35.000000000 35.000000000 35.000000000     0.028571429  0.028571429  0.028571429


 
 k-points in units of 2pi/SCALE and weight: automatic mesh                          
   0.00000000  0.00000000  0.00000000       1.000
 
 k-points in reciprocal lattice and weights: automatic mesh                          
   0.00000000  0.00000000  0.00000000       1.000
 
 position of ions in fractional coordinates (direct lattice) 
   0.01302455  0.00004043  0.19318624
   0.03790078  0.99988006  0.16406015
   0.02723261  0.99967813  0.12572221
   0.98848837  0.99963772  0.11679605
   0.96225685  0.99980101  0.14665804
   0.97584553  0.99999866  0.18405686
   0.06783954  0.99991573  0.17189738
   0.04858863  0.99955915  0.10340507
   0.97906755  0.99948185  0.08735944
   0.93184399  0.99977674  0.14126559
   0.95606885  0.00012961  0.20786233
 
 position of ions in cartesian coordinates  (Angst):
   0.45585921  0.00141494  6.76151837
   1.32652722 34.99580215  5.74210534
   0.95314149 34.98873438  4.40027727
  34.59709293 34.98732032  4.08786180
  33.67898967 34.99303541  5.13303141
  34.15459347 34.99995306  6.44199026
   2.37438380 34.99705067  6.01640813
   1.70060215 34.98457037  3.61917762
  34.26736425 34.98186484  3.05758035
  32.61453963 34.99218602  4.94429563
  33.46240981  0.00453619  7.27518147
 


--------------------------------------------------------------------------------------------------------


 use parallel FFT for wavefunctions z direction half grid
 k-point  1 :   0.0000 0.0000 0.0000  plane waves: 3115599

 maximum and minimum number of plane-waves per node :    389462   389421

 maximum number of plane-waves:   3115599
 maximum index in each direction: 
   IXMAX=  114   IYMAX=  114   IZMAX=  114
   IXMIN= -114   IYMIN= -114   IZMIN=    0

 NGX is ok and might be reduce to 458
 NGY is ok and might be reduce to 458
 NGZ is ok and might be reduce to 458

 parallel 3D FFT for wavefunctions:
    minimum data exchange during FFTs selected (reduces bandwidth)
 parallel 3D FFT for charge:
    minimum data exchange during FFTs selected (reduces bandwidth)


 FFT grid for exact exchange (Hartree Fock) 
  NGX =350; NGY =350; NGZ =350

 use parallel FFT for wavefunctions z direction half grid
 
 Radii for the augmentation spheres in the non-local exchange
 for species   1 augmentation radius   0.886 (default was   0.709)
       energy cutoff for augmentation   6400.0
 for species   2 augmentation radius   0.874 (default was   0.699)
       energy cutoff for augmentation   6400.0
 for species   3 augmentation radius   0.650 (default was   0.520)
       energy cutoff for augmentation   6400.0

 real space projection operators:
  total allocation   :       1593.07 KBytes
  max/ min on nodes  :        214.80        173.32

 Maximum index for augmentation-charges in exchange          415
  SETUP_FOCK is finished

 total amount of memory used by VASP on root node  4006867. kBytes
========================================================================

   base      :      30000. kBytes
   nonl-proj :     143308. kBytes
   fftplans  :    1395487. kBytes
   grid      :    2325657. kBytes
   one-center:          3. kBytes
   HF        :          9. kBytes
   nonlr-proj:        248. kBytes
   wavefun   :     112155. kBytes
 
     INWAV:  cpu time    0.0000: real time    0.0002
 Broyden mixing: mesh for mixing (old mesh)
   NGX =229   NGY =229   NGZ =229
  (NGX  =960   NGY  =960   NGZ  =960)
  gives a total of ****** points

 initial charge density was supplied:
 charge density of overlapping atoms calculated
 number of electron      30.0000000 magnetization 
 keeping initial charge density in first step


--------------------------------------------------------------------------------------------------------


 Maximum index for augmentation-charges         1098 (set IRDMAX)


--------------------------------------------------------------------------------------------------------


 FEWALD executed in parallel
    FEWALD:  cpu time    0.0002: real time    0.0002


----------------------------------------- Iteration    1(   1)  ---------------------------------------


    POTLOK:  cpu time   14.4688: real time   14.5099
    SETDIJ:  cpu time    0.0540: real time    0.0542
    TRIAL :  cpu time   10.8921: real time   10.9291
    CORREC:  cpu time    0.0002: real time    0.0002
    --------------------------------------------
      LOOP:  cpu time   25.5110: real time   25.5917

 eigenvalue-minimisations  :    56
 total energy-change (2. order) : 0.2489102E+03  (-0.4827389E+03)
 number of electron      30.0000000 magnetization 
 augmentation part       30.0000000 magnetization 

 Free energy of the ion-electron system (eV)
  ---------------------------------------------------
  alpha Z        PSCENC =         0.09544963
  Ewald energy   TEWEN  =      2320.80186955
  -Hartree energ DENC   =     -3030.93539658
  -exchange      EXHF   =         0.00000000
  -V(xc)+E(xc)   XCENC  =         0.00000000
  PAW double counting   =       836.86030494     -837.06446132
  entropy T*S    EENTRO =        -0.00001236
  eigenvalues    EBANDS =       -12.42580984
  atomic energy  EATOM  =       971.57822761
  ---------------------------------------------------
  free energy    TOTEN  =       248.91017163 eV

  energy without entropy =      248.91018399  energy(sigma->0) =      248.91017781
  exchange ACFDT corr.  =         0.00000000  see jH, gK, PRB 81, 115126


--------------------------------------------------------------------------------------------------------




----------------------------------------- Iteration    1(   2)  ---------------------------------------


    TRIAL :  cpu time   15.2495: real time   15.3025
    CORREC:  cpu time    0.0002: real time    0.0002
    --------------------------------------------
      LOOP:  cpu time   15.2516: real time   15.3071

 eigenvalue-minimisations  :    88
 total energy-change (2. order) :-0.5763419E+02  (-0.5692780E+02)
 number of electron      30.0000000 magnetization 
 augmentation part       30.0000000 magnetization 

 Free energy of the ion-electron system (eV)
  ---------------------------------------------------
  alpha Z        PSCENC =         0.09544963
  Ewald energy   TEWEN  =      2320.80186955
  -Hartree energ DENC   =     -3030.93539658
  -exchange      EXHF   =         0.00000000
  -V(xc)+E(xc)   XCENC  =         0.00000000
  PAW double counting   =       836.86030494     -837.06446132
  entropy T*S    EENTRO =        -0.00071827
  eigenvalues    EBANDS =       -70.05929616
  atomic energy  EATOM  =       971.57822761
  ---------------------------------------------------
  free energy    TOTEN  =       191.27597939 eV

  energy without entropy =      191.27669766  energy(sigma->0) =      191.27633853
  exchange ACFDT corr.  =         0.00000000  see jH, gK, PRB 81, 115126


--------------------------------------------------------------------------------------------------------




----------------------------------------- Iteration    1(   3)  ---------------------------------------


    TRIAL :  cpu time   14.1462: real time   14.1945
    CORREC:  cpu time    0.0001: real time    0.0001
    --------------------------------------------
      LOOP:  cpu time   14.1482: real time   14.1989

 eigenvalue-minimisations  :    80
 total energy-change (2. order) :-0.2090432E+02  (-0.2010427E+02)
 number of electron      30.0000000 magnetization 
 augmentation part       30.0000000 magnetization 

 Free energy of the ion-electron system (eV)
  ---------------------------------------------------
  alpha Z        PSCENC =         0.09544963
  Ewald energy   TEWEN  =      2320.80186955
  -Hartree energ DENC   =     -3030.93539658
  -exchange      EXHF   =         0.00000000
  -V(xc)+E(xc)   XCENC  =         0.00000000
  PAW double counting   =       836.86030494     -837.06446132
  entropy T*S    EENTRO =        -0.00000004
  eigenvalues    EBANDS =       -90.96433215
  atomic energy  EATOM  =       971.57822761
  ---------------------------------------------------
  free energy    TOTEN  =       170.37166163 eV

  energy without entropy =      170.37166167  energy(sigma->0) =      170.37166165
  exchange ACFDT corr.  =         0.00000000  see jH, gK, PRB 81, 115126


--------------------------------------------------------------------------------------------------------




----------------------------------------- Iteration    1(   4)  ---------------------------------------


    TRIAL :  cpu time   15.2373: real time   15.2895
    CORREC:  cpu time    0.0002: real time    0.0002
    --------------------------------------------
      LOOP:  cpu time   15.2393: real time   15.2940

 eigenvalue-minimisations  :    88
 total energy-change (2. order) :-0.6253673E+01  (-0.6171986E+01)
 number of electron      30.0000000 magnetization 
 augmentation part       30.0000000 magnetization 

 Free energy of the ion-electron system (eV)
  ---------------------------------------------------
  alpha Z        PSCENC =         0.09544963
  Ewald energy   TEWEN  =      2320.80186955
  -Hartree energ DENC   =     -3030.93539658
  -exchange      EXHF   =         0.00000000
  -V(xc)+E(xc)   XCENC  =         0.00000000
  PAW double counting   =       836.86030494     -837.06446132
  entropy T*S    EENTRO =        -0.01242249
  eigenvalues    EBANDS =       -97.20558246
  atomic energy  EATOM  =       971.57822761
  ---------------------------------------------------
  free energy    TOTEN  =       164.11798887 eV

  energy without entropy =      164.13041137  energy(sigma->0) =      164.12420012
  exchange ACFDT corr.  =         0.00000000  see jH, gK, PRB 81, 115126


--------------------------------------------------------------------------------------------------------




----------------------------------------- Iteration    1(   5)  ---------------------------------------


    TRIAL :  cpu time   14.1514: real time   14.1991
    CORREC:  cpu time    0.0002: real time    0.0002
    CHARGE:  cpu time    2.6147: real time    2.6251
    --------------------------------------------
      LOOP:  cpu time   16.7681: real time   16.8288

 eigenvalue-minimisations  :    80
 total energy-change (2. order) :-0.1073664E+01  (-0.8878578E+00)
 number of electron      30.0000000 magnetization 
 augmentation part       -0.0369929 magnetization 

 Free energy of the ion-electron system (eV)
  ---------------------------------------------------
  alpha Z        PSCENC =         0.09544963
  Ewald energy   TEWEN  =      2320.80186955
  -Hartree energ DENC   =     -3030.93539658
  -exchange      EXHF   =         0.00000000
  -V(xc)+E(xc)   XCENC  =         0.00000000
  PAW double counting   =       836.86030494     -837.06446132
  entropy T*S    EENTRO =        -0.01420650
  eigenvalues    EBANDS =       -98.27746262
  atomic energy  EATOM  =       971.57822761
  ---------------------------------------------------
  free energy    TOTEN  =       163.04432470 eV

  energy without entropy =      163.05853120  energy(sigma->0) =      163.05142795
  exchange ACFDT corr.  =         0.00000000  see jH, gK, PRB 81, 115126


--------------------------------------------------------------------------------------------------------




----------------------------------------- Iteration    1(   6)  ---------------------------------------


    POTLOK:  cpu time   15.6948: real time   15.7375
    SETDIJ:  cpu time    0.0497: real time    0.0501
    TRIAL :  cpu time   43.8071: real time   43.9914
    CORREC:  cpu time   57.2535: real time   57.4742
    CHARGE:  cpu time    2.3386: real time    2.3478
    --------------------------------------------
      LOOP:  cpu time  119.1472: real time  119.6075

 eigenvalue-minimisations  :     0
 total energy-change (2. order) : 0.3190951E+03  (-0.3690206E+03)
 number of electron      30.0000000 magnetization 
 augmentation part       -0.0317637 magnetization 

 Free energy of the ion-electron system (eV)
  ---------------------------------------------------
  alpha Z        PSCENC =         0.09544963
  Ewald energy   TEWEN  =      2320.80186955
  -Hartree energ DENC   =     -1134.75715828
  -exchange      EXHF   =       159.48527684
  -V(xc)+E(xc)   XCENC  =         0.00000000
  PAW double counting   =      2014.48635674    -2014.62503689
  entropy T*S    EENTRO =        -0.00000008
  eigenvalues    EBANDS =     -1834.91136136
  atomic energy  EATOM  =       971.57822761
  ---------------------------------------------------
  free energy    TOTEN  =       482.13941735 eV

  energy without entropy =      482.13941743  energy(sigma->0) =      482.13941739
  exchange ACFDT corr.  =        -0.70353419  see jH, gK, PRB 81, 115126


--------------------------------------------------------------------------------------------------------




----------------------------------------- Iteration    1(   7)  ---------------------------------------


    POTLOK:  cpu time   15.6867: real time   15.7297
    SETDIJ:  cpu time    0.0533: real time    0.0534
    TRIAL :  cpu time   43.5176: real time   43.6994
    CORREC:  cpu time   57.1717: real time   57.3919
    CHARGE:  cpu time    2.3305: real time    2.3403
    --------------------------------------------
      LOOP:  cpu time  118.7635: real time  119.2208

 eigenvalue-minimisations  :     0
 total energy-change (2. order) :-0.9882248E+02  (-0.1248706E+03)
 number of electron      30.0000000 magnetization 
 augmentation part       -0.0023183 magnetization 

 Free energy of the ion-electron system (eV)
  ---------------------------------------------------
  alpha Z        PSCENC =         0.09544963
  Ewald energy   TEWEN  =      2320.80186955
  -Hartree energ DENC   =     -1302.95691063
  -exchange      EXHF   =       176.13574617
  -V(xc)+E(xc)   XCENC  =         0.00000000
  PAW double counting   =      2042.34085025    -2042.50501384
  entropy T*S    EENTRO =        -0.00000000
  eigenvalues    EBANDS =     -1782.17327760
  atomic energy  EATOM  =       971.57822761
  ---------------------------------------------------
  free energy    TOTEN  =       383.31694106 eV

  energy without entropy =      383.31694106  energy(sigma->0) =      383.31694106
  exchange ACFDT corr.  =        -0.00000145  see jH, gK, PRB 81, 115126


--------------------------------------------------------------------------------------------------------




----------------------------------------- Iteration    1(   8)  ---------------------------------------


    POTLOK:  cpu time   16.4119: real time   16.4567
    SETDIJ:  cpu time    0.1800: real time    0.1805
    TRIAL :  cpu time   44.6607: real time   44.8450
    CORREC:  cpu time   58.6064: real time   58.8314
    CHARGE:  cpu time    2.3250: real time    2.3343
    --------------------------------------------
      LOOP:  cpu time  122.2257: real time  122.6920

 eigenvalue-minimisations  :     0
 total energy-change (2. order) :-0.6235756E+02  (-0.1370080E+03)
 number of electron      30.0000000 magnetization 
 augmentation part       -0.0111211 magnetization 

 Free energy of the ion-electron system (eV)
  ---------------------------------------------------
  alpha Z        PSCENC =         0.09544963
  Ewald energy   TEWEN  =      2320.80186955
  -Hartree energ DENC   =     -1441.71189880
  -exchange      EXHF   =       187.28133078
  -V(xc)+E(xc)   XCENC  =         0.00000000
  PAW double counting   =      1952.38198184    -1952.55558567
  entropy T*S    EENTRO =        -0.00000000
  eigenvalues    EBANDS =     -1716.91199509
  atomic energy  EATOM  =       971.57822761
  ---------------------------------------------------
  free energy    TOTEN  =       320.95937985 eV

  energy without entropy =      320.95937985  energy(sigma->0) =      320.95937985
  exchange ACFDT corr.  =         0.00000000  see jH, gK, PRB 81, 115126


--------------------------------------------------------------------------------------------------------




----------------------------------------- Iteration    1(   9)  ---------------------------------------


    POTLOK:  cpu time   16.3900: real time   16.4353
    SETDIJ:  cpu time    0.1801: real time    0.1806
    TRIAL :  cpu time   44.7048: real time   44.8902
    CORREC:  cpu time   58.6885: real time   58.9138
    CHARGE:  cpu time    2.3241: real time    2.3335
    --------------------------------------------
      LOOP:  cpu time  122.3300: real time  122.7984

 eigenvalue-minimisations  :     0
 total energy-change (2. order) : 0.8733058E+01  (-0.1417352E+03)
 number of electron      30.0000000 magnetization 
 augmentation part        0.0110333 magnetization 

 Free energy of the ion-electron system (eV)
  ---------------------------------------------------
  alpha Z        PSCENC =         0.09544963
  Ewald energy   TEWEN  =      2320.80186955
  -Hartree energ DENC   =     -1487.72199493
  -exchange      EXHF   =       188.86429875
  -V(xc)+E(xc)   XCENC  =         0.00000000
  PAW double counting   =      1711.67144299    -1711.81271092
  entropy T*S    EENTRO =        -0.00012519
  eigenvalues    EBANDS =     -1663.78414499
  atomic energy  EATOM  =       971.57822761
  ---------------------------------------------------
  free energy    TOTEN  =       329.69243769 eV

  energy without entropy =      329.69256289  energy(sigma->0) =      329.69250029
  exchange ACFDT corr.  =         0.00000000  see jH, gK, PRB 81, 115126


--------------------------------------------------------------------------------------------------------




----------------------------------------- Iteration    1(  10)  ---------------------------------------


    POTLOK:  cpu time   16.4152: real time   16.4603
    SETDIJ:  cpu time    0.1785: real time    0.1789
    TRIAL :  cpu time   44.7731: real time   44.9602
    CORREC:  cpu time   58.8572: real time   59.0829
    CHARGE:  cpu time    2.3321: real time    2.3413
    --------------------------------------------
      LOOP:  cpu time  122.5956: real time  123.0660

 eigenvalue-minimisations  :     0
 total energy-change (2. order) :-0.1331156E+03  (-0.1136686E+03)
 number of electron      30.0000000 magnetization 
 augmentation part       -0.0143386 magnetization 

 Free energy of the ion-electron system (eV)
  ---------------------------------------------------
  alpha Z        PSCENC =         0.09544963
  Ewald energy   TEWEN  =      2320.80186955
  -Hartree energ DENC   =     -1835.69629083
  -exchange      EXHF   =       193.67701753
  -V(xc)+E(xc)   XCENC  =         0.00000000
  PAW double counting   =      1554.32650698    -1554.42341903
  entropy T*S    EENTRO =        -0.00000000
  eigenvalues    EBANDS =     -1453.78242096
  atomic energy  EATOM  =       971.57822761
  ---------------------------------------------------
  free energy    TOTEN  =       196.57681530 eV

  energy without entropy =      196.57681530  energy(sigma->0) =      196.57681530
  exchange ACFDT corr.  =        -0.00390514  see jH, gK, PRB 81, 115126


--------------------------------------------------------------------------------------------------------




----------------------------------------- Iteration    1(  11)  ---------------------------------------


    POTLOK:  cpu time   16.4709: real time   16.5161
    SETDIJ:  cpu time    0.1821: real time    0.1825
    TRIAL :  cpu time   44.7126: real time   44.9003
    CORREC:  cpu time   59.0222: real time   59.2489
    CHARGE:  cpu time    2.3459: real time    2.3552
    --------------------------------------------
      LOOP:  cpu time  122.7787: real time  123.2509

 eigenvalue-minimisations  :     0
 total energy-change (2. order) :-0.6160564E+01  (-0.1376937E+03)
 number of electron      30.0000000 magnetization 
 augmentation part        0.0846939 magnetization 

 Free energy of the ion-electron system (eV)
  ---------------------------------------------------
  alpha Z        PSCENC =         0.09544963
  Ewald energy   TEWEN  =      2320.80186955
  -Hartree energ DENC   =     -1883.28587253
  -exchange      EXHF   =       192.46952996
  -V(xc)+E(xc)   XCENC  =         0.00000000
  PAW double counting   =      1493.26442354    -1493.33831562
  entropy T*S    EENTRO =        -0.00000000
  eigenvalues    EBANDS =     -1411.16906120
  atomic energy  EATOM  =       971.57822761
  ---------------------------------------------------
  free energy    TOTEN  =       190.41625096 eV

  energy without entropy =      190.41625096  energy(sigma->0) =      190.41625096
  exchange ACFDT corr.  =         0.00000000  see jH, gK, PRB 81, 115126


--------------------------------------------------------------------------------------------------------




----------------------------------------- Iteration    1(  12)  ---------------------------------------


    POTLOK:  cpu time   16.5597: real time   16.6051
    SETDIJ:  cpu time    0.1776: real time    0.1780
    TRIAL :  cpu time   44.6978: real time   44.8854
    CORREC:  cpu time   59.0534: real time   59.2784
    CHARGE:  cpu time    2.3492: real time    2.3587
    --------------------------------------------
      LOOP:  cpu time  122.8804: real time  123.3513

 eigenvalue-minimisations  :     0
 total energy-change (2. order) :-0.1308525E+03  (-0.6498752E+02)
 number of electron      30.0000000 magnetization 
 augmentation part        0.1702732 magnetization 

 Free energy of the ion-electron system (eV)
  ---------------------------------------------------
  alpha Z        PSCENC =         0.09544963
  Ewald energy   TEWEN  =      2320.80186955
  -Hartree energ DENC   =     -2343.14770681
  -exchange      EXHF   =       226.26566948
  -V(xc)+E(xc)   XCENC  =         0.00000000
  PAW double counting   =      1813.26570026    -1813.36378413
  entropy T*S    EENTRO =        -0.00000000
  eigenvalues    EBANDS =     -1115.93171425
  atomic energy  EATOM  =       971.57822761
  ---------------------------------------------------
  free energy    TOTEN  =        59.56371135 eV

  energy without entropy =       59.56371135  energy(sigma->0) =       59.56371135
  exchange ACFDT corr.  =        -0.00000000  see jH, gK, PRB 81, 115126


--------------------------------------------------------------------------------------------------------




----------------------------------------- Iteration    1(  13)  ---------------------------------------


    POTLOK:  cpu time   16.5716: real time   16.6168
    SETDIJ:  cpu time    0.1763: real time    0.1770
    TRIAL :  cpu time   44.7380: real time   44.9231
    CORREC:  cpu time   58.9296: real time   59.1568
    CHARGE:  cpu time    2.3404: real time    2.3497
    --------------------------------------------
      LOOP:  cpu time  122.7948: real time  123.2652

 eigenvalue-minimisations  :     0
 total energy-change (2. order) :-0.6642584E+02  (-0.4295039E+02)
 number of electron      30.0000000 magnetization 
 augmentation part        0.2886606 magnetization 

 Free energy of the ion-electron system (eV)
  ---------------------------------------------------
  alpha Z        PSCENC =         0.09544963
  Ewald energy   TEWEN  =      2320.80186955
  -Hartree energ DENC   =     -2723.71252473
  -exchange      EXHF   =       255.87789429
  -V(xc)+E(xc)   XCENC  =         0.00000000
  PAW double counting   =      2141.63948072    -2141.73214695
  entropy T*S    EENTRO =        -0.00000000
  eigenvalues    EBANDS =      -831.41037837
  atomic energy  EATOM  =       971.57822761
  ---------------------------------------------------
  free energy    TOTEN  =        -6.86212826 eV

  energy without entropy =       -6.86212826  energy(sigma->0) =       -6.86212826
  exchange ACFDT corr.  =         0.00000000  see jH, gK, PRB 81, 115126


--------------------------------------------------------------------------------------------------------




----------------------------------------- Iteration    1(  14)  ---------------------------------------


    POTLOK:  cpu time   16.5285: real time   16.5738
    SETDIJ:  cpu time    0.1765: real time    0.1769
    TRIAL :  cpu time   44.4903: real time   44.6757
    CORREC:  cpu time   59.0617: real time   59.2896
    CHARGE:  cpu time    2.3406: real time    2.3501
    --------------------------------------------
      LOOP:  cpu time  122.6397: real time  123.1112

 eigenvalue-minimisations  :     0
 total energy-change (2. order) :-0.4629395E+02  (-0.2891889E+02)
 number of electron      30.0000000 magnetization 
 augmentation part        0.4325784 magnetization 

 Free energy of the ion-electron system (eV)
  ---------------------------------------------------
  alpha Z        PSCENC =         0.09544963
  Ewald energy   TEWEN  =      2320.80186955
  -Hartree energ DENC   =     -2916.42803882
  -exchange      EXHF   =       277.96258841
  -V(xc)+E(xc)   XCENC  =         0.00000000
  PAW double counting   =      2481.48084683    -2481.57131011
  entropy T*S    EENTRO =        -0.00000000
  eigenvalues    EBANDS =      -707.07570862
  atomic energy  EATOM  =       971.57822761
  ---------------------------------------------------
  free energy    TOTEN  =       -53.15607551 eV

  energy without entropy =      -53.15607551  energy(sigma->0) =      -53.15607551
  exchange ACFDT corr.  =         0.00000000  see jH, gK, PRB 81, 115126


--------------------------------------------------------------------------------------------------------




----------------------------------------- Iteration    1(  15)  ---------------------------------------


    POTLOK:  cpu time   16.5382: real time   16.5833
    SETDIJ:  cpu time    0.1763: real time    0.1767
    TRIAL :  cpu time   44.4211: real time   44.6068
    CORREC:  cpu time   59.0651: real time   59.2911
    CHARGE:  cpu time    2.3429: real time    2.3521
    --------------------------------------------
      LOOP:  cpu time  122.5820: real time  123.0514

 eigenvalue-minimisations  :     0
 total energy-change (2. order) :-0.3184925E+02  (-0.2476442E+02)
 number of electron      30.0000000 magnetization 
 augmentation part        0.6592971 magnetization 

 Free energy of the ion-electron system (eV)
  ---------------------------------------------------
  alpha Z        PSCENC =         0.09544963
  Ewald energy   TEWEN  =      2320.80186955
  -Hartree energ DENC   =     -3000.30233001
  -exchange      EXHF   =       293.29531976
  -V(xc)+E(xc)   XCENC  =         0.00000000
  PAW double counting   =      2783.76066889    -2783.86132381
  entropy T*S    EENTRO =        -0.00000000
  eigenvalues    EBANDS =      -670.37320875
  atomic energy  EATOM  =       971.57822761
  ---------------------------------------------------
  free energy    TOTEN  =       -85.00532713 eV

  energy without entropy =      -85.00532713  energy(sigma->0) =      -85.00532713
  exchange ACFDT corr.  =         0.00000000  see jH, gK, PRB 81, 115126


--------------------------------------------------------------------------------------------------------




----------------------------------------- Iteration    1(  16)  ---------------------------------------


    POTLOK:  cpu time   16.5528: real time   16.5982
    SETDIJ:  cpu time    0.1781: real time    0.1786
    TRIAL :  cpu time   44.5369: real time   44.7240
    CORREC:  cpu time   59.0029: real time   59.2305
    CHARGE:  cpu time    2.3494: real time    2.3591
    --------------------------------------------
      LOOP:  cpu time  122.6590: real time  123.1316

 eigenvalue-minimisations  :     0
 total energy-change (2. order) :-0.2307915E+02  (-0.8347998E+01)
 number of electron      30.0000000 magnetization 
 augmentation part        0.7423500 magnetization 

 Free energy of the ion-electron system (eV)
  ---------------------------------------------------
  alpha Z        PSCENC =         0.09544963
  Ewald energy   TEWEN  =      2320.80186955
  -Hartree energ DENC   =     -3112.39723680
  -exchange      EXHF   =       312.41666093
  -V(xc)+E(xc)   XCENC  =         0.00000000
  PAW double counting   =      3163.08349563    -3163.23093880
  entropy T*S    EENTRO =        -0.00000000
  eigenvalues    EBANDS =      -600.43200463
  atomic energy  EATOM  =       971.57822761
  ---------------------------------------------------
  free energy    TOTEN  =      -108.08447687 eV

  energy without entropy =     -108.08447687  energy(sigma->0) =     -108.08447687
  exchange ACFDT corr.  =         0.00000000  see jH, gK, PRB 81, 115126


--------------------------------------------------------------------------------------------------------




----------------------------------------- Iteration    1(  17)  ---------------------------------------


    POTLOK:  cpu time   16.5314: real time   16.5768
    SETDIJ:  cpu time    0.1773: real time    0.1777
    TRIAL :  cpu time   44.6699: real time   44.8549
    CORREC:  cpu time   58.8191: real time   59.0459
    CHARGE:  cpu time    2.3466: real time    2.3559
    --------------------------------------------
      LOOP:  cpu time  122.5859: real time  123.0556

 eigenvalue-minimisations  :     0
 total energy-change (2. order) :-0.8803780E+01  (-0.4354648E+01)
 number of electron      30.0000000 magnetization 
 augmentation part        0.7490300 magnetization 

 Free energy of the ion-electron system (eV)
  ---------------------------------------------------
  alpha Z        PSCENC =         0.09544963
  Ewald energy   TEWEN  =      2320.80186955
  -Hartree energ DENC   =     -3154.09271351
  -exchange      EXHF   =       318.65271236
  -V(xc)+E(xc)   XCENC  =         0.00000000
  PAW double counting   =      3344.44289912    -3344.63332912
  entropy T*S    EENTRO =        -0.00000000
  eigenvalues    EBANDS =      -573.73337262
  atomic energy  EATOM  =       971.57822761
  ---------------------------------------------------
  free energy    TOTEN  =      -116.88825699 eV

  energy without entropy =     -116.88825699  energy(sigma->0) =     -116.88825699
  exchange ACFDT corr.  =         0.00000000  see jH, gK, PRB 81, 115126


--------------------------------------------------------------------------------------------------------




----------------------------------------- Iteration    1(  18)  ---------------------------------------


    POTLOK:  cpu time   16.5615: real time   16.6066
    SETDIJ:  cpu time    0.1806: real time    0.1811
    TRIAL :  cpu time   44.5470: real time   44.7314
    CORREC:  cpu time   58.7095: real time   58.9351
    CHARGE:  cpu time    2.3512: real time    2.3605
    --------------------------------------------
      LOOP:  cpu time  122.3943: real time  122.8624

 eigenvalue-minimisations  :     0
 total energy-change (2. order) :-0.4461808E+01  (-0.1766392E+01)
 number of electron      30.0000000 magnetization 
 augmentation part        0.7447285 magnetization 

 Free energy of the ion-electron system (eV)
  ---------------------------------------------------
  alpha Z        PSCENC =         0.09544963
  Ewald energy   TEWEN  =      2320.80186955
  -Hartree energ DENC   =     -3150.38543294
  -exchange      EXHF   =       318.32057554
  -V(xc)+E(xc)   XCENC  =         0.00000000
  PAW double counting   =      3440.51385986    -3440.72777360
  entropy T*S    EENTRO =        -0.00000000
  eigenvalues    EBANDS =      -581.54684097
  atomic energy  EATOM  =       971.57822761
  ---------------------------------------------------
  free energy    TOTEN  =      -121.35006531 eV

  energy without entropy =     -121.35006531  energy(sigma->0) =     -121.35006531
  exchange ACFDT corr.  =         0.00000000  see jH, gK, PRB 81, 115126


--------------------------------------------------------------------------------------------------------




----------------------------------------- Iteration    1(  19)  ---------------------------------------


    POTLOK:  cpu time   16.5480: real time   16.5934
    SETDIJ:  cpu time    0.1798: real time    0.1802
    TRIAL :  cpu time   44.4829: real time   44.6674
    CORREC:  cpu time   58.9681: real time   59.1937
    CHARGE:  cpu time    2.3514: real time    2.3608
    --------------------------------------------
      LOOP:  cpu time  122.5700: real time  123.0380

 eigenvalue-minimisations  :     0
 total energy-change (2. order) :-0.1802324E+01  (-0.7953007E+00)
 number of electron      30.0000000 magnetization 
 augmentation part        0.7496280 magnetization 

 Free energy of the ion-electron system (eV)
  ---------------------------------------------------
  alpha Z        PSCENC =         0.09544963
  Ewald energy   TEWEN  =      2320.80186955
  -Hartree energ DENC   =     -3149.25839194
  -exchange      EXHF   =       317.91237638
  -V(xc)+E(xc)   XCENC  =         0.00000000
  PAW double counting   =      3493.29373564    -3493.51931956
  entropy T*S    EENTRO =        -0.00000000
  eigenvalues    EBANDS =      -584.05633711
  atomic energy  EATOM  =       971.57822761
  ---------------------------------------------------
  free energy    TOTEN  =      -123.15238980 eV

  energy without entropy =     -123.15238980  energy(sigma->0) =     -123.15238980
  exchange ACFDT corr.  =         0.00000000  see jH, gK, PRB 81, 115126


--------------------------------------------------------------------------------------------------------




----------------------------------------- Iteration    1(  20)  ---------------------------------------


    POTLOK:  cpu time   16.5411: real time   16.5865
    SETDIJ:  cpu time    0.1799: real time    0.1804
    TRIAL :  cpu time   44.4452: real time   44.6309
    CORREC:  cpu time   58.9798: real time   59.2045
    CHARGE:  cpu time    2.3443: real time    2.3536
    --------------------------------------------
      LOOP:  cpu time  122.5295: real time  122.9979

 eigenvalue-minimisations  :     0
 total energy-change (2. order) :-0.8150394E+00  (-0.3695866E+00)
 number of electron      30.0000000 magnetization 
 augmentation part        0.7527079 magnetization 

 Free energy of the ion-electron system (eV)
  ---------------------------------------------------
  alpha Z        PSCENC =         0.09544963
  Ewald energy   TEWEN  =      2320.80186955
  -Hartree energ DENC   =     -3158.88878548
  -exchange      EXHF   =       318.84359701
  -V(xc)+E(xc)   XCENC  =         0.00000000
  PAW double counting   =      3530.32733839    -3530.56110070
  entropy T*S    EENTRO =        -0.00000000
  eigenvalues    EBANDS =      -576.16402521
  atomic energy  EATOM  =       971.57822761
  ---------------------------------------------------
  free energy    TOTEN  =      -123.96742921 eV

  energy without entropy =     -123.96742921  energy(sigma->0) =     -123.96742921
  exchange ACFDT corr.  =         0.00000000  see jH, gK, PRB 81, 115126


--------------------------------------------------------------------------------------------------------




----------------------------------------- Iteration    1(  21)  ---------------------------------------


    POTLOK:  cpu time   16.5264: real time   16.5717
    SETDIJ:  cpu time    0.1804: real time    0.1808
    TRIAL :  cpu time   44.5556: real time   44.7404
    CORREC:  cpu time   58.8767: real time   59.1032
    CHARGE:  cpu time    2.3455: real time    2.3547
    --------------------------------------------
      LOOP:  cpu time  122.5268: real time  122.9961

 eigenvalue-minimisations  :     0
 total energy-change (2. order) :-0.3782801E+00  (-0.1537831E+00)
 number of electron      30.0000000 magnetization 
 augmentation part        0.7515831 magnetization 

 Free energy of the ion-electron system (eV)
  ---------------------------------------------------
  alpha Z        PSCENC =         0.09544963
  Ewald energy   TEWEN  =      2320.80186955
  -Hartree energ DENC   =     -3164.28522438
  -exchange      EXHF   =       319.44619453
  -V(xc)+E(xc)   XCENC  =         0.00000000
  PAW double counting   =      3555.33918089    -3555.57704199
  entropy T*S    EENTRO =        -0.00000000
  eigenvalues    EBANDS =      -571.74436512
  atomic energy  EATOM  =       971.57822761
  ---------------------------------------------------
  free energy    TOTEN  =      -124.34570926 eV

  energy without entropy =     -124.34570926  energy(sigma->0) =     -124.34570926
  exchange ACFDT corr.  =         0.00000000  see jH, gK, PRB 81, 115126


--------------------------------------------------------------------------------------------------------




----------------------------------------- Iteration    1(  22)  ---------------------------------------


    POTLOK:  cpu time   16.5277: real time   16.5730
    SETDIJ:  cpu time    0.1795: real time    0.1800
    TRIAL :  cpu time   44.4941: real time   44.6803
    CORREC:  cpu time   58.8710: real time   59.0967
    CHARGE:  cpu time    2.3505: real time    2.3597
    --------------------------------------------
      LOOP:  cpu time  122.4640: real time  122.9336

 eigenvalue-minimisations  :     0
 total energy-change (2. order) :-0.1553023E+00  (-0.5775915E-01)
 number of electron      30.0000000 magnetization 
 augmentation part        0.7500116 magnetization 

 Free energy of the ion-electron system (eV)
  ---------------------------------------------------
  alpha Z        PSCENC =         0.09544963
  Ewald energy   TEWEN  =      2320.80186955
  -Hartree energ DENC   =     -3164.01122690
  -exchange      EXHF   =       319.46701478
  -V(xc)+E(xc)   XCENC  =         0.00000000
  PAW double counting   =      3570.39405324    -3570.63208959
  entropy T*S    EENTRO =        -0.00000000
  eigenvalues    EBANDS =      -572.19430984
  atomic energy  EATOM  =       971.57822761
  ---------------------------------------------------
  free energy    TOTEN  =      -124.50101152 eV

  energy without entropy =     -124.50101152  energy(sigma->0) =     -124.50101152
  exchange ACFDT corr.  =         0.00000000  see jH, gK, PRB 81, 115126


--------------------------------------------------------------------------------------------------------




----------------------------------------- Iteration    1(  23)  ---------------------------------------


    POTLOK:  cpu time   16.5290: real time   16.5743
    SETDIJ:  cpu time    0.1816: real time    0.1820
    TRIAL :  cpu time   44.4135: real time   44.6005
    CORREC:  cpu time   58.8390: real time   59.0649
    CHARGE:  cpu time    2.3475: real time    2.3569
    --------------------------------------------
      LOOP:  cpu time  122.3539: real time  122.8246

 eigenvalue-minimisations  :     0
 total energy-change (2. order) :-0.5799781E-01  (-0.2070538E-01)
 number of electron      30.0000000 magnetization 
 augmentation part        0.7490382 magnetization 

 Free energy of the ion-electron system (eV)
  ---------------------------------------------------
  alpha Z        PSCENC =         0.09544963
  Ewald energy   TEWEN  =      2320.80186955
  -Hartree energ DENC   =     -3163.44017686
  -exchange      EXHF   =       319.45063064
  -V(xc)+E(xc)   XCENC  =         0.00000000
  PAW double counting   =      3576.70635756    -3576.94231421
  entropy T*S    EENTRO =        -0.00000000
  eigenvalues    EBANDS =      -572.80905327
  atomic energy  EATOM  =       971.57822761
  ---------------------------------------------------
  free energy    TOTEN  =      -124.55900934 eV

  energy without entropy =     -124.55900934  energy(sigma->0) =     -124.55900934
  exchange ACFDT corr.  =        -0.00000000  see jH, gK, PRB 81, 115126


--------------------------------------------------------------------------------------------------------




----------------------------------------- Iteration    1(  24)  ---------------------------------------


    POTLOK:  cpu time   16.5388: real time   16.5842
    SETDIJ:  cpu time    0.1792: real time    0.1796
    TRIAL :  cpu time   44.4522: real time   44.6352
    CORREC:  cpu time   58.8965: real time   59.1229
    CHARGE:  cpu time    2.3428: real time    2.3522
    --------------------------------------------
      LOOP:  cpu time  122.4490: real time  122.9164

 eigenvalue-minimisations  :     0
 total energy-change (2. order) :-0.2073104E-01  (-0.8297308E-02)
 number of electron      30.0000000 magnetization 
 augmentation part        0.7482844 magnetization 

 Free energy of the ion-electron system (eV)
  ---------------------------------------------------
  alpha Z        PSCENC =         0.09544963
  Ewald energy   TEWEN  =      2320.80186955
  -Hartree energ DENC   =     -3163.79834593
  -exchange      EXHF   =       319.51759347
  -V(xc)+E(xc)   XCENC  =         0.00000000
  PAW double counting   =      3576.40325697    -3576.63716017
  entropy T*S    EENTRO =        -0.00000000
  eigenvalues    EBANDS =      -572.54063151
  atomic energy  EATOM  =       971.57822761
  ---------------------------------------------------
  free energy    TOTEN  =      -124.57974038 eV

  energy without entropy =     -124.57974038  energy(sigma->0) =     -124.57974038
  exchange ACFDT corr.  =         0.00000000  see jH, gK, PRB 81, 115126


--------------------------------------------------------------------------------------------------------




----------------------------------------- Iteration    1(  25)  ---------------------------------------


    POTLOK:  cpu time   16.5272: real time   16.5726
    SETDIJ:  cpu time    0.1793: real time    0.1797
    TRIAL :  cpu time   44.4778: real time   44.6638
    CORREC:  cpu time   59.3367: real time   59.5638
    CHARGE:  cpu time    2.3371: real time    2.3463
    --------------------------------------------
      LOOP:  cpu time  122.8993: real time  123.3706

 eigenvalue-minimisations  :     0
 total energy-change (2. order) :-0.8297578E-02  (-0.3693479E-02)
 number of electron      30.0000000 magnetization 
 augmentation part        0.7478348 magnetization 

 Free energy of the ion-electron system (eV)
  ---------------------------------------------------
  alpha Z        PSCENC =         0.09544963
  Ewald energy   TEWEN  =      2320.80186955
  -Hartree energ DENC   =     -3163.90523034
  -exchange      EXHF   =       319.54419280
  -V(xc)+E(xc)   XCENC  =         0.00000000
  PAW double counting   =      3572.45331101    -3572.68581213
  entropy T*S    EENTRO =        -0.00000000
  eigenvalues    EBANDS =      -572.47004610
  atomic energy  EATOM  =       971.57822761
  ---------------------------------------------------
  free energy    TOTEN  =      -124.58803796 eV

  energy without entropy =     -124.58803796  energy(sigma->0) =     -124.58803796
  exchange ACFDT corr.  =         0.00000000  see jH, gK, PRB 81, 115126


--------------------------------------------------------------------------------------------------------




----------------------------------------- Iteration    1(  26)  ---------------------------------------


    POTLOK:  cpu time   16.6110: real time   16.6565
    SETDIJ:  cpu time    0.1792: real time    0.1796
    TRIAL :  cpu time   44.6024: real time   44.7877
    CORREC:  cpu time   59.1556: real time   59.3824
    CHARGE:  cpu time    2.3418: real time    2.3513
    --------------------------------------------
      LOOP:  cpu time  122.9203: real time  123.3908

 eigenvalue-minimisations  :     0
 total energy-change (2. order) :-0.3690276E-02  (-0.1888454E-02)
 number of electron      30.0000000 magnetization 
 augmentation part        0.7477768 magnetization 

 Free energy of the ion-electron system (eV)
  ---------------------------------------------------
  alpha Z        PSCENC =         0.09544963
  Ewald energy   TEWEN  =      2320.80186955
  -Hartree energ DENC   =     -3163.79319781
  -exchange      EXHF   =       319.53328879
  -V(xc)+E(xc)   XCENC  =         0.00000000
  PAW double counting   =      3567.63932565    -3567.87097760
  entropy T*S    EENTRO =        -0.00000000
  eigenvalues    EBANDS =      -572.57571405
  atomic energy  EATOM  =       971.57822761
  ---------------------------------------------------
  free energy    TOTEN  =      -124.59172824 eV

  energy without entropy =     -124.59172824  energy(sigma->0) =     -124.59172824
  exchange ACFDT corr.  =         0.00000000  see jH, gK, PRB 81, 115126


--------------------------------------------------------------------------------------------------------




----------------------------------------- Iteration    1(  27)  ---------------------------------------


    POTLOK:  cpu time   16.6110: real time   16.6562
    SETDIJ:  cpu time    0.1809: real time    0.1813
    TRIAL :  cpu time   44.5806: real time   44.7658
    CORREC:  cpu time   59.0300: real time   59.2573
    CHARGE:  cpu time    2.3392: real time    2.3485
    --------------------------------------------
      LOOP:  cpu time  122.7712: real time  123.2414

 eigenvalue-minimisations  :     0
 total energy-change (2. order) :-0.1888237E-02  (-0.9604279E-03)
 number of electron      30.0000000 magnetization 
 augmentation part        0.7477799 magnetization 

 Free energy of the ion-electron system (eV)
  ---------------------------------------------------
  alpha Z        PSCENC =         0.09544963
  Ewald energy   TEWEN  =      2320.80186955
  -Hartree energ DENC   =     -3163.88029771
  -exchange      EXHF   =       319.54006755
  -V(xc)+E(xc)   XCENC  =         0.00000000
  PAW double counting   =      3563.76347461    -3563.99461401
  entropy T*S    EENTRO =        -0.00000000
  eigenvalues    EBANDS =      -572.49779369
  atomic energy  EATOM  =       971.57822761
  ---------------------------------------------------
  free energy    TOTEN  =      -124.59361647 eV

  energy without entropy =     -124.59361647  energy(sigma->0) =     -124.59361647
  exchange ACFDT corr.  =         0.00000000  see jH, gK, PRB 81, 115126


--------------------------------------------------------------------------------------------------------




----------------------------------------- Iteration    1(  28)  ---------------------------------------


    POTLOK:  cpu time   16.5919: real time   16.6373
    SETDIJ:  cpu time    0.1791: real time    0.1795
    TRIAL :  cpu time   44.6644: real time   44.8496
    CORREC:  cpu time   58.9948: real time   59.2201
    CHARGE:  cpu time    2.3319: real time    2.3414
    --------------------------------------------
      LOOP:  cpu time  122.7904: real time  123.2591

 eigenvalue-minimisations  :     0
 total energy-change (2. order) :-0.9600698E-03  (-0.5037912E-03)
 number of electron      30.0000000 magnetization 
 augmentation part        0.7476771 magnetization 

 Free energy of the ion-electron system (eV)
  ---------------------------------------------------
  alpha Z        PSCENC =         0.09544963
  Ewald energy   TEWEN  =      2320.80186955
  -Hartree energ DENC   =     -3163.94960718
  -exchange      EXHF   =       319.54622720
  -V(xc)+E(xc)   XCENC  =         0.00000000
  PAW double counting   =      3561.41466668    -3561.64558079
  entropy T*S    EENTRO =        -0.00000000
  eigenvalues    EBANDS =      -572.43582925
  atomic energy  EATOM  =       971.57822761
  ---------------------------------------------------
  free energy    TOTEN  =      -124.59457654 eV

  energy without entropy =     -124.59457654  energy(sigma->0) =     -124.59457654
  exchange ACFDT corr.  =         0.00000000  see jH, gK, PRB 81, 115126


--------------------------------------------------------------------------------------------------------




----------------------------------------- Iteration    1(  29)  ---------------------------------------


    POTLOK:  cpu time   16.5527: real time   16.5981
    SETDIJ:  cpu time    0.1789: real time    0.1794
    TRIAL :  cpu time   44.5834: real time   44.7685
    CORREC:  cpu time   58.8399: real time   59.0659
    CHARGE:  cpu time    2.3363: real time    2.3456
    --------------------------------------------
      LOOP:  cpu time  122.5173: real time  122.9865

 eigenvalue-minimisations  :     0
 total energy-change (2. order) :-0.5037280E-03  (-0.2846733E-03)
 number of electron      30.0000000 magnetization 
 augmentation part        0.7475585 magnetization 

 Free energy of the ion-electron system (eV)
  ---------------------------------------------------
  alpha Z        PSCENC =         0.09544963
  Ewald energy   TEWEN  =      2320.80186955
  -Hartree energ DENC   =     -3163.89192208
  -exchange      EXHF   =       319.54070072
  -V(xc)+E(xc)   XCENC  =         0.00000000
  PAW double counting   =      3560.29068706    -3560.52151117
  entropy T*S    EENTRO =        -0.00000000
  eigenvalues    EBANDS =      -572.48858159
  atomic energy  EATOM  =       971.57822761
  ---------------------------------------------------
  free energy    TOTEN  =      -124.59508027 eV

  energy without entropy =     -124.59508027  energy(sigma->0) =     -124.59508027
  exchange ACFDT corr.  =         0.00000000  see jH, gK, PRB 81, 115126


--------------------------------------------------------------------------------------------------------




----------------------------------------- Iteration    1(  30)  ---------------------------------------


    POTLOK:  cpu time   16.4892: real time   16.5344
    SETDIJ:  cpu time    0.1784: real time    0.1788
    TRIAL :  cpu time   44.6800: real time   44.8669
    CORREC:  cpu time   58.7989: real time   59.0243
    CHARGE:  cpu time    2.3392: real time    2.3485
    --------------------------------------------
      LOOP:  cpu time  122.5130: real time  122.9830

 eigenvalue-minimisations  :     0
 total energy-change (2. order) :-0.2848775E-03  (-0.1677544E-03)
 number of electron      30.0000000 magnetization 
 augmentation part        0.7475003 magnetization 

 Free energy of the ion-electron system (eV)
  ---------------------------------------------------
  alpha Z        PSCENC =         0.09544963
  Ewald energy   TEWEN  =      2320.80186955
  -Hartree energ DENC   =     -3163.84091580
  -exchange      EXHF   =       319.53629895
  -V(xc)+E(xc)   XCENC  =         0.00000000
  PAW double counting   =      3560.04809993    -3560.27885298
  entropy T*S    EENTRO =        -0.00000000
  eigenvalues    EBANDS =      -572.53554204
  atomic energy  EATOM  =       971.57822761
  ---------------------------------------------------
  free energy    TOTEN  =      -124.59536515 eV

  energy without entropy =     -124.59536515  energy(sigma->0) =     -124.59536515
  exchange ACFDT corr.  =         0.00000000  see jH, gK, PRB 81, 115126


--------------------------------------------------------------------------------------------------------




----------------------------------------- Iteration    1(  31)  ---------------------------------------


    POTLOK:  cpu time   16.4113: real time   16.4563
    SETDIJ:  cpu time    0.1766: real time    0.1770
    TRIAL :  cpu time   44.7779: real time   44.9651
    CORREC:  cpu time   58.5946: real time   58.8186
    CHARGE:  cpu time    2.3473: real time    2.3566
    --------------------------------------------
      LOOP:  cpu time  122.3363: real time  122.8048

 eigenvalue-minimisations  :     0
 total energy-change (2. order) :-0.1678311E-03  (-0.9450626E-04)
 number of electron      30.0000000 magnetization 
 augmentation part        0.7474692 magnetization 

 Free energy of the ion-electron system (eV)
  ---------------------------------------------------
  alpha Z        PSCENC =         0.09544963
  Ewald energy   TEWEN  =      2320.80186955
  -Hartree energ DENC   =     -3163.86903721
  -exchange      EXHF   =       319.53997558
  -V(xc)+E(xc)   XCENC  =         0.00000000
  PAW double counting   =      3560.41961615    -3560.65029340
  entropy T*S    EENTRO =        -0.00000000
  eigenvalues    EBANDS =      -572.51134091
  atomic energy  EATOM  =       971.57822761
  ---------------------------------------------------
  free energy    TOTEN  =      -124.59553298 eV

  energy without entropy =     -124.59553298  energy(sigma->0) =     -124.59553298
  exchange ACFDT corr.  =        -0.00000000  see jH, gK, PRB 81, 115126


--------------------------------------------------------------------------------------------------------




----------------------------------------- Iteration    1(  32)  ---------------------------------------


    POTLOK:  cpu time   16.1747: real time   16.2188
    SETDIJ:  cpu time    0.1778: real time    0.1782
    TRIAL :  cpu time   44.9149: real time   45.1025
    CORREC:  cpu time   58.1035: real time   58.3276
    CHARGE:  cpu time    2.3469: real time    2.3563
    --------------------------------------------
      LOOP:  cpu time  121.7436: real time  122.2115

 eigenvalue-minimisations  :     0
 total energy-change (2. order) :-0.9454574E-04  (-0.5199154E-04)
 number of electron      30.0000000 magnetization 
 augmentation part        0.7474462 magnetization 

 Free energy of the ion-electron system (eV)
  ---------------------------------------------------
  alpha Z        PSCENC =         0.09544963
  Ewald energy   TEWEN  =      2320.80186955
  -Hartree energ DENC   =     -3163.89415161
  -exchange      EXHF   =       319.54343124
  -V(xc)+E(xc)   XCENC  =         0.00000000
  PAW double counting   =      3561.01817716    -3561.24879639
  entropy T*S    EENTRO =        -0.00000000
  eigenvalues    EBANDS =      -572.48983471
  atomic energy  EATOM  =       971.57822761
  ---------------------------------------------------
  free energy    TOTEN  =      -124.59562753 eV

  energy without entropy =     -124.59562753  energy(sigma->0) =     -124.59562753
  exchange ACFDT corr.  =         0.00000000  see jH, gK, PRB 81, 115126


--------------------------------------------------------------------------------------------------------




----------------------------------------- Iteration    1(  33)  ---------------------------------------


    POTLOK:  cpu time   15.8024: real time   15.8456
    SETDIJ:  cpu time    0.1774: real time    0.1778
    TRIAL :  cpu time   44.9721: real time   45.1596
    CORREC:  cpu time   57.9209: real time   58.1440
    CHARGE:  cpu time    2.3350: real time    2.3445
    --------------------------------------------
      LOOP:  cpu time  121.2383: real time  121.7048

 eigenvalue-minimisations  :     0
 total energy-change (2. order) :-0.5198113E-04  (-0.3034336E-04)
 number of electron      30.0000000 magnetization 
 augmentation part        0.7474391 magnetization 

 Free energy of the ion-electron system (eV)
  ---------------------------------------------------
  alpha Z        PSCENC =         0.09544963
  Ewald energy   TEWEN  =      2320.80186955
  -Hartree energ DENC   =     -3163.88937021
  -exchange      EXHF   =       319.54428635
  -V(xc)+E(xc)   XCENC  =         0.00000000
  PAW double counting   =      3561.58014426    -3561.81073558
  entropy T*S    EENTRO =        -0.00000000
  eigenvalues    EBANDS =      -572.49555111
  atomic energy  EATOM  =       971.57822761
  ---------------------------------------------------
  free energy    TOTEN  =      -124.59567951 eV

  energy without entropy =     -124.59567951  energy(sigma->0) =     -124.59567951
  exchange ACFDT corr.  =         0.00000000  see jH, gK, PRB 81, 115126


--------------------------------------------------------------------------------------------------------




----------------------------------------- Iteration    1(  34)  ---------------------------------------


    POTLOK:  cpu time   15.6960: real time   15.7390
    SETDIJ:  cpu time    0.1786: real time    0.1790
    TRIAL :  cpu time   44.9746: real time   45.1612
    CORREC:  cpu time   57.9149: real time   58.1378
    CHARGE:  cpu time    2.3448: real time    2.3539
    --------------------------------------------
[...]
    TRIAL :  cpu time   44.6293: real time   44.8159
    CORREC:  cpu time   57.5843: real time   57.8072
    CHARGE:  cpu time    2.3343: real time    2.3439
    --------------------------------------------
      LOOP:  cpu time  119.9907: real time  120.4542

 eigenvalue-minimisations  :     0
 total energy-change (2. order) :-0.7391964E-06  (-0.3607341E-06)
 number of electron      30.0000000 magnetization 
 augmentation part        0.7474730 magnetization 

 Free energy of the ion-electron system (eV)
  ---------------------------------------------------
  alpha Z        PSCENC =         0.09544963
  Ewald energy   TEWEN  =      2320.80186955
  -Hartree energ DENC   =     -3163.88846907
  -exchange      EXHF   =       319.54610934
  -V(xc)+E(xc)   XCENC  =         0.00000000
  PAW double counting   =      3561.85592437    -3562.08655956
  entropy T*S    EENTRO =        -0.00000000
  eigenvalues    EBANDS =      -572.49831062
  atomic energy  EATOM  =       971.57822761
  ---------------------------------------------------
  free energy    TOTEN  =      -124.59575875 eV

  energy without entropy =     -124.59575875  energy(sigma->0) =     -124.59575875
  exchange ACFDT corr.  =         0.00000000  see jH, gK, PRB 81, 115126


--------------------------------------------------------------------------------------------------------




----------------------------------------- Iteration    1(  42)  ---------------------------------------


    POTLOK:  cpu time   15.2348: real time   15.2764
    SETDIJ:  cpu time    0.1783: real time    0.1787
    TRIAL :  cpu time   44.5252: real time   44.7119
    CORREC:  cpu time   57.6433: real time   57.8665
    CHARGE:  cpu time    2.3375: real time    2.3468
    --------------------------------------------
      LOOP:  cpu time  119.9476: real time  120.4113

 eigenvalue-minimisations  :     0
 total energy-change (2. order) :-0.3603982E-06  (-0.1903142E-06)
 number of electron      30.0000000 magnetization 
 augmentation part        0.7474728 magnetization 

 Free energy of the ion-electron system (eV)
  ---------------------------------------------------
  alpha Z        PSCENC =         0.09544963
  Ewald energy   TEWEN  =      2320.80186955
  -Hartree energ DENC   =     -3163.88832104
  -exchange      EXHF   =       319.54608753
  -V(xc)+E(xc)   XCENC  =         0.00000000
  PAW double counting   =      3561.85264441    -3562.08328101
  entropy T*S    EENTRO =        -0.00000000
  eigenvalues    EBANDS =      -572.49843578
  atomic energy  EATOM  =       971.57822761
  ---------------------------------------------------
  free energy    TOTEN  =      -124.59575911 eV

  energy without entropy =     -124.59575911  energy(sigma->0) =     -124.59575911
  exchange ACFDT corr.  =         0.00000000  see jH, gK, PRB 81, 115126


--------------------------------------------------------------------------------------------------------




----------------------------------------- Iteration    1(  43)  ---------------------------------------


    POTLOK:  cpu time   15.2217: real time   15.2633
    SETDIJ:  cpu time    0.1789: real time    0.1796
    TRIAL :  cpu time   44.8510: real time   45.0372
    CORREC:  cpu time   57.7386: real time   57.9616
    CHARGE:  cpu time    2.3351: real time    2.3444
    --------------------------------------------
      LOOP:  cpu time  120.3509: real time  120.8142

 eigenvalue-minimisations  :     0
 total energy-change (2. order) :-0.1900742E-06  (-0.9412847E-07)
 number of electron      30.0000000 magnetization 
 augmentation part        0.7474733 magnetization 

 Free energy of the ion-electron system (eV)
  ---------------------------------------------------
  alpha Z        PSCENC =         0.09544963
  Ewald energy   TEWEN  =      2320.80186955
  -Hartree energ DENC   =     -3163.88885482
  -exchange      EXHF   =       319.54612749
  -V(xc)+E(xc)   XCENC  =         0.00000000
  PAW double counting   =      3561.86417908    -3562.09481623
  entropy T*S    EENTRO =        -0.00000000
  eigenvalues    EBANDS =      -572.49794161
  atomic energy  EATOM  =       971.57822761
  ---------------------------------------------------
  free energy    TOTEN  =      -124.59575930 eV

  energy without entropy =     -124.59575930  energy(sigma->0) =     -124.59575930
  exchange ACFDT corr.  =         0.00000000  see jH, gK, PRB 81, 115126


--------------------------------------------------------------------------------------------------------




----------------------------------------- Iteration    1(  44)  ---------------------------------------


    POTLOK:  cpu time   15.2160: real time   15.2576
    SETDIJ:  cpu time    0.1770: real time    0.1774
    TRIAL :  cpu time   44.9265: real time   45.1131
    CORREC:  cpu time   57.4390: real time   57.6605
    CHARGE:  cpu time    2.3383: real time    2.3479
    --------------------------------------------
      LOOP:  cpu time  120.1264: real time  120.5885

 eigenvalue-minimisations  :     0
 total energy-change (2. order) :-0.9381051E-07  (-0.5379126E-07)
 number of electron      30.0000000 magnetization 
 augmentation part        0.7474740 magnetization 

 Free energy of the ion-electron system (eV)
  ---------------------------------------------------
  alpha Z        PSCENC =         0.09544963
  Ewald energy   TEWEN  =      2320.80186955
  -Hartree energ DENC   =     -3163.88925219
  -exchange      EXHF   =       319.54616470
  -V(xc)+E(xc)   XCENC  =         0.00000000
  PAW double counting   =      3561.87725314    -3562.10789164
  entropy T*S    EENTRO =        -0.00000000
  eigenvalues    EBANDS =      -572.49758019
  atomic energy  EATOM  =       971.57822761
  ---------------------------------------------------
  free energy    TOTEN  =      -124.59575939 eV

  energy without entropy =     -124.59575939  energy(sigma->0) =     -124.59575939
  exchange ACFDT corr.  =        -0.00000000  see jH, gK, PRB 81, 115126


--------------------------------------------------------------------------------------------------------


  average scaling for gradient   0.7040


 average (electrostatic) potential at core
  the test charge radii are     0.7089  0.6991  0.5201
  (the norm of the test charge is              1.0000)
       1 -50.6763       2 -42.1575       3 -41.3138       4 -41.7813       5 -41.3091
       6 -42.1548       7 -23.5838       8 -23.8252       9 -24.0244      10 -23.8133
      11 -23.5943
 
 
 
 E-fermi :  -9.3627     XC(G=0):   0.0000     alpha+bet : -0.0169


 k-point     1 :       0.0000    0.0000    0.0000
  band No.  band energies     occupation 
      1     -34.2173      2.00000
      2     -29.6588      2.00000
      3     -28.1245      2.00000
      4     -23.3750      2.00000
      5     -23.2871      2.00000
      6     -19.6411      2.00000
      7     -17.9591      2.00000
      8     -17.8008      2.00000
      9     -16.2748      2.00000
     10     -15.6959      2.00000
     11     -14.7401      2.00000
     12     -14.1242      2.00000
     13     -11.4086      2.00000
     14     -10.4608      2.00000
     15      -9.4806      2.00000
     16       0.0119      0.00000
     17       0.1266      0.00000
     18       0.1303      0.00000
     19       0.1376      0.00000
     20       0.1381      0.00000
     21       0.1419      0.00000
     22       0.1802      0.00000
     23       0.2557      0.00000
     24       0.2567      0.00000


--------------------------------------------------------------------------------------------------------


 soft charge-density along one line, spin component           1
         0         1         2         3         4         5         6         7         8         9
 total charge-density along one line
 
 pseudopotential strength for first ion, spin component:           1
 11.096  13.279   0.000   0.011   0.004   0.000   0.033   0.011
 13.279  15.892   0.000   0.014   0.005   0.000   0.040   0.013
  0.000   0.000  -4.924   0.001   0.000  -6.276   0.001   0.000
  0.011   0.014   0.001  -4.811   0.034   0.001  -6.097   0.054
  0.004   0.005   0.000   0.034  -4.906   0.000   0.054  -6.247
  0.000   0.000  -6.276   0.001   0.000  -7.194   0.001   0.000
  0.033   0.040   0.001  -6.097   0.054   0.001  -6.913   0.085
  0.011   0.013   0.000   0.054  -6.247   0.000   0.085  -7.147
 total augmentation occupancy for first ion, spin component:           1
  8.955  -4.552  -0.010  -1.836  -0.594   0.003   0.628   0.203
 -4.552   2.545   0.008   1.552   0.501  -0.002  -0.415  -0.134
 -0.010   0.008   2.003   0.005  -0.001  -0.418  -0.001   0.001
 -1.836   1.552   0.005   2.901  -0.108  -0.001  -0.556   0.098
 -0.594   0.501  -0.001  -0.108   3.206   0.001   0.098  -0.828
  0.003  -0.002  -0.418  -0.001   0.001   0.088   0.000  -0.000
  0.628  -0.415  -0.001  -0.556   0.098   0.000   0.127  -0.035
  0.203  -0.134   0.001   0.098  -0.828  -0.000  -0.035   0.224


------------------------ aborting loop because EDIFF is reached ----------------------------------------


    FORLOC:  cpu time    1.8259: real time    1.8306
    FORHF :  cpu time   32.7362: real time   32.8272
    FORNL :  cpu time    1.1123: real time    1.1153
    FORCOR:  cpu time   14.4759: real time   14.5156
    OFIELD:  cpu time    0.0460: real time    0.0461

 VOLUME and BASIS-vectors are now :
 -----------------------------------------------------------------------------
  energy-cutoff  :     1600.00
  volume of cell :    42875.00
      direct lattice vectors                 reciprocal lattice vectors
    35.000000000  0.000000000  0.000000000     0.028571429  0.000000000  0.000000000
     0.000000000 35.000000000  0.000000000     0.000000000  0.028571429  0.000000000
     0.000000000  0.000000000 35.000000000     0.000000000  0.000000000  0.028571429

  length of vectors
    35.000000000 35.000000000 35.000000000     0.028571429  0.028571429  0.028571429


 FORCES acting on ions:
    Electron-Ion                     Ewald-Force                    Non-Local-Force
 -----------------------------------------------------------------------------------------------
   -.831E+02 -.136E+01 -.258E+03   0.942E+02 0.154E+01 0.292E+03   -.731E+01 -.120E+00 -.227E+02
   -.197E+03 -.527E-01 -.175E+02   0.199E+03 0.433E-01 0.158E+02   -.202E+01 0.868E-02 0.159E+01
   -.127E+03 0.779E+00 0.141E+03   0.128E+03 -.782E+00 -.141E+03   -.677E+00 0.266E-02 0.392E+00
   0.583E+02 0.949E+00 0.181E+03   -.583E+02 -.950E+00 -.181E+03   0.126E+00 0.208E-02 0.441E+00
   0.185E+03 0.188E+00 0.408E+02   -.186E+03 -.187E+00 -.408E+02   0.734E+00 -.218E-03 -.364E-01
   0.150E+03 -.720E+00 -.129E+03   -.153E+03 0.720E+00 0.129E+03   0.260E+01 0.113E-03 0.123E+00
   -.815E+02 -.882E-01 -.197E+02   0.875E+02 0.958E-01 0.213E+02   -.505E+01 -.631E-02 -.138E+01
   -.563E+02 0.320E+00 0.596E+02   0.605E+02 -.343E+00 -.639E+02   -.355E+01 0.198E-01 0.373E+01
   0.249E+02 0.411E+00 0.777E+02   -.268E+02 -.442E+00 -.835E+02   0.158E+01 0.262E-01 0.494E+01
   0.806E+02 0.688E-01 0.152E+02   -.866E+02 -.734E-01 -.162E+02   0.507E+01 0.405E-02 0.897E+00
   0.548E+02 -.350E+00 -.635E+02   -.587E+02 0.376E+00 0.683E+02   0.330E+01 -.224E-01 -.407E+01
 -----------------------------------------------------------------------------------------------
   0.882E+01 0.145E+00 0.272E+02   -.355E-13 0.278E-15 -.711E-13   -.521E+01 -.854E-01 -.161E+02
 
 
 POSITION                                       TOTAL-FORCE (eV/Angst)
 -----------------------------------------------------------------------------------
      0.45586      0.00141      6.76152        -0.416624     -0.007303     -1.361789
      1.32653     34.99580      5.74211        -0.491256      0.002426      0.422305
      0.95314     34.98873      4.40028        -0.246782      0.001338      0.140620
     34.59709     34.98732      4.08786         0.144463      0.001987      0.431564
     33.67899     34.99304      5.13303         0.187016      0.000161      0.026339
     34.15459     34.99995      6.44199         0.703237     -0.000222      0.014515
      2.37438     34.99705      6.01641        -0.344814     -0.000313     -0.093953
      1.70060     34.98457      3.61918        -0.187707      0.001216      0.308404
     34.26736     34.98186      3.05758         0.088888      0.001903      0.327204
     32.61454     34.99219      4.94430         0.337718      0.000388      0.067830
     33.46241      0.00454      7.27518         0.225861     -0.001581     -0.283041
 -----------------------------------------------------------------------------------
    total drift:                                0.000491      0.000115      0.001193


--------------------------------------------------------------------------------------------------------



  FREE ENERGIE OF THE ION-ELECTRON SYSTEM (eV)
  ---------------------------------------------------
  free  energy   TOTEN  =      -124.59575939 eV

  energy  without entropy=     -124.59575939  energy(sigma->0) =     -124.59575939
 


--------------------------------------------------------------------------------------------------------


    POTLOK:  cpu time   15.4297: real time   15.4717


--------------------------------------------------------------------------------------------------------


     LOOP+:  cpu time 5477.0456: real time 5497.4007
    4ORBIT:  cpu time    0.0000: real time    0.0000

 total amount of memory used by VASP on root node  4006867. kBytes
========================================================================

   base      :      30000. kBytes
   nonl-proj :     143308. kBytes
   fftplans  :    1395487. kBytes
   grid      :    2325657. kBytes
   one-center:          3. kBytes
   HF        :          9. kBytes
   nonlr-proj:        248. kBytes
   wavefun   :     112155. kBytes
 
  
  
 General timing and accounting informations for this job:
 ========================================================
  
                  Total CPU time used (sec):     6250.033
                            User time (sec):     5706.154
                          System time (sec):      543.879
                         Elapsed time (sec):     6273.393
  
                   Maximum memory used (kb):     5735532.
                   Average memory used (kb):           0.
  
                          Minor page faults:      1738431
                          Major page faults:            3
                 Voluntary context switches:       669050
 
 PROFILE, used timers:      39
 =============================
 
 index                 routine                    time                            calls level
----------------------------------------------------------------------------------------------
    1    total_time                         6273.394661                                1   1
    2      w1_copy                               1.528426                           1199   2
    3      fftwav_mpi                          193.005667                            937   2
    4      fftext_mpi                            0.797709                              6   2
    5      overl                                 0.000591                            617   2
    6      orth1                                 1.646702                            388   2
    7      lincom                                1.879232                            240   2
    8      eccp                                 29.646865                            732   2
    9      hamiltmu                             32.052198                             64   2
   10        vhamil                                6.431576                          128   3
   11        overl1                                0.000101                          128   3
   12        kinhamil                             16.592805                          128   3
   13          fftext_mpi                           16.421286                        128   4
   14      pdssyex_zheevx                        1.743877                             83   2
   15      fock_acc                           1500.082543                            117   2
   16        w1_copy                               1.341976                          702   3
   17        fftwav_mpi                           75.655512                          702   3
   18        fock_charge_mu                       75.787588                          468   3
   19          racc0mu_hf                            0.694556                        468   4
   20        rpromu_hf                             2.907121                          468   3
   21        overl1                                0.000221                          234   3
   22        fftext_mpi                           21.497662                          234   3
   23      hamilt_local                         50.130231                            234   2
   24        vhamil                               11.439465                          234   3
   25        kinhamil                             38.690175                          234   3
   26          fftext_mpi                           38.367218                        234   4
   27      w1_dscal                              5.544368                            234   2
   28      eddiag                             1555.954601                             39   2
   29        fock_acc                           1500.530463                          117   3
   30          w1_copy                               1.202375                        702   4
   31          fftwav_mpi                           75.952482                        702   4
   32          fock_charge_mu                       75.837874                        468   4
   33            racc0mu_hf                            0.721644                      468   5
   34          rpromu_hf                             2.982473                        468   4
   35          overl1                                0.000216                        234   4
   36          fftext_mpi                           21.156676                        234   4
   37        fftwav_mpi                           45.929613                          234   3
   38        eccp                                  8.698767                          234   3
   39      rpro1_hf                              0.531602                            384   2
 
 Flat profile
 ============
 
             routine name                   CPU           calls
 ---------------------------------------------------------------
 total_time                           2898.850049           1
 fock_acc                             2646.290830         234
 fftwav_mpi                            390.543273        2575
 fock_charge_mu                        150.209262         936
 fftext_mpi                             98.240551         836
 eccp                                   38.345632         966
 vhamil                                 17.871041         362
 hamiltmu                                9.027716          64
 rpromu_hf                               5.889594         936
 w1_dscal                                5.544368         234
 w1_copy                                 4.072778        2603
 lincom                                  1.879232         240
 pdssyex_zheevx                          1.743877          83
 orth1                                   1.646702         388
 racc0mu_hf                              1.416200         936
 eddiag                                  0.795759          39
 rpro1_hf                                0.531602         384
 kinhamil                                0.494476         362
 hamilt_local                            0.000591         234
 overl                                   0.000591         617
 overl1                                  0.000539         596
 ---------------------------------------------------------------
  summed up times    6273.39466094971     
 
Profiling took   0.011730  0.005701  0.003387  0.003348 seconds
Profiling took   0.007595 seconds
