
     Program PWSCF v.7.2 starts on 12Oct2023 at 18:10:39 

     This program is part of the open-source Quantum ESPRESSO suite
     for quantum simulation of materials; please cite
         "P. Giannozzi et al., J. Phys.:Condens. Matter 21 395502 (2009);
         "P. Giannozzi et al., J. Phys.:Condens. Matter 29 465901 (2017);
         "P. Giannozzi et al., J. Chem. Phys. 152 154105 (2020);
          URL http://www.quantum-espresso.org", 
     in publications or presentations arising from this work. More details at
     http://www.quantum-espresso.org/quote

     Parallel version (MPI), running on    32 processors

     MPI processes distributed on     1 nodes
     249184 MiB available memory on the printing compute node when the environment starts

     Reading input from 43UracilNeopentane100_precision_monomer_1.in
Warning: card &CELL ignored
Warning: card / ignored

     Current dimensions of program PWSCF are:
     Max number of different atomic species (ntypx) = 10
     Max number of k-points (npk) =  40000
     Max angular momentum in pseudopotentials (lmaxx) =  4
     file N.pbe-n-kjpaw_psl.1.0.0.UPF: wavefunction(s)  2S renormalized
     file H.pbe-kjpaw_psl.1.0.0.UPF: wavefunction(s)  1S renormalized
     file C.pbe-n-kjpaw_psl.1.0.0.UPF: wavefunction(s)  2S 2P renormalized
     file O.pbe-n-kjpaw_psl.1.0.0.UPF: wavefunction(s)  2S 2P renormalized

     IMPORTANT: XC functional enforced from input :
     Exchange-correlation= PBE
                           (   1   4   3   4   0   0   0)
     Any further DFT definition will be discarded
     Please, verify this is what you really want


     gamma-point specific algorithms are used

     R & G space division:  proc/nbgrp/npool/nimage =      32
     Subspace diagonalization in iterative solution of the eigenvalue problem:
     a serial algorithm will be used


     Parallelization info
     --------------------
     sticks:   dense  smooth     PW     G-vecs:    dense   smooth      PW
     Min        6395    6395   1598              2177048  2177048  272114
     Max        6398    6398   1600              2177062  2177062  272124
     Sum      204693  204693  51189             69665707 69665707 8707803

     Using Slab Decomposition



     bravais-lattice index     =            0
     lattice parameter (alat)  =      66.1404  a.u.
     unit-cell volume          =  289334.8415 (a.u.)^3
     number of atoms/cell      =           12
     number of atomic types    =            4
     number of electrons       =        42.00
     number of Kohn-Sham states=           21
     kinetic-energy cutoff     =     147.0000  Ry
     charge density cutoff     =     588.0000  Ry
     scf convergence threshold =      1.0E-08
     mixing beta               =       0.7000
     number of iterations used =            8  plain     mixing
     Exchange-correlation= PBE
                           (   1   4   3   4   0   0   0)

     celldm(1)=  66.140414  celldm(2)=   0.000000  celldm(3)=   0.000000
     celldm(4)=   0.000000  celldm(5)=   0.000000  celldm(6)=   0.000000

     crystal axes: (cart. coord. in units of alat)
               a(1) = (   1.000000   0.000000   0.000000 )  
               a(2) = (   0.000000   1.000000   0.000000 )  
               a(3) = (   0.000000   0.000000   1.000000 )  

     reciprocal axes: (cart. coord. in units 2 pi/alat)
               b(1) = (  1.000000  0.000000  0.000000 )  
               b(2) = (  0.000000  1.000000  0.000000 )  
               b(3) = (  0.000000  0.000000  1.000000 )  


     PseudoPot. # 1 for N  read from file:
     /home/users/klimj2am/src/pslibrary.1.0.0/pbe/PSEUDOPOTENTIALS/N.pbe-n-kjpaw_psl.1.0.0.UPF
     MD5 check sum: ed3381810ced4c04e88f7c2008d4036c
     Pseudo is Projector augmented-wave + core cor, Zval =  5.0
     Generated using 'atomic' code by A. Dal Corso  v.7.2
     Shape of augmentation charge: PSQ
     Using radial grid of 1085 points,  4 beta functions with: 
                l(1) =   0
                l(2) =   0
                l(3) =   1
                l(4) =   1
     Q(r) pseudized with 0 coefficients 


     PseudoPot. # 2 for H  read from file:
     /home/users/klimj2am/src/pslibrary.1.0.0/pbe/PSEUDOPOTENTIALS/H.pbe-kjpaw_psl.1.0.0.UPF
     MD5 check sum: 220281c0717fd894cece6904c624ceaa
     Pseudo is Projector augmented-wave, Zval =  1.0
     Generated using 'atomic' code by A. Dal Corso  v.7.2
     Shape of augmentation charge: PSQ
     Using radial grid of  929 points,  2 beta functions with: 
                l(1) =   0
                l(2) =   0
     Q(r) pseudized with 0 coefficients 


     PseudoPot. # 3 for C  read from file:
     /home/users/klimj2am/src/pslibrary.1.0.0/pbe/PSEUDOPOTENTIALS/C.pbe-n-kjpaw_psl.1.0.0.UPF
     MD5 check sum: 9d4797b4e2669f30c50dcc814f8da1dd
     Pseudo is Projector augmented-wave + core cor, Zval =  4.0
     Generated using 'atomic' code by A. Dal Corso  v.7.2
     Shape of augmentation charge: PSQ
     Using radial grid of 1073 points,  4 beta functions with: 
                l(1) =   0
                l(2) =   0
                l(3) =   1
                l(4) =   1
     Q(r) pseudized with 0 coefficients 


     PseudoPot. # 4 for O  read from file:
     /home/users/klimj2am/src/pslibrary.1.0.0/pbe/PSEUDOPOTENTIALS/O.pbe-n-kjpaw_psl.1.0.0.UPF
     MD5 check sum: 48e285564fec6dca10ec424bc53b541b
     Pseudo is Projector augmented-wave + core cor, Zval =  6.0
     Generated using 'atomic' code by A. Dal Corso  v.7.2
     Shape of augmentation charge: PSQ
     Using radial grid of 1095 points,  4 beta functions with: 
                l(1) =   0
                l(2) =   0
                l(3) =   1
                l(4) =   1
     Q(r) pseudized with 0 coefficients 


     atomic species   valence    mass     pseudopotential
        N              5.00    14.00700     N ( 1.00)
        H              1.00     1.00800     H ( 1.00)
        C              4.00    12.01100     C ( 1.00)
        O              6.00    15.99900     O ( 1.00)

     No symmetry found



   Cartesian axes

     site n.     atom                  positions (alat units)
         1           N   tau(   1) = (   0.0178880  -0.0243118   0.0230262  )
         2           H   tau(   2) = (   0.0116911  -0.0517572   0.0295543  )
         3           C   tau(   3) = (  -0.0123559  -0.0024953   0.0084190  )
         4           O   tau(   4) = (  -0.0437363  -0.0168115   0.0035312  )
         5           C   tau(   5) = (  -0.0019107   0.0368936   0.0005611  )
         6           H   tau(   6) = (  -0.0231355   0.0557660  -0.0112240  )
         7           C   tau(   7) = (   0.0338155   0.0490839   0.0083009  )
         8           H   tau(   8) = (   0.0429100   0.0781106   0.0031381  )
         9           N   tau(   9) = (   0.0609751   0.0253315   0.0234023  )
        10           H   tau(  10) = (   0.0872953   0.0349686   0.0298122  )
        11           C   tau(  11) = (   0.0543652  -0.0126622   0.0322375  )
        12           O   tau(  12) = (   0.0783945  -0.0332550   0.0465311  )

     number of k points=     1
                       cart. coord. in units 2pi/alat
        k(    1) = (   0.0000000   0.0000000   0.0000000), wk =   2.0000000

     Dense  grid: 34832854 G-vectors     FFT dimensions: ( 512, 512, 512)

     Estimated max dynamical RAM per process >       1.77 GB

     Estimated total dynamical RAM >      56.76 GB

     Initial potential from superposition of free atoms

     starting charge      41.9998, renormalised to      42.0000

     negative rho (up, down):  1.046E-03 0.000E+00
     Starting wfcs are   36 randomized atomic wfcs
     Checking if some PAW data can be deallocated... 

     total cpu time spent up to now is       48.9 secs

     Self-consistent Calculation

     iteration #  1     ecut=   147.00 Ry     beta= 0.70
     Davidson diagonalization with overlap
     ethr =  1.00E-02,  avg # of iterations =  3.0

     negative rho (up, down):  8.059E-04 0.000E+00

     total cpu time spent up to now is       72.7 secs

     total energy              =    -217.66205757 Ry
     estimated scf accuracy    <       1.43034976 Ry

     iteration #  2     ecut=   147.00 Ry     beta= 0.70
     Davidson diagonalization with overlap
     ethr =  3.41E-03,  avg # of iterations =  3.0

     negative rho (up, down):  1.215E-03 0.000E+00

     total cpu time spent up to now is       97.2 secs

     total energy              =    -218.15330809 Ry
     estimated scf accuracy    <       0.22694745 Ry

     iteration #  3     ecut=   147.00 Ry     beta= 0.70
     Davidson diagonalization with overlap
     ethr =  5.40E-04,  avg # of iterations =  6.0

     negative rho (up, down):  1.262E-03 0.000E+00

     total cpu time spent up to now is      125.0 secs

     total energy              =    -218.24842848 Ry
     estimated scf accuracy    <       0.27455431 Ry

     iteration #  4     ecut=   147.00 Ry     beta= 0.70
     Davidson diagonalization with overlap
     ethr =  5.40E-04,  avg # of iterations =  1.0

     negative rho (up, down):  1.728E-03 0.000E+00

     total cpu time spent up to now is      144.3 secs

     total energy              =    -218.14090238 Ry
     estimated scf accuracy    <       0.16415047 Ry

     iteration #  5     ecut=   147.00 Ry     beta= 0.70
     Davidson diagonalization with overlap
     ethr =  3.91E-04,  avg # of iterations =  6.0

     negative rho (up, down):  1.909E-03 0.000E+00

     total cpu time spent up to now is      174.3 secs

     total energy              =    -218.25526000 Ry
     estimated scf accuracy    <       0.24467545 Ry

     iteration #  6     ecut=   147.00 Ry     beta= 0.70
     Davidson diagonalization with overlap
     ethr =  3.91E-04,  avg # of iterations =  1.0

     negative rho (up, down):  2.082E-03 0.000E+00

     total cpu time spent up to now is      193.5 secs

     total energy              =    -218.19547832 Ry
     estimated scf accuracy    <       0.12704423 Ry

     iteration #  7     ecut=   147.00 Ry     beta= 0.70
     Davidson diagonalization with overlap
     ethr =  3.02E-04,  avg # of iterations =  6.0

     negative rho (up, down):  2.072E-03 0.000E+00

     total cpu time spent up to now is      219.4 secs

     total energy              =    -218.24224240 Ry
     estimated scf accuracy    <       0.02868047 Ry

     iteration #  8     ecut=   147.00 Ry     beta= 0.70
     Davidson diagonalization with overlap
     ethr =  6.83E-05,  avg # of iterations =  2.0

     negative rho (up, down):  2.076E-03 0.000E+00

     total cpu time spent up to now is      239.8 secs

     total energy              =    -218.23921569 Ry
     estimated scf accuracy    <       0.00722812 Ry

     iteration #  9     ecut=   147.00 Ry     beta= 0.70
     Davidson diagonalization with overlap
     ethr =  1.72E-05,  avg # of iterations = 12.0

     negative rho (up, down):  2.092E-03 0.000E+00

     total cpu time spent up to now is      277.4 secs

     total energy              =    -218.25146843 Ry
     estimated scf accuracy    <       0.05002294 Ry

     iteration # 10     ecut=   147.00 Ry     beta= 0.70
     Davidson diagonalization with overlap
     ethr =  1.72E-05,  avg # of iterations =  1.0

     negative rho (up, down):  2.109E-03 0.000E+00

     total cpu time spent up to now is      296.8 secs

     total energy              =    -218.24153068 Ry
     estimated scf accuracy    <       0.03585258 Ry

     iteration # 11     ecut=   147.00 Ry     beta= 0.70
     Davidson diagonalization with overlap
     ethr =  1.72E-05,  avg # of iterations =  6.0

     negative rho (up, down):  2.114E-03 0.000E+00

     total cpu time spent up to now is      323.7 secs

     total energy              =    -218.24732799 Ry
     estimated scf accuracy    <       0.00117678 Ry

     iteration # 12     ecut=   147.00 Ry     beta= 0.70
     Davidson diagonalization with overlap
     ethr =  2.80E-06,  avg # of iterations =  6.0

     negative rho (up, down):  2.112E-03 0.000E+00

     total cpu time spent up to now is      349.8 secs

     total energy              =    -218.24803226 Ry
     estimated scf accuracy    <       0.00013543 Ry

     iteration # 13     ecut=   147.00 Ry     beta= 0.70
     Davidson diagonalization with overlap
     ethr =  3.22E-07,  avg # of iterations =  3.0

     negative rho (up, down):  2.116E-03 0.000E+00

     total cpu time spent up to now is      370.9 secs

     total energy              =    -218.24800622 Ry
     estimated scf accuracy    <       0.00011460 Ry

     iteration # 14     ecut=   147.00 Ry     beta= 0.70
     Davidson diagonalization with overlap
     ethr =  2.73E-07,  avg # of iterations =  2.0

     negative rho (up, down):  2.119E-03 0.000E+00

     total cpu time spent up to now is      392.0 secs

     total energy              =    -218.24801943 Ry
     estimated scf accuracy    <       0.00003540 Ry

     iteration # 15     ecut=   147.00 Ry     beta= 0.70
     Davidson diagonalization with overlap
     ethr =  8.43E-08,  avg # of iterations =  6.0

     negative rho (up, down):  2.121E-03 0.000E+00

     total cpu time spent up to now is      414.6 secs

     total energy              =    -218.24802229 Ry
     estimated scf accuracy    <       0.00002656 Ry

     iteration # 16     ecut=   147.00 Ry     beta= 0.70
     Davidson diagonalization with overlap
     ethr =  6.32E-08,  avg # of iterations =  1.0

     negative rho (up, down):  2.121E-03 0.000E+00

     total cpu time spent up to now is      434.1 secs

     total energy              =    -218.24801612 Ry
     estimated scf accuracy    <       0.00002124 Ry

     iteration # 17     ecut=   147.00 Ry     beta= 0.70
     Davidson diagonalization with overlap
     ethr =  5.06E-08,  avg # of iterations =  4.0

     negative rho (up, down):  2.121E-03 0.000E+00

     total cpu time spent up to now is      456.4 secs

     total energy              =    -218.24802015 Ry
     estimated scf accuracy    <       0.00000144 Ry

     iteration # 18     ecut=   147.00 Ry     beta= 0.70
     Davidson diagonalization with overlap
     ethr =  3.43E-09,  avg # of iterations = 11.0

     negative rho (up, down):  2.121E-03 0.000E+00

     total cpu time spent up to now is      489.3 secs

     total energy              =    -218.24802288 Ry
     estimated scf accuracy    <       0.00000345 Ry

     iteration # 19     ecut=   147.00 Ry     beta= 0.70
     Davidson diagonalization with overlap
     ethr =  3.43E-09,  avg # of iterations =  2.0

     negative rho (up, down):  2.121E-03 0.000E+00

     total cpu time spent up to now is      509.6 secs

     total energy              =    -218.24802149 Ry
     estimated scf accuracy    <       0.00000391 Ry

     iteration # 20     ecut=   147.00 Ry     beta= 0.70
     Davidson diagonalization with overlap
     ethr =  3.43E-09,  avg # of iterations =  7.0

     negative rho (up, down):  2.121E-03 0.000E+00

     total cpu time spent up to now is      533.0 secs

     total energy              =    -218.24802165 Ry
     estimated scf accuracy    <       0.00000091 Ry

     iteration # 21     ecut=   147.00 Ry     beta= 0.70
     Davidson diagonalization with overlap
     ethr =  2.17E-09,  avg # of iterations =  2.0

     negative rho (up, down):  2.121E-03 0.000E+00

     total cpu time spent up to now is      553.9 secs

     total energy              =    -218.24802171 Ry
     estimated scf accuracy    <       0.00000058 Ry

     iteration # 22     ecut=   147.00 Ry     beta= 0.70
     Davidson diagonalization with overlap
     ethr =  1.37E-09,  avg # of iterations =  9.0

     negative rho (up, down):  2.121E-03 0.000E+00

     total cpu time spent up to now is      579.1 secs

     total energy              =    -218.24802171 Ry
     estimated scf accuracy    <       0.00000050 Ry

     iteration # 23     ecut=   147.00 Ry     beta= 0.70
     Davidson diagonalization with overlap
     ethr =  1.19E-09,  avg # of iterations =  2.0

     negative rho (up, down):  2.121E-03 0.000E+00

     total cpu time spent up to now is      599.7 secs

     total energy              =    -218.24802168 Ry
     estimated scf accuracy    <       0.00000018 Ry

     iteration # 24     ecut=   147.00 Ry     beta= 0.70
     Davidson diagonalization with overlap
     ethr =  4.34E-10,  avg # of iterations =  6.0

     negative rho (up, down):  2.121E-03 0.000E+00

     total cpu time spent up to now is      626.2 secs

     total energy              =    -218.24802178 Ry
     estimated scf accuracy    <       0.00000012 Ry

     iteration # 25     ecut=   147.00 Ry     beta= 0.70
     Davidson diagonalization with overlap
     ethr =  2.78E-10,  avg # of iterations =  2.0

     negative rho (up, down):  2.121E-03 0.000E+00

     total cpu time spent up to now is      646.7 secs

     total energy              =    -218.24802176 Ry
     estimated scf accuracy    <       0.00000006 Ry

     iteration # 26     ecut=   147.00 Ry     beta= 0.70
     Davidson diagonalization with overlap
     ethr =  1.38E-10,  avg # of iterations =  5.0

     negative rho (up, down):  2.121E-03 0.000E+00

     total cpu time spent up to now is      673.6 secs

     total energy              =    -218.24802181 Ry
     estimated scf accuracy    <       0.00000006 Ry

     iteration # 27     ecut=   147.00 Ry     beta= 0.70
     Davidson diagonalization with overlap
     ethr =  1.38E-10,  avg # of iterations =  2.0

     negative rho (up, down):  2.121E-03 0.000E+00

     total cpu time spent up to now is      694.0 secs

     total energy              =    -218.24802179 Ry
     estimated scf accuracy    <       0.00000006 Ry

     iteration # 28     ecut=   147.00 Ry     beta= 0.70
     Davidson diagonalization with overlap
     ethr =  1.36E-10,  avg # of iterations =  1.0

     negative rho (up, down):  2.121E-03 0.000E+00

     total cpu time spent up to now is      713.7 secs

     total energy              =    -218.24802178 Ry
     estimated scf accuracy    <       0.00000003 Ry

     iteration # 29     ecut=   147.00 Ry     beta= 0.70
     Davidson diagonalization with overlap
     ethr =  6.78E-11,  avg # of iterations =  5.0

     negative rho (up, down):  2.121E-03 0.000E+00

     total cpu time spent up to now is      735.6 secs

     End of self-consistent calculation

          k = 0.0000 0.0000 0.0000 (****** PWs)   bands (ev):

   -27.3016 -26.3098 -24.8320 -23.4321 -20.0882 -17.4761 -16.7650 -15.1255
   -14.0814 -13.0813 -12.1267 -11.6983 -11.1025 -10.4214 -10.1981 -10.1581
    -9.2976  -7.1386  -7.0559  -6.3795  -6.2255

     highest occupied level (ev):    -6.2255

!    total energy              =    -218.24802179 Ry
     total all-electron energy =      -829.595770 Ry
     estimated scf accuracy    <          2.3E-09 Ry

     The total energy is the sum of the following terms:
     one-electron contribution =    -823.36250535 Ry
     hartree contribution      =     417.55566574 Ry
     xc contribution           =     -47.76197757 Ry
     ewald contribution        =     295.11567579 Ry
     one-center paw contrib.   =     -59.79488040 Ry

     charge density inside the Wigner-Seitz cell:   42.00000000

     reference position (x0):         1.60104233    0.16545683    1.23126784 bohr

     Dipole moments (with respect to x0):
     Elect   0.8319   1.5024  -0.1795 au (Ha),   2.1145   3.8188  -0.4563 Debye
     Ionic   0.0000   0.0000  -0.0000 au (Ha),   0.0000   0.0000  -0.0000 Debye
     Total   0.8319   1.5024  -0.1795 au (Ha),   2.1145   3.8188  -0.4563 Debye

     Electrons quadrupole moment       -650.49728563 a.u. (Ha)
          Ions quadrupole moment        545.47810220 a.u. (Ha)
         Total quadrupole moment       -105.01918344 a.u. (Ha)

     *********    MAKOV-PAYNE CORRECTION    *********

     Makov-Payne correction with Madelung constant =   2.8373

     Makov-Payne correction     0.00000000 Ry =  0.000 eV (1st order, 1/a0)
                                0.00004317 Ry =  0.001 eV (2nd order, 1/a0^3)
                                0.00004317 Ry =  0.001 eV (total)

!    Total+Makov-Payne energy  =    -218.24797862 Ry
     Corrected vacuum level    =       0.02068313 eV

     convergence has been achieved in  29 iterations

     Writing all to output data dir ./pwscf.save/

     init_run     :     44.43s CPU     48.08s WALL (       1 calls)
     electrons    :    600.26s CPU    689.52s WALL (       1 calls)

     Called by init_run:
     wfcinit      :      5.06s CPU      5.61s WALL (       1 calls)
     potinit      :      5.31s CPU      6.22s WALL (       1 calls)
     hinit0       :      3.22s CPU      3.59s WALL (       1 calls)

     Called by electrons:
     c_bands      :    295.41s CPU    319.91s WALL (      29 calls)
     sum_band     :    157.90s CPU    184.10s WALL (      29 calls)
     v_of_rho     :     65.31s CPU     79.60s WALL (      30 calls)
     newd         :     57.16s CPU     80.48s WALL (      30 calls)
     PAW_pot      :      0.47s CPU      0.51s WALL (      30 calls)
     mix_rho      :     23.99s CPU     25.36s WALL (      29 calls)

     Called by c_bands:
     init_us_2    :      3.30s CPU      3.43s WALL (      59 calls)
     init_us_2:cp :      3.30s CPU      3.43s WALL (      59 calls)
     regterg      :    289.43s CPU    313.82s WALL (      29 calls)

     Called by *egterg:
     rdiaghg      :      0.07s CPU      0.08s WALL (     152 calls)
     h_psi        :    243.25s CPU    267.57s WALL (     153 calls)
     s_psi        :     12.12s CPU     12.20s WALL (     153 calls)
     g_psi        :      0.79s CPU      0.79s WALL (     123 calls)

     Called by h_psi:
     h_psi:calbec :      9.69s CPU      9.90s WALL (     153 calls)
     vloc_psi     :    219.85s CPU    243.88s WALL (     153 calls)
     add_vuspsi   :     12.15s CPU     12.19s WALL (     153 calls)

     General routines
     calbec       :     11.96s CPU     12.18s WALL (     182 calls)
     fft          :     55.28s CPU     66.05s WALL (     270 calls)
     ffts         :      5.05s CPU      5.98s WALL (      29 calls)
     fftw         :    202.99s CPU    228.83s WALL (    2237 calls)

     Parallel routines

     PWSCF        :  10m47.73s CPU  12m24.52s WALL


   This run was terminated on:  18:23: 3  12Oct2023            

=------------------------------------------------------------------------------=
   JOB DONE.
=------------------------------------------------------------------------------=
