 vasp.6.1.2 22Jul20 (build Jan  5 2021 21:18:56) complex                         
 executed on             LinuxPGI date 2021.02.12  14:17:35
 running on   32 total cores
 distrk:  each k-point on   32 cores,    1 groups
 distr:  one band on NCORE=   8 cores,    4 groups


--------------------------------------------------------------------------------------------------------


 INCAR:
 POTCAR:    PAW_PBE H_s 15May2010                 
 POTCAR:    PAW_PBE N_s 07Sep2000                 
 POTCAR:    PAW_PBE O_s 07Sep2000                 
 POTCAR:    PAW_PBE H_s 15May2010                 
   VRHFIN =H: ultrasoft test                                                                        
   LEXCH  = PE                                                                                      
   EATOM  =    12.4884 eV,    0.9179 Ry                                                             
                                                                                                    
   TITEL  = PAW_PBE H_s 15May2010                                                                   
   LULTRA =        F    use ultrasoft PP ?                                                          
   IUNSCR =        0    unscreen: 0-lin 1-nonlin 2-no                                               
   RPACOR =    0.000    partial core radius                                                         
   POMASS =    1.000; ZVAL   =    1.000    mass and valenz                                          
   RCORE  =    1.300    outmost cutoff radius                                                       
   RWIGS  =    0.700; RWIGS  =    0.370    wigner-seitz radius (au A)                               
   ENMAX  =  200.000; ENMIN  =  150.000 eV                                                          
   RCLOC  =    0.701    cutoff for local pot                                                        
   LCOR   =        T    correct aug charges                                                         
   LPAW   =        T    paw PP                                                                      
   EAUG   =  300.000                                                                                
   RMAX   =    1.330    core radius for proj-oper                                                   
   RAUG   =    1.200    factor for augmentation sphere                                              
   RDEP   =    1.337    radius for radial grids                                                     
   RDEPT  =    1.114    core radius for aug-charge                                                  
                                                                                                    
   Atomic configuration                                                                             
    2 entries                                                                                       
     n  l   j            E        occ.                                                              
     1  0  0.50        -6.4927   1.0000                                                             
     2  1  0.50        -3.4015   0.0000                                                             
   Description                                                                                      
     l       E           TYP  RCUT    TYP  RCUT                                                     
     0     -6.4927494     23  1.300                                                                 
     0      6.8029130     23  1.300                                                                 
     1     -4.0817478     23  1.300                                                                 
  local pseudopotential read in
  atomic valenz-charges read in
  non local Contribution for L=            0  read in
    real space projection operators read in
  non local Contribution for L=            0  read in
    real space projection operators read in
  non local Contribution for L=            1  read in
    real space projection operators read in
    PAW grid and wavefunctions read in
 
   number of l-projection  operators is LMAX  =            3
   number of lm-projection operators is LMMAX =            5
 
 POTCAR:    PAW_PBE N_s 07Sep2000                 
   VRHFIN =N: s2p3                                                                                  
   LEXCH  = PE                                                                                      
   EATOM  =   264.5486 eV,   19.4438 Ry                                                             
                                                                                                    
   TITEL  = PAW_PBE N_s 07Sep2000                                                                   
   LULTRA =        F    use ultrasoft PP ?                                                          
   IUNSCR =        0    unscreen: 0-lin 1-nonlin 2-no                                               
   RPACOR =    0.000    partial core radius                                                         
   POMASS =   14.001; ZVAL   =    5.000    mass and valenz                                          
   RCORE  =    1.850    outmost cutoff radius                                                       
   RWIGS  =    1.850; RWIGS  =    0.979    wigner-seitz radius (au A)                               
   ENMAX  =  279.692; ENMIN  =  209.769 eV                                                          
   RCLOC  =    0.803    cutoff for local pot                                                        
   LCOR   =        T    correct aug charges                                                         
   LPAW   =        T    paw PP                                                                      
   EAUG   =  384.743                                                                                
   DEXC   =    0.000                                                                                
   RMAX   =    1.893    core radius for proj-oper                                                   
   RAUG   =    1.300    factor for augmentation sphere                                              
   RDEP   =    1.933    radius for radial grids                                                     
   RDEPT  =    1.632    core radius for aug-charge                                                  
                                                                                                    
   Atomic configuration                                                                             
    4 entries                                                                                       
     n  l   j            E        occ.                                                              
     1  0  0.50      -384.7179   2.0000                                                             
     2  0  0.50       -18.5828   2.0000                                                             
     2  1  0.50        -7.0898   3.0000                                                             
     3  2  1.50        -1.3606   0.0000                                                             
   Description                                                                                      
     l       E           TYP  RCUT    TYP  RCUT                                                     
     0    -18.5828119     23  1.500                                                                 
     0    -19.9433945     23  1.500                                                                 
     1     -7.0897853     23  1.850                                                                 
     1     -4.8150613     23  1.850                                                                 
  local pseudopotential read in
  atomic valenz-charges read in
  non local Contribution for L=            0  read in
    real space projection operators read in
  non local Contribution for L=            0  read in
    real space projection operators read in
  non local Contribution for L=            1  read in
    real space projection operators read in
  non local Contribution for L=            1  read in
    real space projection operators read in
    PAW grid and wavefunctions read in
 
   number of l-projection  operators is LMAX  =            4
   number of lm-projection operators is LMMAX =            8
 
 POTCAR:    PAW_PBE O_s 07Sep2000                 
   VRHFIN =O: s2p4                                                                                  
   LEXCH  = PE                                                                                      
   EATOM  =   432.3788 eV,   31.7789 Ry                                                             
                                                                                                    
   TITEL  = PAW_PBE O_s 07Sep2000                                                                   
   LULTRA =        F    use ultrasoft PP ?                                                          
   IUNSCR =        0    unscreen: 0-lin 1-nonlin 2-no                                               
   RPACOR =    0.000    partial core radius                                                         
   POMASS =   16.000; ZVAL   =    6.000    mass and valenz                                          
   RCORE  =    1.850    outmost cutoff radius                                                       
   RWIGS  =    1.700; RWIGS  =    0.900    wigner-seitz radius (au A)                               
   ENMAX  =  282.853; ENMIN  =  212.140 eV                                                          
   RCLOC  =    0.804    cutoff for local pot                                                        
   LCOR   =        T    correct aug charges                                                         
   LPAW   =        T    paw PP                                                                      
   EAUG   =  412.352                                                                                
   RMAX   =    1.897    core radius for proj-oper                                                   
   RAUG   =    1.300    factor for augmentation sphere                                              
   RDEP   =    1.878    radius for radial grids                                                     
   RDEPT  =    1.572    core radius for aug-charge                                                  
                                                                                                    
   Atomic configuration                                                                             
    4 entries                                                                                       
     n  l   j            E        occ.                                                              
     1  0  0.50      -514.6923   2.0000                                                             
     2  0  0.50       -23.9615   2.0000                                                             
     2  1  0.50        -9.0305   4.0000                                                             
     3  2  1.50        -1.3606   0.0000                                                             
   Description                                                                                      
     l       E           TYP  RCUT    TYP  RCUT                                                     
     0    -23.9615315     23  1.500                                                                 
     0    -25.3221141     23  1.500                                                                 
     1     -9.0304908     23  1.850                                                                 
     1     -7.3935399     23  1.850                                                                 
  local pseudopotential read in
  atomic valenz-charges read in
  non local Contribution for L=            0  read in
    real space projection operators read in
  non local Contribution for L=            0  read in
    real space projection operators read in
  non local Contribution for L=            1  read in
    real space projection operators read in
  non local Contribution for L=            1  read in
    real space projection operators read in
    PAW grid and wavefunctions read in
 
   number of l-projection  operators is LMAX  =            4
   number of lm-projection operators is LMMAX =            8
 
  PAW_PBE H_s 15May2010                 :
 energy of atom  1       EATOM=  -12.4884
 kinetic energy error for atom=    0.0000 (will be added to EATOM!!)
  PAW_PBE N_s 07Sep2000                 :
 energy of atom  2       EATOM= -264.5486
 kinetic energy error for atom=    0.0003 (will be added to EATOM!!)
  PAW_PBE O_s 07Sep2000                 :
 energy of atom  3       EATOM= -432.3788
 kinetic energy error for atom=    0.0004 (will be added to EATOM!!)
 
 
 POSCAR:  H  N  O
  positions in cartesian coordinates
  No initial velocities read in
 exchange correlation table for  LEXCH =        8
   RHO(1)=    0.500       N(1)  =     2000
   RHO(2)=  100.500       N(2)  =     4000
 


--------------------------------------------------------------------------------------------------------


 ion  position               nearest neighbor table
   1  0.010  0.001  0.021-   6 1.01
   2  0.999  0.039  0.997-   6 1.01
   3  0.971  0.002  0.997-   6 1.01
   4  0.019  0.152  0.009-   7 0.96
   5  0.984  0.154  0.985-   7 0.96
   6  0.999  0.010  0.996-   3 1.01   2 1.01   1 1.01
   7  0.000  0.136  0.997-   5 0.96   4 0.96
 
  LATTYP: Found a simple cubic cell.
 ALAT       =    35.0000000000
  
  Lattice vectors:
  
 A1 = (  35.0000000000,   0.0000000000,   0.0000000000)
 A2 = (   0.0000000000,  35.0000000000,   0.0000000000)
 A3 = (   0.0000000000,   0.0000000000,  35.0000000000)


Analysis of symmetry for initial positions (statically):
=====================================================================
 Subroutine PRICEL returns:
 Original cell was already a primitive cell.
 

 Routine SETGRP: Setting up the symmetry group for a 
 simple cubic supercell.


 Subroutine GETGRP returns: Found  1 space group operations
 (whereof  1 operations were pure point group operations)
 out of a pool of 48 trial point group operations.


The static configuration has the point symmetry C_1 .


Analysis of symmetry for dynamics (positions and initial velocities):
=====================================================================
 Subroutine PRICEL returns:
 Original cell was already a primitive cell.
 

 Routine SETGRP: Setting up the symmetry group for a 
 simple cubic supercell.


 Subroutine GETGRP returns: Found  1 space group operations
 (whereof  1 operations were pure point group operations)
 out of a pool of 48 trial point group operations.


The dynamic configuration has the point symmetry C_1 .


 Subroutine INISYM returns: Found  1 space group operations
 (whereof  1 operations are pure point group operations),
 and found     1 'primitive' translations


----------------------------------------------------------------------------------------

                                     Primitive cell                                     

  volume of cell :   42875.0000

  direct lattice vectors                    reciprocal lattice vectors
    35.000000000  0.000000000  0.000000000     0.028571429  0.000000000  0.000000000
     0.000000000 35.000000000  0.000000000     0.000000000  0.028571429  0.000000000
     0.000000000  0.000000000 35.000000000     0.000000000  0.000000000  0.028571429

  length of vectors
    35.000000000 35.000000000 35.000000000     0.028571429  0.028571429  0.028571429

  position of ions in fractional coordinates (direct lattice)
     0.010288498  0.000702679  0.020821486
     0.999498008  0.038882065  0.996685848
     0.970673256  0.002458017  0.996686295
     0.019312931  0.151892607  0.009315050
     0.983782053  0.153811391  0.984604577
     0.998586675  0.009985768  0.996060442
     0.000398437  0.136004045  0.997303770

  ion indices of the primitive-cell ions
   primitive index   ion index
                 1           1
                 2           2
                 3           3
                 4           4
                 5           5
                 6           6
                 7           7

----------------------------------------------------------------------------------------

 
 
 KPOINTS: automatic mesh                          

Automatic generation of k-mesh.
Space group operators:
 irot       det(A)        alpha          n_x          n_y          n_z        tau_x        tau_y        tau_z
    1     1.000000     0.000000     1.000000     0.000000     0.000000     0.000000     0.000000     0.000000
 
 Subroutine IBZKPT returns following result:
 ===========================================
 
 Found      1 irreducible k-points:
 
 Following reciprocal coordinates:
            Coordinates               Weight
  0.000000  0.000000  0.000000      1.000000
 
 Following cartesian coordinates:
            Coordinates               Weight
  0.000000  0.000000  0.000000      1.000000
 


--------------------------------------------------------------------------------------------------------




 Dimension of arrays:
   k-points           NKPTS =      1   k-points in BZ     NKDIM =      1   number of bands    NBANDS=     12
   number of dos      NEDOS =    301   number of ions     NIONS =      7
   non local maximal  LDIM  =      4   non local SUM 2l+1 LMDIM =      8
   total plane-waves  NPLWV = ******
   max r-space proj   IRMAX =      1   max aug-charges    IRDMAX=  32454
   dimension x,y,z NGX =   378 NGY =  378 NGZ =  378
   dimension x,y,z NGXF=   756 NGYF=  756 NGZF=  756
   support grid    NGXF=   756 NGYF=  756 NGZF=  756
   ions per type =               5   1   1
   NGX,Y,Z   is equivalent  to a cutoff of  17.95, 17.95, 17.95 a.u.
   NGXF,Y,Z  is equivalent  to a cutoff of  35.91, 35.91, 35.91 a.u.

 SYSTEM =  C                                       
 POSCAR =   H  N  O                                

 Startparameter for this run:
   NWRITE =      2    write-flag & timer
   PREC   = acc       normal or accurate (medium, high low for compatibility)
   ISTART =      0    job   : 0-new  1-cont  2-samecut
   ICHARG =      2    charge: 1-file 2-atom 10-const
   ISPIN  =      1    spin polarized calculation?
   LNONCOLLINEAR =      F non collinear calculations
   LSORBIT =      F    spin-orbit coupling
   INIWAV =      1    electr: 0-lowe 1-rand  2-diag
   LASPH  =      T    aspherical Exc in radial PAW
   METAGGA=      F    non-selfconsistent MetaGGA calc.

 Electronic Relaxation 1
   ENCUT  = 1000.0 eV  73.50 Ry    8.57 a.u.  90.25 90.25 90.25*2*pi/ulx,y,z
   ENINI  = 1000.0     initial cutoff
   ENAUG  =  412.4 eV  augmentation charge cutoff
   NELM   =     60;   NELMIN=  2; NELMDL= -5     # of ELM steps 
   EDIFF  = 0.1E-06   stopping-criterion for ELM
   LREAL  =      F    real-space projection
   NLSPLINE    = F    spline interpolate recip. space projectors
   LCOMPAT=      F    compatible to vasp.4.4
   GGA_COMPAT  = T    GGA compatible to vasp.4.4-vasp.4.6
   LMAXPAW     = -100 max onsite density
   LMAXMIX     =    2 max onsite mixed and CHGCAR
   VOSKOWN=      0    Vosko Wilk Nusair interpolation
   ROPT   =    0.00000   0.00000   0.00000
 Ionic relaxation
   EDIFFG = 0.1E-05   stopping-criterion for IOM
   NSW    =      0    number of steps for IOM
   NBLOCK =      1;   KBLOCK =      1    inner block; outer block 
   IBRION =     -1    ionic relax: 0-MD 1-quasi-New 2-CG
   NFREE  =      0    steps in history (QN), initial steepest desc. (CG)
   ISIF   =      2    stress and relaxation
   IWAVPR =     10    prediction:  0-non 1-charg 2-wave 3-comb
   ISYM   =      2    0-nonsym 1-usesym 2-fastsym
   LCORR  =      T    Harris-Foulkes like correction to forces

   POTIM  = 0.5000    time-step for ionic-motion
   TEIN   =    0.0    initial temperature
   TEBEG  =    0.0;   TEEND  =   0.0 temperature during run
   SMASS  =  -3.00    Nose mass-parameter (am)
   estimated Nose-frequenzy (Omega)   =  0.10E-29 period in steps = 0.13E+47 mass=  -0.280E-25a.u.
   SCALEE = 1.0000    scale energy and forces
   NPACO  =    256;   APACO  = 16.0  distance and # of slots for P.C.
   PSTRESS=    0.0 pullay stress

  Mass of Ions in am
   POMASS =   1.00 14.00 16.00
  Ionic Valenz
   ZVAL   =   1.00  5.00  6.00
  Atomic Wigner-Seitz radii
   RWIGS  =  -1.00 -1.00 -1.00
  virtual crystal weights 
   VCA    =   1.00  1.00  1.00
   NELECT =      16.0000    total number of electrons
   NUPDOWN=      -1.0000    fix difference up-down

 DOS related values:
   EMIN   =  10.00;   EMAX   =-10.00  energy-range for DOS
   EFERMI =   0.00
   ISMEAR =     0;   SIGMA  =   0.01  broadening in eV -4-tet -1-fermi 0-gaus

 Electronic relaxation 2 (details)
   IALGO  =     38    algorithm
   LDIAG  =      T    sub-space diagonalisation (order eigenvalues)
   LSUBROT=      F    optimize rotation matrix (better conditioning)
   TURBO    =      0    0=normal 1=particle mesh
   IRESTART =      0    0=no restart 2=restart with 2 vectors
   NREBOOT  =      0    no. of reboots
   NMIN     =      0    reboot dimension
   EREF     =   0.00    reference energy to select bands
   IMIX   =      4    mixing-type and parameters
     AMIX     =   0.40;   BMIX     =  1.00
     AMIX_MAG =   1.60;   BMIX_MAG =  1.00
     AMIN     =   0.10
     WC   =   100.;   INIMIX=   1;  MIXPRE=   1;  MAXMIX= -45

 Intra band minimization:
   WEIMIN = 0.0000     energy-eigenvalue tresh-hold
   EBREAK =  0.21E-08  absolut break condition
   DEPER  =   0.30     relativ break condition  

   TIME   =   0.40     timestep for ELM

  volume/ion in A,a.u.               =    6125.00     41333.54
  Fermi-wavevector in a.u.,A,eV,Ry     =   0.117864  0.222730  0.189010  0.013892
  Thomas-Fermi vector in A             =   0.732055
 
 Write flags
   LWAVE        =      T    write WAVECAR
   LDOWNSAMPLE  =      F    k-point downsampling of WAVECAR
   LCHARG       =      T    write CHGCAR
   LVTOT        =      F    write LOCPOT, total local potential
   LVHAR        =      F    write LOCPOT, Hartree potential only
   LELF         =      F    write electronic localiz. function (ELF)
   LORBIT       =      0    0 simple, 1 ext, 2 COOP (PROOUT), +10 PAW based schemes


 Dipole corrections
   LMONO  =      F    monopole corrections only (constant potential shift)
   LDIPOL =      F    correct potential (dipole corrections)
   IDIPOL =      4    1-x, 2-y, 3-z, 4-all directions 
   EPSILON=  1.0000000 bulk dielectric constant

 Exchange correlation treatment:
   GGA     =    --    GGA type
   LEXCH   =     8    internal setting for exchange type
   VOSKOWN=      0    Vosko Wilk Nusair interpolation
   LHFCALC =     F    Hartree Fock is set to
   LHFONE  =     F    Hartree Fock one center treatment
   AEXX    =    0.0000 exact exchange contribution

 Linear response parameters
   LEPSILON=     F    determine dielectric tensor
   LRPA    =     F    only Hartree local field effects (RPA)
   LNABLA  =     F    use nabla operator in PAW spheres
   LVEL    =     F    velocity operator in full k-point grid
   LINTERFAST=   F  fast interpolation
   KINTER  =     0    interpolate to denser k-point grid
   CSHIFT  =0.1000    complex shift for real part using Kramers Kronig
   OMEGAMAX=  -1.0    maximum frequency
   DEG_THRESHOLD= 0.2000000E-02 threshold for treating states as degnerate
   RTIME   =   -0.100 relaxation time in fs
  (WPLASMAI=    0.000 imaginary part of plasma frequency in eV, 0.658/RTIME)
   DFIELD  = 0.0000000 0.0000000 0.0000000 field for delta impulse in time
 
 Orbital magnetization related:
   ORBITALMAG=     F  switch on orbital magnetization
   LCHIMAG   =     F  perturbation theory with respect to B field
   DQ        =  0.001000  dq finite difference perturbation B field
   LLRAUG    =     F  two centre corrections for induced B field



--------------------------------------------------------------------------------------------------------


 Static calculation
 charge density and potential will be updated during run
 non-spin polarized calculation
 Variant of blocked Davidson
 Davidson routine will perform the subspace rotation
 perform sub-space diagonalisation
    after iterative eigenvector-optimisation
 modified Broyden-mixing scheme, WC =      100.0
 initial mixing is a Kerker type mixing with AMIX =  0.4000 and BMIX =      1.0000
 Hartree-type preconditioning will be used
 using additional bands             4
 reciprocal scheme for non local part
 calculate Harris-corrections to forces 
   (improved forces if not selfconsistent)
 use gradient corrections 
 use of overlap-Matrix (Vanderbilt PP)
 Gauss-broadening in eV      SIGMA  =   0.01


--------------------------------------------------------------------------------------------------------


  energy-cutoff  :     1000.00
  volume of cell :    42875.00
      direct lattice vectors                 reciprocal lattice vectors
    35.000000000  0.000000000  0.000000000     0.028571429  0.000000000  0.000000000
     0.000000000 35.000000000  0.000000000     0.000000000  0.028571429  0.000000000
     0.000000000  0.000000000 35.000000000     0.000000000  0.000000000  0.028571429

  length of vectors
    35.000000000 35.000000000 35.000000000     0.028571429  0.028571429  0.028571429


 
 k-points in units of 2pi/SCALE and weight: automatic mesh                          
   0.00000000  0.00000000  0.00000000       1.000
 
 k-points in reciprocal lattice and weights: automatic mesh                          
   0.00000000  0.00000000  0.00000000       1.000
 
 position of ions in fractional coordinates (direct lattice) 
   0.01028850  0.00070268  0.02082149
   0.99949801  0.03888207  0.99668585
   0.97067326  0.00245802  0.99668630
   0.01931293  0.15189261  0.00931505
   0.98378205  0.15381139  0.98460458
   0.99858668  0.00998577  0.99606044
   0.00039844  0.13600404  0.99730377
 
 position of ions in cartesian coordinates  (Angst):
   0.36009743  0.02459378  0.72875202
  34.98243028  1.36087229 34.88400467
  33.97356397  0.08603060 34.88402033
   0.67595257  5.31624123  0.32602674
  34.43237184  5.38339870 34.46116020
  34.95053363  0.34950188 34.86211549
   0.01394528  4.76014156 34.90563195
 


--------------------------------------------------------------------------------------------------------


 k-point   1 :   0.0000 0.0000 0.0000  plane waves: 3078417

 maximum and minimum number of plane-waves per node :    384834   384776

 maximum number of plane-waves:   3078417
 maximum index in each direction: 
   IXMAX=   90   IYMAX=   90   IZMAX=   90
   IXMIN=  -90   IYMIN=  -90   IZMIN=  -90


 parallel 3D FFT for wavefunctions:
    minimum data exchange during FFTs selected (reduces bandwidth)
 parallel 3D FFT for charge:
    minimum data exchange during FFTs selected (reduces bandwidth)


 total amount of memory used by VASP MPI-rank0  1980562. kBytes
=======================================================================

   base      :      30000. kBytes
   nonl-proj :     116986. kBytes
   fftplans  :     660854. kBytes
   grid      :    1154248. kBytes
   one-center:          3. kBytes
   wavefun   :      18471. kBytes
 
     INWAV:  cpu time    0.0000: real time    0.0000
 Broyden mixing: mesh for mixing (old mesh)
   NGX =181   NGY =181   NGZ =181
  (NGX  =756   NGY  =756   NGZ  =756)
  gives a total of ****** points

 initial charge density was supplied:
 charge density of overlapping atoms calculated
 number of electron      16.0000000 magnetization 
 keeping initial charge density in first step


--------------------------------------------------------------------------------------------------------


 Maximum index for augmentation-charges          1274 (set IRDMAX)


--------------------------------------------------------------------------------------------------------


 First call to EWALD:  gamma=   0.051
 Maximum number of real-space cells 3x 3x 3
 Maximum number of reciprocal cells 3x 3x 3

    FEWALD:  cpu time    0.0009: real time    0.0009


--------------------------------------- Iteration      1(   1)  ---------------------------------------


    POTLOK:  cpu time   11.4047: real time   11.4200
    SETDIJ:  cpu time    0.0437: real time    0.0446
     EDDAV:  cpu time    9.5287: real time    9.5753
       DOS:  cpu time    0.0006: real time    0.0006
    --------------------------------------------
      LOOP:  cpu time   20.9776: real time   21.0404

 eigenvalue-minimisations  :    40
 total energy-change (2. order) : 0.1185171E+03  (-0.2510753E+03)
 number of electron      16.0000000 magnetization 
 augmentation part       16.0000000 magnetization 

 Free energy of the ion-electron system (eV)
  ---------------------------------------------------
  alpha Z        PSCENC =         0.01685297
  Ewald energy   TEWEN  =       486.27078974
  -Hartree energ DENC   =     -1050.08773023
  -exchange      EXHF   =         0.00000000
  -V(xc)+E(xc)   XCENC  =        58.92034930
  PAW double counting   =       564.72862029     -570.20265452
  entropy T*S    EENTRO =        -0.00000000
  eigenvalues    EBANDS =      -130.49769390
  atomic energy  EATOM  =       759.36853833
  Solvation  Ediel_sol  =         0.00000000
  ---------------------------------------------------
  free energy    TOTEN  =       118.51707198 eV

  energy without entropy =      118.51707198  energy(sigma->0) =      118.51707198


--------------------------------------------------------------------------------------------------------




--------------------------------------- Iteration      1(   2)  ---------------------------------------


     EDDAV:  cpu time   11.0462: real time   11.0627
       DOS:  cpu time    0.0014: real time    0.0014
    --------------------------------------------
      LOOP:  cpu time   11.0476: real time   11.0640

 eigenvalue-minimisations  :    48
 total energy-change (2. order) :-0.1192799E+03  (-0.1181560E+03)
 number of electron      16.0000000 magnetization 
 augmentation part       16.0000000 magnetization 

 Free energy of the ion-electron system (eV)
  ---------------------------------------------------
  alpha Z        PSCENC =         0.01685297
  Ewald energy   TEWEN  =       486.27078974
  -Hartree energ DENC   =     -1050.08773023
  -exchange      EXHF   =         0.00000000
  -V(xc)+E(xc)   XCENC  =        58.92034930
  PAW double counting   =       564.72862029     -570.20265452
  entropy T*S    EENTRO =        -0.00000000
  eigenvalues    EBANDS =      -249.77762940
  atomic energy  EATOM  =       759.36853833
  Solvation  Ediel_sol  =         0.00000000
  ---------------------------------------------------
  free energy    TOTEN  =        -0.76286352 eV

  energy without entropy =       -0.76286352  energy(sigma->0) =       -0.76286352


--------------------------------------------------------------------------------------------------------




--------------------------------------- Iteration      1(   3)  ---------------------------------------


     EDDAV:  cpu time    7.3876: real time    7.3989
       DOS:  cpu time    0.0012: real time    0.0012
    --------------------------------------------
      LOOP:  cpu time    7.3888: real time    7.4000

 eigenvalue-minimisations  :    28
 total energy-change (2. order) :-0.3652387E+02  (-0.3647727E+02)
 number of electron      16.0000000 magnetization 
 augmentation part       16.0000000 magnetization 

 Free energy of the ion-electron system (eV)
  ---------------------------------------------------
  alpha Z        PSCENC =         0.01685297
  Ewald energy   TEWEN  =       486.27078974
  -Hartree energ DENC   =     -1050.08773023
  -exchange      EXHF   =         0.00000000
  -V(xc)+E(xc)   XCENC  =        58.92034930
  PAW double counting   =       564.72862029     -570.20265452
  entropy T*S    EENTRO =        -0.00000000
  eigenvalues    EBANDS =      -286.30150325
  atomic energy  EATOM  =       759.36853833
  Solvation  Ediel_sol  =         0.00000000
  ---------------------------------------------------
  free energy    TOTEN  =       -37.28673737 eV

  energy without entropy =      -37.28673737  energy(sigma->0) =      -37.28673737


--------------------------------------------------------------------------------------------------------




--------------------------------------- Iteration      1(   4)  ---------------------------------------


     EDDAV:  cpu time    8.0951: real time    8.1066
       DOS:  cpu time    0.0003: real time    0.0003
    --------------------------------------------
      LOOP:  cpu time    8.0954: real time    8.1068

 eigenvalue-minimisations  :    32
 total energy-change (2. order) :-0.1533102E+01  (-0.1532778E+01)
 number of electron      16.0000000 magnetization 
 augmentation part       16.0000000 magnetization 

 Free energy of the ion-electron system (eV)
  ---------------------------------------------------
  alpha Z        PSCENC =         0.01685297
  Ewald energy   TEWEN  =       486.27078974
  -Hartree energ DENC   =     -1050.08773023
  -exchange      EXHF   =         0.00000000
  -V(xc)+E(xc)   XCENC  =        58.92034930
  PAW double counting   =       564.72862029     -570.20265452
  entropy T*S    EENTRO =        -0.00000000
  eigenvalues    EBANDS =      -287.83460568
  atomic energy  EATOM  =       759.36853833
  Solvation  Ediel_sol  =         0.00000000
  ---------------------------------------------------
  free energy    TOTEN  =       -38.81983980 eV

  energy without entropy =      -38.81983980  energy(sigma->0) =      -38.81983980


--------------------------------------------------------------------------------------------------------




--------------------------------------- Iteration      1(   5)  ---------------------------------------


     EDDAV:  cpu time    8.1055: real time    8.1174
       DOS:  cpu time    0.0004: real time    0.0004
    CHARGE:  cpu time    1.7799: real time    1.7825
    MIXING:  cpu time    0.2555: real time    0.2558
    --------------------------------------------
      LOOP:  cpu time   10.1414: real time   10.1562

 eigenvalue-minimisations  :    32
 total energy-change (2. order) :-0.1062371E-01  (-0.1061922E-01)
 number of electron      16.0000000 magnetization 
 augmentation part        2.5776657 magnetization 

 Broyden mixing:
  rms(total) = 0.24336E+01    rms(broyden)= 0.24336E+01
  rms(prec ) = 0.24547E+01
  weight for this iteration     100.00

 Free energy of the ion-electron system (eV)
  ---------------------------------------------------
  alpha Z        PSCENC =         0.01685297
  Ewald energy   TEWEN  =       486.27078974
  -Hartree energ DENC   =     -1050.08773023
  -exchange      EXHF   =         0.00000000
  -V(xc)+E(xc)   XCENC  =        58.92034930
  PAW double counting   =       564.72862029     -570.20265452
  entropy T*S    EENTRO =        -0.00000000
  eigenvalues    EBANDS =      -287.84522939
  atomic energy  EATOM  =       759.36853833
  Solvation  Ediel_sol  =         0.00000000
  ---------------------------------------------------
  free energy    TOTEN  =       -38.83046351 eV

  energy without entropy =      -38.83046351  energy(sigma->0) =      -38.83046351


--------------------------------------------------------------------------------------------------------




--------------------------------------- Iteration      1(   6)  ---------------------------------------


    POTLOK:  cpu time   11.2361: real time   11.2515
    SETDIJ:  cpu time    0.0438: real time    0.0438
     EDDAV:  cpu time    7.3831: real time    7.3935
       DOS:  cpu time    0.0015: real time    0.0015
    CHARGE:  cpu time    1.7452: real time    1.7475
    MIXING:  cpu time    0.2401: real time    0.2489
    --------------------------------------------
      LOOP:  cpu time   20.6497: real time   20.6868

 eigenvalue-minimisations  :    28
 total energy-change (2. order) : 0.4900639E+01  (-0.1943097E+01)
 number of electron      16.0000000 magnetization 
 augmentation part        2.1475500 magnetization 

 Broyden mixing:
  rms(total) = 0.36013E+01    rms(broyden)= 0.36013E+01
  rms(prec ) = 0.36026E+01
  weight for this iteration     100.00

 eigenvalues of (default mixing * dielectric matrix)
  average eigenvalue GAMMA=   0.5587
  0.5587

 Free energy of the ion-electron system (eV)
  ---------------------------------------------------
  alpha Z        PSCENC =         0.01685297
  Ewald energy   TEWEN  =       486.27078974
  -Hartree energ DENC   =     -1098.09311907
  -exchange      EXHF   =         0.00000000
  -V(xc)+E(xc)   XCENC  =        61.62860086
  PAW double counting   =      1016.96602910    -1024.31343975
  entropy T*S    EENTRO =        -0.00000000
  eigenvalues    EBANDS =      -235.77407685
  atomic energy  EATOM  =       759.36853833
  Solvation  Ediel_sol  =         0.00000000
  ---------------------------------------------------
  free energy    TOTEN  =       -33.92982465 eV

  energy without entropy =      -33.92982465  energy(sigma->0) =      -33.92982465


--------------------------------------------------------------------------------------------------------




--------------------------------------- Iteration      1(   7)  ---------------------------------------


    POTLOK:  cpu time   11.1955: real time   11.2120
    SETDIJ:  cpu time    0.0445: real time    0.0445
     EDDAV:  cpu time    7.3582: real time    7.3700
       DOS:  cpu time    0.0003: real time    0.0003
    CHARGE:  cpu time    1.7703: real time    1.7729
    MIXING:  cpu time    0.2308: real time    0.2407
    --------------------------------------------
      LOOP:  cpu time   20.5995: real time   20.6403

 eigenvalue-minimisations  :    28
 total energy-change (2. order) :-0.2666198E+00  (-0.5180200E-01)
 number of electron      16.0000000 magnetization 
 augmentation part        2.1520977 magnetization 

 Broyden mixing:
  rms(total) = 0.44007E+01    rms(broyden)= 0.44007E+01
  rms(prec ) = 0.44022E+01
  weight for this iteration     100.00

 eigenvalues of (default mixing * dielectric matrix)
  average eigenvalue GAMMA=   1.5325
  1.0303  2.0348

 Free energy of the ion-electron system (eV)
  ---------------------------------------------------
  alpha Z        PSCENC =         0.01685297
  Ewald energy   TEWEN  =       486.27078974
  -Hartree energ DENC   =     -1093.37217800
  -exchange      EXHF   =         0.00000000
  -V(xc)+E(xc)   XCENC  =        61.36879766
  PAW double counting   =       768.57454503     -775.87355028
  entropy T*S    EENTRO =        -0.00000000
  eigenvalues    EBANDS =      -240.55023991
  atomic energy  EATOM  =       759.36853833
  Solvation  Ediel_sol  =         0.00000000
  ---------------------------------------------------
  free energy    TOTEN  =       -34.19644446 eV

  energy without entropy =      -34.19644446  energy(sigma->0) =      -34.19644446


--------------------------------------------------------------------------------------------------------




--------------------------------------- Iteration      1(   8)  ---------------------------------------


    POTLOK:  cpu time   11.2362: real time   11.2515
    SETDIJ:  cpu time    0.0438: real time    0.0438
     EDDAV:  cpu time    7.3497: real time    7.3605
       DOS:  cpu time    0.0017: real time    0.0017
    CHARGE:  cpu time    1.7613: real time    1.7636
    MIXING:  cpu time    0.2524: real time    0.2527
    --------------------------------------------
      LOOP:  cpu time   20.6451: real time   20.6738

 eigenvalue-minimisations  :    28
 total energy-change (2. order) : 0.6896254E+00  (-0.2312935E+00)
 number of electron      16.0000000 magnetization 
 augmentation part        2.0434314 magnetization 

 Broyden mixing:
  rms(total) = 0.89217E+00    rms(broyden)= 0.89217E+00
  rms(prec ) = 0.89354E+00
  weight for this iteration     100.00

 eigenvalues of (default mixing * dielectric matrix)
  average eigenvalue GAMMA=   1.3105
  2.1954  1.1871  0.5488

 Free energy of the ion-electron system (eV)
  ---------------------------------------------------
  alpha Z        PSCENC =         0.01685297
  Ewald energy   TEWEN  =       486.27078974
  -Hartree energ DENC   =     -1123.32928042
  -exchange      EXHF   =         0.00000000
  -V(xc)+E(xc)   XCENC  =        63.07186314
  PAW double counting   =      2764.35385107    -2771.97179772
  entropy T*S    EENTRO =        -0.00000000
  eigenvalues    EBANDS =      -211.28763615
  atomic energy  EATOM  =       759.36853833
  Solvation  Ediel_sol  =         0.00000000
  ---------------------------------------------------
  free energy    TOTEN  =       -33.50681903 eV

  energy without entropy =      -33.50681903  energy(sigma->0) =      -33.50681903


--------------------------------------------------------------------------------------------------------




--------------------------------------- Iteration      1(   9)  ---------------------------------------


    POTLOK:  cpu time   11.2427: real time   11.2583
    SETDIJ:  cpu time    0.0433: real time    0.0434
     EDDAV:  cpu time    8.0766: real time    8.0961
       DOS:  cpu time    0.0011: real time    0.0011
    CHARGE:  cpu time    1.7228: real time    1.7250
    MIXING:  cpu time    0.2518: real time    0.2523
    --------------------------------------------
      LOOP:  cpu time   21.3384: real time   21.3762

 eigenvalue-minimisations  :    32
 total energy-change (2. order) : 0.8335174E-01  (-0.1740922E-01)
 number of electron      16.0000000 magnetization 
 augmentation part        2.0763083 magnetization 

 Broyden mixing:
  rms(total) = 0.41281E+00    rms(broyden)= 0.41281E+00
  rms(prec ) = 0.41379E+00
  weight for this iteration     100.00

 eigenvalues of (default mixing * dielectric matrix)
  average eigenvalue GAMMA=   1.3614
  2.2281  1.1963  1.1963  0.8249

 Free energy of the ion-electron system (eV)
  ---------------------------------------------------
  alpha Z        PSCENC =         0.01685297
  Ewald energy   TEWEN  =       486.27078974
  -Hartree energ DENC   =     -1121.76933297
  -exchange      EXHF   =         0.00000000
  -V(xc)+E(xc)   XCENC  =        62.98667799
  PAW double counting   =      2960.64885033    -2968.13510497
  entropy T*S    EENTRO =        -0.00000000
  eigenvalues    EBANDS =      -212.81073872
  atomic energy  EATOM  =       759.36853833
  Solvation  Ediel_sol  =         0.00000000
  ---------------------------------------------------
  free energy    TOTEN  =       -33.42346729 eV

  energy without entropy =      -33.42346729  energy(sigma->0) =      -33.42346729


--------------------------------------------------------------------------------------------------------




--------------------------------------- Iteration      1(  10)  ---------------------------------------


    POTLOK:  cpu time   11.2242: real time   11.2400
    SETDIJ:  cpu time    0.0435: real time    0.0435
     EDDAV:  cpu time    8.0760: real time    8.0878
       DOS:  cpu time    0.0007: real time    0.0007
    CHARGE:  cpu time    1.7507: real time    1.7530
    MIXING:  cpu time    0.2626: real time    0.2629
    --------------------------------------------
      LOOP:  cpu time   21.3576: real time   21.3879

 eigenvalue-minimisations  :    32
 total energy-change (2. order) : 0.1331153E-01  (-0.4195322E-02)
 number of electron      16.0000000 magnetization 
 augmentation part        2.0871403 magnetization 

 Broyden mixing:
  rms(total) = 0.16951E+00    rms(broyden)= 0.16951E+00
  rms(prec ) = 0.17039E+00
  weight for this iteration     100.00

 eigenvalues of (default mixing * dielectric matrix)
  average eigenvalue GAMMA=   1.2735
  2.1712  1.2099  1.2099  0.6657  1.1108

 Free energy of the ion-electron system (eV)
  ---------------------------------------------------
  alpha Z        PSCENC =         0.01685297
  Ewald energy   TEWEN  =       486.27078974
  -Hartree energ DENC   =     -1122.27362833
  -exchange      EXHF   =         0.00000000
  -V(xc)+E(xc)   XCENC  =        63.01203901
  PAW double counting   =      3025.46839999    -3032.96063913
  entropy T*S    EENTRO =        -0.00000000
  eigenvalues    EBANDS =      -212.31250833
  atomic energy  EATOM  =       759.36853833
  Solvation  Ediel_sol  =         0.00000000
  ---------------------------------------------------
  free energy    TOTEN  =       -33.41015576 eV

  energy without entropy =      -33.41015576  energy(sigma->0) =      -33.41015576


--------------------------------------------------------------------------------------------------------




--------------------------------------- Iteration      1(  11)  ---------------------------------------


    POTLOK:  cpu time   11.2215: real time   11.2385
    SETDIJ:  cpu time    0.0438: real time    0.0438
     EDDAV:  cpu time    8.1380: real time    8.1500
       DOS:  cpu time    0.0016: real time    0.0015
    CHARGE:  cpu time    1.7695: real time    1.7719
    MIXING:  cpu time    0.2910: real time    0.2914
    --------------------------------------------
      LOOP:  cpu time   21.4653: real time   21.4972

 eigenvalue-minimisations  :    32
 total energy-change (2. order) : 0.9160673E-03  (-0.6217025E-03)
 number of electron      16.0000000 magnetization 
 augmentation part        2.0942967 magnetization 

 Broyden mixing:
  rms(total) = 0.10232E+00    rms(broyden)= 0.10232E+00
  rms(prec ) = 0.10324E+00
  weight for this iteration     100.00

 eigenvalues of (default mixing * dielectric matrix)
  average eigenvalue GAMMA=   1.4841
  2.2372  2.2372  1.2624  1.2624  1.1773  0.7284

 Free energy of the ion-electron system (eV)
  ---------------------------------------------------
  alpha Z        PSCENC =         0.01685297
  Ewald energy   TEWEN  =       486.27078974
  -Hartree energ DENC   =     -1122.16376803
  -exchange      EXHF   =         0.00000000
  -V(xc)+E(xc)   XCENC  =        62.99654742
  PAW double counting   =      3023.31327123    -3030.78177154
  entropy T*S    EENTRO =        -0.00000000
  eigenvalues    EBANDS =      -212.42969981
  atomic energy  EATOM  =       759.36853833
  Solvation  Ediel_sol  =         0.00000000
  ---------------------------------------------------
  free energy    TOTEN  =       -33.40923969 eV

  energy without entropy =      -33.40923969  energy(sigma->0) =      -33.40923969


--------------------------------------------------------------------------------------------------------




--------------------------------------- Iteration      1(  12)  ---------------------------------------


    POTLOK:  cpu time   11.2476: real time   11.2628
    SETDIJ:  cpu time    0.0451: real time    0.0451
     EDDAV:  cpu time    6.6492: real time    6.6593
       DOS:  cpu time    0.0016: real time    0.0016
    CHARGE:  cpu time    1.7002: real time    1.7024
    MIXING:  cpu time    0.3073: real time    0.3077
    --------------------------------------------
      LOOP:  cpu time   19.9510: real time   19.9788

 eigenvalue-minimisations  :    24
 total energy-change (2. order) :-0.4330710E-02  (-0.1849169E-02)
 number of electron      16.0000000 magnetization 
 augmentation part        2.1024643 magnetization 

 Broyden mixing:
  rms(total) = 0.26581E-01    rms(broyden)= 0.26581E-01
  rms(prec ) = 0.27554E-01
  weight for this iteration     100.00

 eigenvalues of (default mixing * dielectric matrix)
  average eigenvalue GAMMA=   1.5034
  2.8910  2.4600  1.2771  1.2771  1.1301  0.7441  0.7441

 Free energy of the ion-electron system (eV)
  ---------------------------------------------------
  alpha Z        PSCENC =         0.01685297
  Ewald energy   TEWEN  =       486.27078974
  -Hartree energ DENC   =     -1123.46192170
  -exchange      EXHF   =         0.00000000
  -V(xc)+E(xc)   XCENC  =        63.03833659
  PAW double counting   =      3030.39883240    -3037.85665066
  entropy T*S    EENTRO =        -0.00000000
  eigenvalues    EBANDS =      -211.18834808
  atomic energy  EATOM  =       759.36853833
  Solvation  Ediel_sol  =         0.00000000
  ---------------------------------------------------
  free energy    TOTEN  =       -33.41357040 eV

  energy without entropy =      -33.41357040  energy(sigma->0) =      -33.41357040


--------------------------------------------------------------------------------------------------------




--------------------------------------- Iteration      1(  13)  ---------------------------------------


    POTLOK:  cpu time   11.2406: real time   11.2558
    SETDIJ:  cpu time    0.0497: real time    0.0498
     EDDAV:  cpu time    7.3478: real time    7.3584
       DOS:  cpu time    0.0015: real time    0.0015
    CHARGE:  cpu time    1.6979: real time    1.7003
    MIXING:  cpu time    0.3342: real time    0.3346
    --------------------------------------------
      LOOP:  cpu time   20.6717: real time   20.7004

 eigenvalue-minimisations  :    28
 total energy-change (2. order) :-0.2845074E-02  (-0.8201523E-04)
 number of electron      16.0000000 magnetization 
 augmentation part        2.1021532 magnetization 

 Broyden mixing:
  rms(total) = 0.28477E-01    rms(broyden)= 0.28477E-01
  rms(prec ) = 0.29070E-01
  weight for this iteration     100.00

 eigenvalues of (default mixing * dielectric matrix)
  average eigenvalue GAMMA=   1.5165
  2.9497  2.4212  1.4960  1.4960  0.7239  1.0222  1.0222  1.0005

 Free energy of the ion-electron system (eV)
  ---------------------------------------------------
  alpha Z        PSCENC =         0.01685297
  Ewald energy   TEWEN  =       486.27078974
  -Hartree energ DENC   =     -1124.07693785
  -exchange      EXHF   =         0.00000000
  -V(xc)+E(xc)   XCENC  =        63.05449065
  PAW double counting   =      3024.53685333    -3031.99539564
  entropy T*S    EENTRO =        -0.00000000
  eigenvalues    EBANDS =      -210.59160700
  atomic energy  EATOM  =       759.36853833
  Solvation  Ediel_sol  =         0.00000000
  ---------------------------------------------------
  free energy    TOTEN  =       -33.41641547 eV

  energy without entropy =      -33.41641547  energy(sigma->0) =      -33.41641547


--------------------------------------------------------------------------------------------------------




--------------------------------------- Iteration      1(  14)  ---------------------------------------


    POTLOK:  cpu time   11.2185: real time   11.2434
    SETDIJ:  cpu time    0.0436: real time    0.0437
     EDDAV:  cpu time    8.8619: real time    8.8746
       DOS:  cpu time    0.0021: real time    0.0021
    CHARGE:  cpu time    1.7623: real time    1.7646
    MIXING:  cpu time    0.3174: real time    0.3178
    --------------------------------------------
      LOOP:  cpu time   22.2057: real time   22.2462

 eigenvalue-minimisations  :    36
 total energy-change (2. order) :-0.3752149E-02  (-0.6330174E-04)
 number of electron      16.0000000 magnetization 
 augmentation part        2.1008813 magnetization 

 Broyden mixing:
  rms(total) = 0.18234E-01    rms(broyden)= 0.18234E-01
  rms(prec ) = 0.18738E-01
  weight for this iteration     100.00

 eigenvalues of (default mixing * dielectric matrix)
  average eigenvalue GAMMA=   1.6258
  3.3126  2.7321  2.4169  1.2462  1.2462  1.1075  0.7263  0.9221  0.9221

 Free energy of the ion-electron system (eV)
  ---------------------------------------------------
  alpha Z        PSCENC =         0.01685297
  Ewald energy   TEWEN  =       486.27078974
  -Hartree energ DENC   =     -1124.52110866
  -exchange      EXHF   =         0.00000000
  -V(xc)+E(xc)   XCENC  =        63.05688977
  PAW double counting   =      3022.19942134    -3029.65479885
  entropy T*S    EENTRO =        -0.00000000
  eigenvalues    EBANDS =      -210.15675227
  atomic energy  EATOM  =       759.36853833
  Solvation  Ediel_sol  =         0.00000000
  ---------------------------------------------------
  free energy    TOTEN  =       -33.42016762 eV

  energy without entropy =      -33.42016762  energy(sigma->0) =      -33.42016762


--------------------------------------------------------------------------------------------------------




--------------------------------------- Iteration      1(  15)  ---------------------------------------


    POTLOK:  cpu time   11.2761: real time   11.2915
    SETDIJ:  cpu time    0.0447: real time    0.0447
     EDDAV:  cpu time    7.3445: real time    7.3554
       DOS:  cpu time    0.0009: real time    0.0009
    CHARGE:  cpu time    1.7299: real time    1.7322
    MIXING:  cpu time    0.3363: real time    0.3368
    --------------------------------------------
      LOOP:  cpu time   20.7324: real time   20.7615

 eigenvalue-minimisations  :    28
 total energy-change (2. order) :-0.6493627E-02  (-0.2148396E-03)
 number of electron      16.0000000 magnetization 
 augmentation part        2.0988289 magnetization 

 Broyden mixing:
  rms(total) = 0.67649E-02    rms(broyden)= 0.67648E-02
  rms(prec ) = 0.70408E-02
  weight for this iteration     100.00

 eigenvalues of (default mixing * dielectric matrix)
  average eigenvalue GAMMA=   1.8193
  5.4139  2.5801  2.5801  1.4374  1.4374  1.0586  1.0586  0.7318  1.0460  0.8493

 Free energy of the ion-electron system (eV)
  ---------------------------------------------------
  alpha Z        PSCENC =         0.01685297
  Ewald energy   TEWEN  =       486.27078974
  -Hartree energ DENC   =     -1125.29383518
  -exchange      EXHF   =         0.00000000
  -V(xc)+E(xc)   XCENC  =        63.06066192
  PAW double counting   =      3014.22232729    -3021.67320649
  entropy T*S    EENTRO =        -0.00000000
  eigenvalues    EBANDS =      -209.39878982
  atomic energy  EATOM  =       759.36853833
  Solvation  Ediel_sol  =         0.00000000
  ---------------------------------------------------
  free energy    TOTEN  =       -33.42666125 eV

  energy without entropy =      -33.42666125  energy(sigma->0) =      -33.42666125


--------------------------------------------------------------------------------------------------------




--------------------------------------- Iteration      1(  16)  ---------------------------------------


    POTLOK:  cpu time   11.2586: real time   11.2745
    SETDIJ:  cpu time    0.0434: real time    0.0434
     EDDAV:  cpu time    9.5577: real time    9.5722
       DOS:  cpu time    0.0012: real time    0.0012
    CHARGE:  cpu time    1.7442: real time    1.7465
    MIXING:  cpu time    0.3156: real time    0.3160
    --------------------------------------------
      LOOP:  cpu time   22.9206: real time   22.9539

 eigenvalue-minimisations  :    40
 total energy-change (2. order) :-0.2638857E-02  (-0.3932486E-04)
 number of electron      16.0000000 magnetization 
 augmentation part        2.0983962 magnetization 

 Broyden mixing:
  rms(total) = 0.92521E-02    rms(broyden)= 0.92521E-02
  rms(prec ) = 0.93439E-02
  weight for this iteration     100.00

 eigenvalues of (default mixing * dielectric matrix)
  average eigenvalue GAMMA=   1.8093
  5.9955  2.7154  2.3205  1.5592  1.5592  1.1269  1.1269  1.1126  0.7233  0.8312
  0.8312

 Free energy of the ion-electron system (eV)
  ---------------------------------------------------
  alpha Z        PSCENC =         0.01685297
  Ewald energy   TEWEN  =       486.27078974
  -Hartree energ DENC   =     -1125.52506667
  -exchange      EXHF   =         0.00000000
  -V(xc)+E(xc)   XCENC  =        63.06057720
  PAW double counting   =      3012.47899320    -3019.92942287
  entropy T*S    EENTRO =        -0.00000000
  eigenvalues    EBANDS =      -209.17056201
  atomic energy  EATOM  =       759.36853833
  Solvation  Ediel_sol  =         0.00000000
  ---------------------------------------------------
  free energy    TOTEN  =       -33.42930010 eV

  energy without entropy =      -33.42930010  energy(sigma->0) =      -33.42930010


--------------------------------------------------------------------------------------------------------




--------------------------------------- Iteration      1(  17)  ---------------------------------------


    POTLOK:  cpu time   11.2409: real time   11.2578
    SETDIJ:  cpu time    0.0419: real time    0.0420
     EDDAV:  cpu time    8.0918: real time    8.1037
       DOS:  cpu time    0.0003: real time    0.0003
    CHARGE:  cpu time    1.7424: real time    1.7447
    MIXING:  cpu time    0.3429: real time    0.3434
    --------------------------------------------
      LOOP:  cpu time   21.4602: real time   21.4919

 eigenvalue-minimisations  :    32
 total energy-change (2. order) :-0.9997890E-03  (-0.6577393E-05)
 number of electron      16.0000000 magnetization 
 augmentation part        2.0988548 magnetization 

 Broyden mixing:
  rms(total) = 0.44138E-02    rms(broyden)= 0.44138E-02
  rms(prec ) = 0.45148E-02
  weight for this iteration     100.00

 eigenvalues of (default mixing * dielectric matrix)
  average eigenvalue GAMMA=   1.8880
  6.3963  3.1823  2.0373  2.0373  1.9826  1.1759  1.1759  1.0908  1.0908  0.7290
  0.8790  0.8790

 Free energy of the ion-electron system (eV)
  ---------------------------------------------------
  alpha Z        PSCENC =         0.01685297
  Ewald energy   TEWEN  =       486.27078974
  -Hartree energ DENC   =     -1125.52058166
  -exchange      EXHF   =         0.00000000
  -V(xc)+E(xc)   XCENC  =        63.05753248
  PAW double counting   =      3012.56901474    -3020.01903015
  entropy T*S    EENTRO =        -0.00000000
  eigenvalues    EBANDS =      -209.17341635
  atomic energy  EATOM  =       759.36853833
  Solvation  Ediel_sol  =         0.00000000
  ---------------------------------------------------
  free energy    TOTEN  =       -33.43029989 eV

  energy without entropy =      -33.43029989  energy(sigma->0) =      -33.43029989


--------------------------------------------------------------------------------------------------------




--------------------------------------- Iteration      1(  18)  ---------------------------------------


    POTLOK:  cpu time   11.2620: real time   11.2774
    SETDIJ:  cpu time    0.0450: real time    0.0450
     EDDAV:  cpu time    6.6161: real time    6.6256
       DOS:  cpu time    0.0001: real time    0.0001
    CHARGE:  cpu time    1.7613: real time    1.7636
    MIXING:  cpu time    0.3588: real time    0.3593
    --------------------------------------------
      LOOP:  cpu time   20.0432: real time   20.0711

 eigenvalue-minimisations  :    24
 total energy-change (2. order) :-0.1983747E-02  (-0.1698259E-04)
 number of electron      16.0000000 magnetization 
 augmentation part        2.0990493 magnetization 

 Broyden mixing:
  rms(total) = 0.11596E-02    rms(broyden)= 0.11596E-02
  rms(prec ) = 0.12478E-02
  weight for this iteration     100.00

 eigenvalues of (default mixing * dielectric matrix)
  average eigenvalue GAMMA=   1.9760
  7.5407  3.6478  2.1290  2.0797  2.0797  1.1702  1.1702  1.1960  1.1960  1.0405
  0.7281  0.8552  0.8552

 Free energy of the ion-electron system (eV)
  ---------------------------------------------------
  alpha Z        PSCENC =         0.01685297
  Ewald energy   TEWEN  =       486.27078974
  -Hartree energ DENC   =     -1125.53881635
  -exchange      EXHF   =         0.00000000
  -V(xc)+E(xc)   XCENC  =        63.05411365
  PAW double counting   =      3012.97842568    -3020.42947295
  entropy T*S    EENTRO =        -0.00000000
  eigenvalues    EBANDS =      -209.15271472
  atomic energy  EATOM  =       759.36853833
  Solvation  Ediel_sol  =         0.00000000
  ---------------------------------------------------
  free energy    TOTEN  =       -33.43228364 eV

  energy without entropy =      -33.43228364  energy(sigma->0) =      -33.43228364


--------------------------------------------------------------------------------------------------------




--------------------------------------- Iteration      1(  19)  ---------------------------------------


    POTLOK:  cpu time   11.2514: real time   11.2666
    SETDIJ:  cpu time    0.0444: real time    0.0444
     EDDAV:  cpu time    9.5736: real time    9.5917
       DOS:  cpu time    0.0002: real time    0.0001
    CHARGE:  cpu time    1.7347: real time    1.7370
    MIXING:  cpu time    0.3740: real time    0.3745
    --------------------------------------------
      LOOP:  cpu time   22.9782: real time   23.0143

 eigenvalue-minimisations  :    40
 total energy-change (2. order) :-0.7234047E-03  (-0.5505276E-05)
 number of electron      16.0000000 magnetization 
 augmentation part        2.0991286 magnetization 

 Broyden mixing:
  rms(total) = 0.11047E-02    rms(broyden)= 0.11047E-02
  rms(prec ) = 0.11328E-02
  weight for this iteration     100.00

 eigenvalues of (default mixing * dielectric matrix)
  average eigenvalue GAMMA=   2.0646
  8.4608  4.1938  2.4501  2.4501  1.7455  1.7455  1.1908  1.1908  1.0264  1.0264
  1.0193  0.7278  0.8385  0.8385

 Free energy of the ion-electron system (eV)
  ---------------------------------------------------
  alpha Z        PSCENC =         0.01685297
  Ewald energy   TEWEN  =       486.27078974
  -Hartree energ DENC   =     -1125.54838908
  -exchange      EXHF   =         0.00000000
  -V(xc)+E(xc)   XCENC  =        63.05228795
  PAW double counting   =      3013.40272174    -3020.85331418
  entropy T*S    EENTRO =        -0.00000000
  eigenvalues    EBANDS =      -209.14249452
  atomic energy  EATOM  =       759.36853833
  Solvation  Ediel_sol  =         0.00000000
  ---------------------------------------------------
  free energy    TOTEN  =       -33.43300705 eV

  energy without entropy =      -33.43300705  energy(sigma->0) =      -33.43300705


--------------------------------------------------------------------------------------------------------




--------------------------------------- Iteration      1(  20)  ---------------------------------------


    POTLOK:  cpu time   11.2384: real time   11.2537
    SETDIJ:  cpu time    0.0425: real time    0.0425
     EDDAV:  cpu time    6.6529: real time    6.6622
       DOS:  cpu time    0.0002: real time    0.0002
    CHARGE:  cpu time    1.7644: real time    1.7688
    MIXING:  cpu time    0.3838: real time    0.3843
    --------------------------------------------
      LOOP:  cpu time   20.0822: real time   20.1118

 eigenvalue-minimisations  :    24
 total energy-change (2. order) :-0.3565927E-03  (-0.1303455E-05)
 number of electron      16.0000000 magnetization 
 augmentation part        2.0991951 magnetization 

 Broyden mixing:
  rms(total) = 0.11413E-02    rms(broyden)= 0.11413E-02
  rms(prec ) = 0.11530E-02
  weight for this iteration     100.00

 eigenvalues of (default mixing * dielectric matrix)
  average eigenvalue GAMMA=   2.1088
  8.6096  4.8538  2.8252  2.3211  1.9979  1.9979  1.1800  1.1800  1.1424  1.1424
  1.1462  0.8626  0.8626  0.7289  0.7810

 Free energy of the ion-electron system (eV)
  ---------------------------------------------------
  alpha Z        PSCENC =         0.01685297
  Ewald energy   TEWEN  =       486.27078974
  -Hartree energ DENC   =     -1125.54294766
  -exchange      EXHF   =         0.00000000
  -V(xc)+E(xc)   XCENC  =        63.05118957
  PAW double counting   =      3013.05033320    -3020.50056564
  entropy T*S    EENTRO =        -0.00000000
  eigenvalues    EBANDS =      -209.14755415
  atomic energy  EATOM  =       759.36853833
  Solvation  Ediel_sol  =         0.00000000
  ---------------------------------------------------
  free energy    TOTEN  =       -33.43336364 eV

  energy without entropy =      -33.43336364  energy(sigma->0) =      -33.43336364


--------------------------------------------------------------------------------------------------------




--------------------------------------- Iteration      1(  21)  ---------------------------------------


    POTLOK:  cpu time   11.2321: real time   11.2476
    SETDIJ:  cpu time    0.0437: real time    0.0437
     EDDAV:  cpu time    9.5711: real time    9.5909
       DOS:  cpu time    0.0012: real time    0.0012
    CHARGE:  cpu time    1.7430: real time    1.7452
    MIXING:  cpu time    0.4008: real time    0.4014
    --------------------------------------------
      LOOP:  cpu time   22.9918: real time   23.0300

 eigenvalue-minimisations  :    40
 total energy-change (2. order) :-0.1733118E-03  (-0.5232940E-06)
 number of electron      16.0000000 magnetization 
 augmentation part        2.0990964 magnetization 

 Broyden mixing:
  rms(total) = 0.29227E-03    rms(broyden)= 0.29227E-03
  rms(prec ) = 0.30456E-03
  weight for this iteration     100.00

 eigenvalues of (default mixing * dielectric matrix)
  average eigenvalue GAMMA=   2.1732
  8.8685  5.5365  3.1097  2.5252  2.1352  2.1352  1.3961  1.3961  1.1886  1.1886
  1.0189  1.0189  0.7283  0.8585  0.8585  0.8091

 Free energy of the ion-electron system (eV)
  ---------------------------------------------------
  alpha Z        PSCENC =         0.01685297
  Ewald energy   TEWEN  =       486.27078974
  -Hartree energ DENC   =     -1125.54995230
  -exchange      EXHF   =         0.00000000
  -V(xc)+E(xc)   XCENC  =        63.05135270
  PAW double counting   =      3012.86026224    -3020.31051529
  entropy T*S    EENTRO =        -0.00000000
  eigenvalues    EBANDS =      -209.14086534
  atomic energy  EATOM  =       759.36853833
  Solvation  Ediel_sol  =         0.00000000
  ---------------------------------------------------
  free energy    TOTEN  =       -33.43353695 eV

  energy without entropy =      -33.43353695  energy(sigma->0) =      -33.43353695


--------------------------------------------------------------------------------------------------------




--------------------------------------- Iteration      1(  22)  ---------------------------------------


    POTLOK:  cpu time   11.2171: real time   11.2324
    SETDIJ:  cpu time    0.0450: real time    0.0451
     EDDAV:  cpu time    6.6493: real time    6.6598
       DOS:  cpu time    0.0001: real time    0.0001
    CHARGE:  cpu time    1.7584: real time    1.7607
    MIXING:  cpu time    0.4142: real time    0.4147
    --------------------------------------------
      LOOP:  cpu time   20.0841: real time   20.1129

 eigenvalue-minimisations  :    24
 total energy-change (2. order) :-0.1098859E-03  (-0.1621226E-06)
 number of electron      16.0000000 magnetization 
 augmentation part        2.0990912 magnetization 

 Broyden mixing:
  rms(total) = 0.27756E-03    rms(broyden)= 0.27756E-03
  rms(prec ) = 0.28086E-03
  weight for this iteration     100.00

 eigenvalues of (default mixing * dielectric matrix)
  average eigenvalue GAMMA=   2.1467
  8.9589  5.7256  3.2779  2.4672  2.4672  1.8735  1.8735  1.2014  1.2014  1.1076
  1.1076  1.1053  0.7282  0.8514  0.8514  0.8482  0.8482

 Free energy of the ion-electron system (eV)
  ---------------------------------------------------
  alpha Z        PSCENC =         0.01685297
  Ewald energy   TEWEN  =       486.27078974
  -Hartree energ DENC   =     -1125.54883538
  -exchange      EXHF   =         0.00000000
  -V(xc)+E(xc)   XCENC  =        63.05109277
  PAW double counting   =      3012.82369186    -3020.27388542
  entropy T*S    EENTRO =        -0.00000000
  eigenvalues    EBANDS =      -209.14189171
  atomic energy  EATOM  =       759.36853833
  Solvation  Ediel_sol  =         0.00000000
  ---------------------------------------------------
  free energy    TOTEN  =       -33.43364684 eV

  energy without entropy =      -33.43364684  energy(sigma->0) =      -33.43364684


--------------------------------------------------------------------------------------------------------




--------------------------------------- Iteration      1(  23)  ---------------------------------------


    POTLOK:  cpu time   11.1998: real time   11.2164
    SETDIJ:  cpu time    0.0438: real time    0.0438
     EDDAV:  cpu time    6.6854: real time    6.6949
       DOS:  cpu time    0.0006: real time    0.0006
    CHARGE:  cpu time    1.7501: real time    1.7525
    MIXING:  cpu time    0.4301: real time    0.4308
    --------------------------------------------
      LOOP:  cpu time   20.1098: real time   20.1390

 eigenvalue-minimisations  :    24
 total energy-change (2. order) :-0.2803347E-04  (-0.1447152E-07)
 number of electron      16.0000000 magnetization 
 augmentation part        2.0990829 magnetization 

 Broyden mixing:
  rms(total) = 0.10981E-03    rms(broyden)= 0.10981E-03
  rms(prec ) = 0.11394E-03
  weight for this iteration     100.00

 eigenvalues of (default mixing * dielectric matrix)
  average eigenvalue GAMMA=   2.1965
  9.0646  6.1986  3.6608  2.4326  2.4326  2.2527  2.0114  1.6085  1.1911  1.1911
  1.1389  1.1389  1.0203  0.7283  0.8846  0.8846  0.8484  0.8484

 Free energy of the ion-electron system (eV)
  ---------------------------------------------------
  alpha Z        PSCENC =         0.01685297
  Ewald energy   TEWEN  =       486.27078974
  -Hartree energ DENC   =     -1125.55153470
  -exchange      EXHF   =         0.00000000
  -V(xc)+E(xc)   XCENC  =        63.05116794
  PAW double counting   =      3012.94384552    -3020.39410897
  entropy T*S    EENTRO =        -0.00000000
  eigenvalues    EBANDS =      -209.13922571
  atomic energy  EATOM  =       759.36853833
  Solvation  Ediel_sol  =         0.00000000
  ---------------------------------------------------
  free energy    TOTEN  =       -33.43367487 eV

  energy without entropy =      -33.43367487  energy(sigma->0) =      -33.43367487


--------------------------------------------------------------------------------------------------------




--------------------------------------- Iteration      1(  24)  ---------------------------------------


    POTLOK:  cpu time   11.1987: real time   11.2142
    SETDIJ:  cpu time    0.0455: real time    0.0455
     EDDAV:  cpu time    6.6329: real time    6.6450
       DOS:  cpu time    0.0006: real time    0.0006
    CHARGE:  cpu time    1.7490: real time    1.7515
    MIXING:  cpu time    0.4558: real time    0.4565
    --------------------------------------------
      LOOP:  cpu time   20.0825: real time   20.1133

 eigenvalue-minimisations  :    24
 total energy-change (2. order) :-0.2927000E-04  (-0.1820478E-07)
 number of electron      16.0000000 magnetization 
 augmentation part        2.0990956 magnetization 

 Broyden mixing:
  rms(total) = 0.16835E-03    rms(broyden)= 0.16835E-03
  rms(prec ) = 0.16910E-03
  weight for this iteration     100.00

 eigenvalues of (default mixing * dielectric matrix)
  average eigenvalue GAMMA=   2.2268
  9.4212  6.3577  4.4618  2.5981  2.3428  2.1742  2.1742  1.6714  1.1740  1.1740
  1.2421  1.2421  1.0926  0.9677  0.9677  0.7283  0.8541  0.8541  0.8102

 Free energy of the ion-electron system (eV)
  ---------------------------------------------------
  alpha Z        PSCENC =         0.01685297
  Ewald energy   TEWEN  =       486.27078974
  -Hartree energ DENC   =     -1125.55114160
  -exchange      EXHF   =         0.00000000
  -V(xc)+E(xc)   XCENC  =        63.05110372
  PAW double counting   =      3012.99958978    -3020.44986420
  entropy T*S    EENTRO =        -0.00000000
  eigenvalues    EBANDS =      -209.13957289
  atomic energy  EATOM  =       759.36853833
  Solvation  Ediel_sol  =         0.00000000
  ---------------------------------------------------
  free energy    TOTEN  =       -33.43370414 eV

  energy without entropy =      -33.43370414  energy(sigma->0) =      -33.43370414


--------------------------------------------------------------------------------------------------------




--------------------------------------- Iteration      1(  25)  ---------------------------------------


    POTLOK:  cpu time   11.2141: real time   11.2293
    SETDIJ:  cpu time    0.0435: real time    0.0435
     EDDAV:  cpu time    6.6788: real time    6.6885
       DOS:  cpu time    0.0002: real time    0.0002
    CHARGE:  cpu time    1.7275: real time    1.7299
    MIXING:  cpu time    0.4860: real time    0.4868
    --------------------------------------------
      LOOP:  cpu time   20.1502: real time   20.1782

 eigenvalue-minimisations  :    24
 total energy-change (2. order) :-0.9523722E-05  (-0.4832984E-08)
 number of electron      16.0000000 magnetization 
 augmentation part        2.0990904 magnetization 

 Broyden mixing:
  rms(total) = 0.26528E-04    rms(broyden)= 0.26528E-04
  rms(prec ) = 0.27956E-04
  weight for this iteration     100.00

 eigenvalues of (default mixing * dielectric matrix)
  average eigenvalue GAMMA=   2.1970
  9.4318  6.6863  4.6256  2.8793  2.4285  2.1992  2.1992  1.4725  1.4725  1.1878
  1.1878  1.0925  1.0925  0.9595  0.9595  0.8939  0.8939  0.7284  0.7751  0.7751

 Free energy of the ion-electron system (eV)
  ---------------------------------------------------
  alpha Z        PSCENC =         0.01685297
  Ewald energy   TEWEN  =       486.27078974
  -Hartree energ DENC   =     -1125.55246675
  -exchange      EXHF   =         0.00000000
  -V(xc)+E(xc)   XCENC  =        63.05112789
  PAW double counting   =      3012.93810584    -3020.38836566
  entropy T*S    EENTRO =        -0.00000000
  eigenvalues    EBANDS =      -209.13829602
  atomic energy  EATOM  =       759.36853833
  Solvation  Ediel_sol  =         0.00000000
  ---------------------------------------------------
  free energy    TOTEN  =       -33.43371366 eV

  energy without entropy =      -33.43371366  energy(sigma->0) =      -33.43371366


--------------------------------------------------------------------------------------------------------




--------------------------------------- Iteration      1(  26)  ---------------------------------------


    POTLOK:  cpu time   11.2207: real time   11.2440
    SETDIJ:  cpu time    0.0436: real time    0.0436
     EDDAV:  cpu time    5.1704: real time    5.1778
       DOS:  cpu time    0.0001: real time    0.0001
    CHARGE:  cpu time    1.7448: real time    1.7470
    MIXING:  cpu time    0.4699: real time    0.4706
    --------------------------------------------
      LOOP:  cpu time   18.6495: real time   18.6832

 eigenvalue-minimisations  :    16
 total energy-change (2. order) :-0.3322929E-05  (-0.1640817E-08)
 number of electron      16.0000000 magnetization 
 augmentation part        2.0990908 magnetization 

 Broyden mixing:
  rms(total) = 0.33568E-04    rms(broyden)= 0.33568E-04
  rms(prec ) = 0.34225E-04
  weight for this iteration     100.00

 eigenvalues of (default mixing * dielectric matrix)
  average eigenvalue GAMMA=   2.2439
  9.5519  7.0094  4.8833  3.4405  2.5507  2.5507  2.0457  2.0457  1.3901  1.1829
  1.1829  1.2321  1.2321  1.0139  0.9952  0.9952  0.7283  0.8651  0.8651  0.8046
  0.5556

 Free energy of the ion-electron system (eV)
  ---------------------------------------------------
  alpha Z        PSCENC =         0.01685297
  Ewald energy   TEWEN  =       486.27078974
  -Hartree energ DENC   =     -1125.55239994
  -exchange      EXHF   =         0.00000000
  -V(xc)+E(xc)   XCENC  =        63.05111998
  PAW double counting   =      3012.94973447    -3020.39999070
  entropy T*S    EENTRO =        -0.00000000
  eigenvalues    EBANDS =      -209.13836184
  atomic energy  EATOM  =       759.36853833
  Solvation  Ediel_sol  =         0.00000000
  ---------------------------------------------------
  free energy    TOTEN  =       -33.43371699 eV

  energy without entropy =      -33.43371699  energy(sigma->0) =      -33.43371699


--------------------------------------------------------------------------------------------------------




--------------------------------------- Iteration      1(  27)  ---------------------------------------


    POTLOK:  cpu time   11.2239: real time   11.2397
    SETDIJ:  cpu time    0.0436: real time    0.0436
     EDDAV:  cpu time    5.1630: real time    5.1703
       DOS:  cpu time    0.0007: real time    0.0007
    CHARGE:  cpu time    1.7433: real time    1.7460
    MIXING:  cpu time    0.4914: real time    0.4922
    --------------------------------------------
      LOOP:  cpu time   18.6659: real time   18.6924

 eigenvalue-minimisations  :    16
 total energy-change (2. order) :-0.4171066E-05  (-0.1824727E-08)
 number of electron      16.0000000 magnetization 
 augmentation part        2.0990895 magnetization 

 Broyden mixing:
  rms(total) = 0.59445E-04    rms(broyden)= 0.59445E-04
  rms(prec ) = 0.59575E-04
  weight for this iteration     100.00

 eigenvalues of (default mixing * dielectric matrix)
  average eigenvalue GAMMA=   2.2103
  9.5937  7.0814  5.0454  3.5133  2.5035  2.5035  2.1472  2.1472  1.6827  1.1725
  1.1725  1.2429  1.2429  1.0458  0.9541  0.9541  0.8716  0.8716  0.7284  0.8184
  0.7806  0.5532

 Free energy of the ion-electron system (eV)
  ---------------------------------------------------
  alpha Z        PSCENC =         0.01685297
  Ewald energy   TEWEN  =       486.27078974
  -Hartree energ DENC   =     -1125.55228394
  -exchange      EXHF   =         0.00000000
  -V(xc)+E(xc)   XCENC  =        63.05111870
  PAW double counting   =      3012.91928430    -3020.36954332
  entropy T*S    EENTRO =        -0.00000000
  eigenvalues    EBANDS =      -209.13847795
  atomic energy  EATOM  =       759.36853833
  Solvation  Ediel_sol  =         0.00000000
  ---------------------------------------------------
  free energy    TOTEN  =       -33.43372116 eV

  energy without entropy =      -33.43372116  energy(sigma->0) =      -33.43372116


--------------------------------------------------------------------------------------------------------




--------------------------------------- Iteration      1(  28)  ---------------------------------------


    POTLOK:  cpu time   11.2375: real time   11.2529
    SETDIJ:  cpu time    0.0454: real time    0.0455
     EDDAV:  cpu time    6.6855: real time    6.6952
       DOS:  cpu time    0.0014: real time    0.0014
    CHARGE:  cpu time    1.7469: real time    1.7494
    MIXING:  cpu time    0.5037: real time    0.5043
    --------------------------------------------
      LOOP:  cpu time   20.2204: real time   20.2486

 eigenvalue-minimisations  :    24
 total energy-change (2. order) :-0.1321656E-05  (-0.1019588E-08)
 number of electron      16.0000000 magnetization 
 augmentation part        2.0990923 magnetization 

 Broyden mixing:
  rms(total) = 0.25642E-04    rms(broyden)= 0.25642E-04
  rms(prec ) = 0.25744E-04
  weight for this iteration     100.00

 eigenvalues of (default mixing * dielectric matrix)
  average eigenvalue GAMMA=   2.2009
  9.6288  7.2337  5.3504  3.7581  2.5313  2.5313  2.2359  2.2359  1.6789  1.3155
  1.1715  1.1715  1.2219  1.2219  1.0372  1.0372  0.7283  0.8707  0.8707  0.9246
  0.8071  0.6190  0.4404

 Free energy of the ion-electron system (eV)
  ---------------------------------------------------
  alpha Z        PSCENC =         0.01685297
  Ewald energy   TEWEN  =       486.27078974
  -Hartree energ DENC   =     -1125.55203926
  -exchange      EXHF   =         0.00000000
  -V(xc)+E(xc)   XCENC  =        63.05110456
  PAW double counting   =      3012.94453244    -3020.39479102
  entropy T*S    EENTRO =        -0.00000000
  eigenvalues    EBANDS =      -209.13871024
  atomic energy  EATOM  =       759.36853833
  Solvation  Ediel_sol  =         0.00000000
  ---------------------------------------------------
  free energy    TOTEN  =       -33.43372248 eV

  energy without entropy =      -33.43372248  energy(sigma->0) =      -33.43372248


--------------------------------------------------------------------------------------------------------




--------------------------------------- Iteration      1(  29)  ---------------------------------------


    POTLOK:  cpu time   11.2255: real time   11.2429
    SETDIJ:  cpu time    0.0440: real time    0.0440
[...]
       DOS:  cpu time    0.0008: real time    0.0008
    CHARGE:  cpu time    1.7429: real time    1.7453
    MIXING:  cpu time    0.5282: real time    0.5291
    --------------------------------------------
      LOOP:  cpu time   18.7338: real time   18.7622

 eigenvalue-minimisations  :    16
 total energy-change (2. order) :-0.5779627E-06  (-0.7696404E-09)
 number of electron      16.0000000 magnetization 
 augmentation part        2.0990923 magnetization 

 Broyden mixing:
  rms(total) = 0.16444E-04    rms(broyden)= 0.16444E-04
  rms(prec ) = 0.16540E-04
  weight for this iteration     100.00

 eigenvalues of (default mixing * dielectric matrix)
  average eigenvalue GAMMA=   2.2112
  9.6192  7.5660  5.5848  4.1191  2.6703  2.3632  2.3632  2.0709  2.0709  1.5953
  1.3116  1.3116  1.1704  1.1704  0.7283  0.9783  0.9783  1.0030  0.8713  0.8713
  0.9131  0.8029  0.5315  0.4040

 Free energy of the ion-electron system (eV)
  ---------------------------------------------------
  alpha Z        PSCENC =         0.01685297
  Ewald energy   TEWEN  =       486.27078974
  -Hartree energ DENC   =     -1125.55196110
  -exchange      EXHF   =         0.00000000
  -V(xc)+E(xc)   XCENC  =        63.05110129
  PAW double counting   =      3012.94432267    -3020.39458198
  entropy T*S    EENTRO =        -0.00000000
  eigenvalues    EBANDS =      -209.13878498
  atomic energy  EATOM  =       759.36853833
  Solvation  Ediel_sol  =         0.00000000
  ---------------------------------------------------
  free energy    TOTEN  =       -33.43372306 eV

  energy without entropy =      -33.43372306  energy(sigma->0) =      -33.43372306


--------------------------------------------------------------------------------------------------------




--------------------------------------- Iteration      1(  30)  ---------------------------------------


    POTLOK:  cpu time   11.1835: real time   11.1983
    SETDIJ:  cpu time    0.0456: real time    0.0456
     EDDAV:  cpu time    6.6218: real time    6.6311
       DOS:  cpu time    0.0018: real time    0.0018
    CHARGE:  cpu time    1.7209: real time    1.7232
    MIXING:  cpu time    0.5515: real time    0.5523
    --------------------------------------------
      LOOP:  cpu time   20.1251: real time   20.1524

 eigenvalue-minimisations  :    24
 total energy-change (2. order) :-0.5385730E-06  (-0.5916885E-09)
 number of electron      16.0000000 magnetization 
 augmentation part        2.0990926 magnetization 

 Broyden mixing:
  rms(total) = 0.16618E-04    rms(broyden)= 0.16618E-04
  rms(prec ) = 0.16660E-04
  weight for this iteration     100.00

 eigenvalues of (default mixing * dielectric matrix)
  average eigenvalue GAMMA=   2.1749
  9.6174  7.6289  5.6407  4.1229  2.8527  2.4560  2.4560  2.0725  2.0725  1.5015
  1.2724  1.2724  1.1638  1.1638  1.0536  1.0536  1.0182  0.7283  0.8939  0.8939
  0.8666  0.8666  0.7998  0.5349  0.3705

 Free energy of the ion-electron system (eV)
  ---------------------------------------------------
  alpha Z        PSCENC =         0.01685297
  Ewald energy   TEWEN  =       486.27078974
  -Hartree energ DENC   =     -1125.55197059
  -exchange      EXHF   =         0.00000000
  -V(xc)+E(xc)   XCENC  =        63.05110195
  PAW double counting   =      3012.94113783    -3020.39139670
  entropy T*S    EENTRO =        -0.00000000
  eigenvalues    EBANDS =      -209.13877712
  atomic energy  EATOM  =       759.36853833
  Solvation  Ediel_sol  =         0.00000000
  ---------------------------------------------------
  free energy    TOTEN  =       -33.43372360 eV

  energy without entropy =      -33.43372360  energy(sigma->0) =      -33.43372360


--------------------------------------------------------------------------------------------------------




--------------------------------------- Iteration      1(  31)  ---------------------------------------


    POTLOK:  cpu time   11.1845: real time   11.2001
    SETDIJ:  cpu time    0.0444: real time    0.0444
     EDDAV:  cpu time    5.1852: real time    5.1925
       DOS:  cpu time    0.0006: real time    0.0006
    CHARGE:  cpu time    1.7670: real time    1.7695
    MIXING:  cpu time    0.5767: real time    0.5776
    --------------------------------------------
      LOOP:  cpu time   18.7584: real time   18.7847

 eigenvalue-minimisations  :    16
 total energy-change (2. order) :-0.2097363E-06  (-0.5020180E-09)
 number of electron      16.0000000 magnetization 
 augmentation part        2.0990915 magnetization 

 Broyden mixing:
  rms(total) = 0.20749E-05    rms(broyden)= 0.20749E-05
  rms(prec ) = 0.22078E-05
  weight for this iteration     100.00

 eigenvalues of (default mixing * dielectric matrix)
  average eigenvalue GAMMA=   2.1490
  9.6391  7.7285  5.7014  4.3524  3.0387  2.4997  2.4997  2.0346  2.0346  1.4922
  1.2318  1.2318  1.1701  1.1701  1.1276  1.1276  1.0176  0.9663  0.9663  0.8607
  0.8607  0.7284  0.8016  0.7017  0.5200  0.3721

 Free energy of the ion-electron system (eV)
  ---------------------------------------------------
  alpha Z        PSCENC =         0.01685297
  Ewald energy   TEWEN  =       486.27078974
  -Hartree energ DENC   =     -1125.55205855
  -exchange      EXHF   =         0.00000000
  -V(xc)+E(xc)   XCENC  =        63.05110665
  PAW double counting   =      3012.93925352    -3020.38951402
  entropy T*S    EENTRO =        -0.00000000
  eigenvalues    EBANDS =      -209.13869245
  atomic energy  EATOM  =       759.36853833
  Solvation  Ediel_sol  =         0.00000000
  ---------------------------------------------------
  free energy    TOTEN  =       -33.43372381 eV

  energy without entropy =      -33.43372381  energy(sigma->0) =      -33.43372381


--------------------------------------------------------------------------------------------------------




--------------------------------------- Iteration      1(  32)  ---------------------------------------


    POTLOK:  cpu time   11.1807: real time   11.1960
    SETDIJ:  cpu time    0.0445: real time    0.0445
     EDDAV:  cpu time    5.1824: real time    5.1900
       DOS:  cpu time    0.0021: real time    0.0021
    CHARGE:  cpu time    1.7412: real time    1.7435
    MIXING:  cpu time    0.6044: real time    0.6054
    --------------------------------------------
      LOOP:  cpu time   18.7553: real time   18.7815

 eigenvalue-minimisations  :    16
 total energy-change (2. order) :-0.1476717E-06  (-0.4624052E-09)
 number of electron      16.0000000 magnetization 
 augmentation part        2.0990921 magnetization 

 Broyden mixing:
  rms(total) = 0.11040E-04    rms(broyden)= 0.11040E-04
  rms(prec ) = 0.11057E-04
  weight for this iteration     100.00

 eigenvalues of (default mixing * dielectric matrix)
  average eigenvalue GAMMA=   2.1599
  9.6776  7.9040  6.0266  4.5050  3.2950  2.4589  2.4589  2.4868  1.9054  1.9054
  1.3895  1.3895  1.1717  1.1717  1.1693  1.1693  0.9856  0.9261  0.9261  0.8689
  0.8689  0.7283  0.8034  0.6202  0.6202  0.3618  0.5227

 Free energy of the ion-electron system (eV)
  ---------------------------------------------------
  alpha Z        PSCENC =         0.01685297
  Ewald energy   TEWEN  =       486.27078974
  -Hartree energ DENC   =     -1125.55201028
  -exchange      EXHF   =         0.00000000
  -V(xc)+E(xc)   XCENC  =        63.05110455
  PAW double counting   =      3012.94049014    -3020.39075030
  entropy T*S    EENTRO =        -0.00000000
  eigenvalues    EBANDS =      -209.13873911
  atomic energy  EATOM  =       759.36853833
  Solvation  Ediel_sol  =         0.00000000
  ---------------------------------------------------
  free energy    TOTEN  =       -33.43372395 eV

  energy without entropy =      -33.43372395  energy(sigma->0) =      -33.43372395


--------------------------------------------------------------------------------------------------------




--------------------------------------- Iteration      1(  33)  ---------------------------------------


    POTLOK:  cpu time   11.1674: real time   11.1826
    SETDIJ:  cpu time    0.0429: real time    0.0429
     EDDAV:  cpu time    5.1616: real time    5.1690
       DOS:  cpu time    0.0007: real time    0.0007
    CHARGE:  cpu time    1.7211: real time    1.7234
    MIXING:  cpu time    0.6491: real time    0.6500
    --------------------------------------------
      LOOP:  cpu time   18.7426: real time   18.7686

 eigenvalue-minimisations  :    16
 total energy-change (2. order) :-0.1242679E-06  (-0.4305107E-09)
 number of electron      16.0000000 magnetization 
 augmentation part        2.0990915 magnetization 

 Broyden mixing:
  rms(total) = 0.17248E-05    rms(broyden)= 0.17248E-05
  rms(prec ) = 0.17626E-05
  weight for this iteration     100.00

 eigenvalues of (default mixing * dielectric matrix)
  average eigenvalue GAMMA=   2.1629
  9.7167  7.9971  6.2467  4.7226  3.5589  2.5675  2.3322  2.3322  1.9847  1.9847
  1.4168  1.4168  1.4420  1.1721  1.1721  1.0723  1.0723  0.9704  0.9704  0.7283
  0.9457  0.8684  0.8684  0.8799  0.7996  0.3519  0.5356  0.4364

 Free energy of the ion-electron system (eV)
  ---------------------------------------------------
  alpha Z        PSCENC =         0.01685297
  Ewald energy   TEWEN  =       486.27078974
  -Hartree energ DENC   =     -1125.55203204
  -exchange      EXHF   =         0.00000000
  -V(xc)+E(xc)   XCENC  =        63.05110559
  PAW double counting   =      3012.93710310    -3020.38736346
  entropy T*S    EENTRO =        -0.00000000
  eigenvalues    EBANDS =      -209.13871832
  atomic energy  EATOM  =       759.36853833
  Solvation  Ediel_sol  =         0.00000000
  ---------------------------------------------------
  free energy    TOTEN  =       -33.43372408 eV

  energy without entropy =      -33.43372408  energy(sigma->0) =      -33.43372408


--------------------------------------------------------------------------------------------------------




--------------------------------------- Iteration      1(  34)  ---------------------------------------


    POTLOK:  cpu time   11.1684: real time   11.1844
    SETDIJ:  cpu time    0.0442: real time    0.0442
     EDDAV:  cpu time    5.1851: real time    5.1925
       DOS:  cpu time    0.0011: real time    0.0011
    --------------------------------------------
      LOOP:  cpu time   16.3987: real time   16.4222

 eigenvalue-minimisations  :    16
 total energy-change (2. order) :-0.7355925E-07  (-0.3938485E-09)
 number of electron      16.0000000 magnetization 
 augmentation part        2.0990915 magnetization 

 Free energy of the ion-electron system (eV)
  ---------------------------------------------------
  alpha Z        PSCENC =         0.01685297
  Ewald energy   TEWEN  =       486.27078974
  -Hartree energ DENC   =     -1125.55202343
  -exchange      EXHF   =         0.00000000
  -V(xc)+E(xc)   XCENC  =        63.05110515
  PAW double counting   =      3012.93656289    -3020.38682282
  entropy T*S    EENTRO =        -0.00000000
  eigenvalues    EBANDS =      -209.13872699
  atomic energy  EATOM  =       759.36853833
  Solvation  Ediel_sol  =         0.00000000
  ---------------------------------------------------
  free energy    TOTEN  =       -33.43372415 eV

  energy without entropy =      -33.43372415  energy(sigma->0) =      -33.43372415


--------------------------------------------------------------------------------------------------------




 average (electrostatic) potential at core
  the test charge radii are     0.6256  0.9051  0.8742
  (the norm of the test charge is              1.0000)
       1 -39.5556       2 -39.4479       3 -39.5541       4 -41.5713       5 -41.5704
       6 -84.4579       7 -90.8747
 
 
 
 E-fermi :  -5.7772     XC(G=0):  -0.0352     alpha+bet : -0.0073


 k-point     1 :       0.0000    0.0000    0.0000
  band No.  band energies     occupation 
      1     -25.6468      2.00000
      2     -20.9559      2.00000
      3     -13.3021      2.00000
      4     -11.0401      2.00000
      5     -11.0021      2.00000
      6      -9.3937      2.00000
      7      -7.3888      2.00000
      8      -5.8398      2.00000
      9      -1.1317      0.00000
     10      -0.4209      0.00000
     11      -0.0001      0.00000
     12       0.0827      0.00000


--------------------------------------------------------------------------------------------------------


 soft charge-density along one line, spin component            1
         0         1         2         3         4         5         6         7         8         9
 total charge-density along one line
 
 pseudopotential strength for first ion, spin component:            1
 -2.292  -3.629  -0.009   0.022   0.011
 -3.629  -5.576  -0.017   0.041   0.021
 -0.009  -0.017  -0.128  -0.010  -0.004
  0.022   0.041  -0.010  -0.108   0.012
  0.011   0.021  -0.004   0.012  -0.126
 total augmentation occupancy for first ion, spin component:            1
  2.963  -0.477   0.292  -0.769  -0.369
 -0.477   0.141  -0.034   0.107   0.043
  0.292  -0.034   0.070  -0.060  -0.045
 -0.769   0.107  -0.060   0.225   0.076
 -0.369   0.043  -0.045   0.076   0.091


------------------------ aborting loop because EDIFF is reached ----------------------------------------



 DIPCOR: dipole corrections for dipol
 direction  1 min pos   358, direction  2 min pos   405, direction  3 min pos   348,
 dipolmoment           0.120021     -0.538700     -0.241739 electrons x Angstroem
 Tr[quadrupol]         3.918855

 energy correction for charged system         0.000000 eV
 dipol+quadrupol energy correction            0.000255 eV
 added-field ion interaction          0.000000 eV  (added to PSCEN)

 
  *************** adding dipol energy to TOTEN NOW **************** 
    CHARGE:  cpu time    1.7178: real time    1.7203
    FORLOC:  cpu time    0.6080: real time    0.6086
    FORNL :  cpu time    0.3474: real time    0.3480
    STRESS:  cpu time    4.4834: real time    4.4929
    FORHAR:  cpu time    3.3324: real time    3.3465
    MIXING:  cpu time    0.6494: real time    0.6503
    OFIELD:  cpu time    0.0000: real time    0.0000

  FORCE on cell =-STRESS in cart. coord.  units (eV):
  Direction    XX          YY          ZZ          XY          YZ          ZX
  --------------------------------------------------------------------------------------
  Alpha Z     0.01685     0.01685     0.01685
  Ewald     121.94586   317.06756    47.25737    18.98795   -29.14156    85.62811
  Hartree   315.83941   507.27406   302.43852     7.22946    -6.27070    15.08944
  E(xc)     -66.71596   -66.72631   -66.98729     0.04597    -0.09166     0.31741
  Local    -672.77544 -1061.45968  -608.11631   -22.03924    27.06316   -73.60803
  n-local    23.22533    22.68654    25.29077    -0.23672     0.46540    -2.59345
  augment    61.40503    61.83243    65.19860    -0.52236     1.11767    -4.55893
  Kinetic   219.58785   221.38509   236.25598    -3.32693     6.52476   -18.85736
  Fock        0.00000     0.00000     0.00000     0.00000     0.00000     0.00000
  -------------------------------------------------------------------------------------
  Total       2.52893     2.07655     1.35449     0.13814    -0.33293     1.41718
  in kB       0.09450     0.07760     0.05062     0.00516    -0.01244     0.05296
  external pressure =        0.07 kB  Pullay stress =        0.00 kB


 VOLUME and BASIS-vectors are now :
 -----------------------------------------------------------------------------
  energy-cutoff  :     1000.00
  volume of cell :    42875.00
      direct lattice vectors                 reciprocal lattice vectors
    35.000000000  0.000000000  0.000000000     0.028571429  0.000000000  0.000000000
     0.000000000 35.000000000  0.000000000     0.000000000  0.028571429  0.000000000
     0.000000000  0.000000000 35.000000000     0.000000000  0.000000000  0.028571429

  length of vectors
    35.000000000 35.000000000 35.000000000     0.028571429  0.028571429  0.028571429


 FORCES acting on ions
    electron-ion (+dipol)            ewald-force                    non-local-force                 convergence-correction
 -----------------------------------------------------------------------------------------------
   -.313E+02 0.291E+02 -.600E+02   0.347E+02 -.318E+02 0.666E+02   -.301E+01 0.238E+01 -.594E+01   -.145E-06 0.704E-06 -.888E-06
   -.383E+01 -.618E+02 0.129E+01   0.422E+01 0.698E+02 -.137E+01   -.335E+00 -.712E+01 0.299E-01   0.990E-07 -.830E-06 -.181E-06
   0.693E+02 0.247E+02 0.126E+01   -.769E+02 -.269E+02 -.133E+01   0.680E+01 0.194E+01 0.320E-01   0.831E-06 0.635E-06 -.217E-06
   -.634E+02 -.531E+02 -.404E+02   0.702E+02 0.583E+02 0.448E+02   -.548E+01 -.428E+01 -.350E+01   -.214E-06 -.601E-06 -.277E-06
   0.560E+02 -.595E+02 0.426E+02   -.621E+02 0.654E+02 -.472E+02   0.486E+01 -.483E+01 0.369E+01   0.273E-06 -.632E-06 0.940E-07
   -.174E+02 0.421E+02 0.307E+02   0.367E+02 -.569E+02 -.635E+02   -.190E+02 0.145E+02 0.322E+02   0.257E-05 0.314E-05 -.361E-05
   0.232E+01 0.103E+02 -.701E+00   -.689E+01 -.780E+02 0.199E+01   0.443E+01 0.656E+02 -.124E+01   0.413E-06 -.452E-05 -.103E-05
 -----------------------------------------------------------------------------------------------
   0.117E+02 -.682E+02 -.253E+02   0.533E-14 0.284E-13 0.144E-13   -.117E+02 0.682E+02 0.253E+02   0.383E-05 -.211E-05 -.611E-05
 
 
 POSITION                                       TOTAL-FORCE (eV/Angst)
 -----------------------------------------------------------------------------------
      0.36010      0.02459      0.72875         0.382375     -0.303579      0.680733
     34.98243      1.36087     34.88400         0.062063      0.888144     -0.048868
     33.97356      0.08603     34.88402        -0.798056     -0.246421     -0.038663
      0.67595      5.31624      0.32603         1.346168      0.923374      0.863222
     34.43237      5.38340     34.46116        -1.206202      1.058726     -0.912252
     34.95053      0.34950     34.86212         0.355233     -0.302815     -0.596805
      0.01395      4.76014     34.90563        -0.141580     -2.017429      0.052632
 -----------------------------------------------------------------------------------
    total drift:                                0.000108     -0.000093     -0.000035


--------------------------------------------------------------------------------------------------------



  FREE ENERGIE OF THE ION-ELECTRON SYSTEM (eV)
  ---------------------------------------------------
  free  energy   TOTEN  =       -33.43346877 eV

  energy  without entropy=      -33.43346877  energy(sigma->0) =      -33.43346877
 


--------------------------------------------------------------------------------------------------------


    POTLOK:  cpu time   11.2281: real time   11.2428


--------------------------------------------------------------------------------------------------------


 writing wavefunctions
     LOOP+:  cpu time  954.3347: real time  955.5697
    4ORBIT:  cpu time    0.0000: real time    0.0000

 total amount of memory used by VASP MPI-rank0  1980562. kBytes
=======================================================================

   base      :      30000. kBytes
   nonl-proj :     116986. kBytes
   fftplans  :     660854. kBytes
   grid      :    1154248. kBytes
   one-center:          3. kBytes
   wavefun   :      18471. kBytes
 
  
  
 General timing and accounting informations for this job:
 ========================================================
  
                  Total CPU time used (sec):     1278.312
                            User time (sec):     1213.589
                          System time (sec):       64.723
                         Elapsed time (sec):     1281.324
  
                   Maximum memory used (kb):     2420468.
                   Average memory used (kb):           0.
  
                          Minor page faults:     26418554
                          Major page faults:          682
                 Voluntary context switches:         5637
