 vasp.6.1.2 22Jul20 (build Jan  5 2021 21:18:56) complex                         
 executed on             LinuxPGI date 2021.02.12  14:00:54
 running on   32 total cores
 distrk:  each k-point on   32 cores,    1 groups
 distr:  one band on NCORE=   8 cores,    4 groups


--------------------------------------------------------------------------------------------------------


 INCAR:
 POTCAR:    PAW_PBE H_s 15May2010                 
 POTCAR:    PAW_PBE N_s 07Sep2000                 
 POTCAR:    PAW_PBE O_s 07Sep2000                 
 POTCAR:    PAW_PBE H_s 15May2010                 
   VRHFIN =H: ultrasoft test                                                                        
   LEXCH  = PE                                                                                      
   EATOM  =    12.4884 eV,    0.9179 Ry                                                             
                                                                                                    
   TITEL  = PAW_PBE H_s 15May2010                                                                   
   LULTRA =        F    use ultrasoft PP ?                                                          
   IUNSCR =        0    unscreen: 0-lin 1-nonlin 2-no                                               
   RPACOR =    0.000    partial core radius                                                         
   POMASS =    1.000; ZVAL   =    1.000    mass and valenz                                          
   RCORE  =    1.300    outmost cutoff radius                                                       
   RWIGS  =    0.700; RWIGS  =    0.370    wigner-seitz radius (au A)                               
   ENMAX  =  200.000; ENMIN  =  150.000 eV                                                          
   RCLOC  =    0.701    cutoff for local pot                                                        
   LCOR   =        T    correct aug charges                                                         
   LPAW   =        T    paw PP                                                                      
   EAUG   =  300.000                                                                                
   RMAX   =    1.330    core radius for proj-oper                                                   
   RAUG   =    1.200    factor for augmentation sphere                                              
   RDEP   =    1.337    radius for radial grids                                                     
   RDEPT  =    1.114    core radius for aug-charge                                                  
                                                                                                    
   Atomic configuration                                                                             
    2 entries                                                                                       
     n  l   j            E        occ.                                                              
     1  0  0.50        -6.4927   1.0000                                                             
     2  1  0.50        -3.4015   0.0000                                                             
   Description                                                                                      
     l       E           TYP  RCUT    TYP  RCUT                                                     
     0     -6.4927494     23  1.300                                                                 
     0      6.8029130     23  1.300                                                                 
     1     -4.0817478     23  1.300                                                                 
  local pseudopotential read in
  atomic valenz-charges read in
  non local Contribution for L=            0  read in
    real space projection operators read in
  non local Contribution for L=            0  read in
    real space projection operators read in
  non local Contribution for L=            1  read in
    real space projection operators read in
    PAW grid and wavefunctions read in
 
   number of l-projection  operators is LMAX  =            3
   number of lm-projection operators is LMMAX =            5
 
 POTCAR:    PAW_PBE N_s 07Sep2000                 
   VRHFIN =N: s2p3                                                                                  
   LEXCH  = PE                                                                                      
   EATOM  =   264.5486 eV,   19.4438 Ry                                                             
                                                                                                    
   TITEL  = PAW_PBE N_s 07Sep2000                                                                   
   LULTRA =        F    use ultrasoft PP ?                                                          
   IUNSCR =        0    unscreen: 0-lin 1-nonlin 2-no                                               
   RPACOR =    0.000    partial core radius                                                         
   POMASS =   14.001; ZVAL   =    5.000    mass and valenz                                          
   RCORE  =    1.850    outmost cutoff radius                                                       
   RWIGS  =    1.850; RWIGS  =    0.979    wigner-seitz radius (au A)                               
   ENMAX  =  279.692; ENMIN  =  209.769 eV                                                          
   RCLOC  =    0.803    cutoff for local pot                                                        
   LCOR   =        T    correct aug charges                                                         
   LPAW   =        T    paw PP                                                                      
   EAUG   =  384.743                                                                                
   DEXC   =    0.000                                                                                
   RMAX   =    1.893    core radius for proj-oper                                                   
   RAUG   =    1.300    factor for augmentation sphere                                              
   RDEP   =    1.933    radius for radial grids                                                     
   RDEPT  =    1.632    core radius for aug-charge                                                  
                                                                                                    
   Atomic configuration                                                                             
    4 entries                                                                                       
     n  l   j            E        occ.                                                              
     1  0  0.50      -384.7179   2.0000                                                             
     2  0  0.50       -18.5828   2.0000                                                             
     2  1  0.50        -7.0898   3.0000                                                             
     3  2  1.50        -1.3606   0.0000                                                             
   Description                                                                                      
     l       E           TYP  RCUT    TYP  RCUT                                                     
     0    -18.5828119     23  1.500                                                                 
     0    -19.9433945     23  1.500                                                                 
     1     -7.0897853     23  1.850                                                                 
     1     -4.8150613     23  1.850                                                                 
  local pseudopotential read in
  atomic valenz-charges read in
  non local Contribution for L=            0  read in
    real space projection operators read in
  non local Contribution for L=            0  read in
    real space projection operators read in
  non local Contribution for L=            1  read in
    real space projection operators read in
  non local Contribution for L=            1  read in
    real space projection operators read in
    PAW grid and wavefunctions read in
 
   number of l-projection  operators is LMAX  =            4
   number of lm-projection operators is LMMAX =            8
 
 POTCAR:    PAW_PBE O_s 07Sep2000                 
   VRHFIN =O: s2p4                                                                                  
   LEXCH  = PE                                                                                      
   EATOM  =   432.3788 eV,   31.7789 Ry                                                             
                                                                                                    
   TITEL  = PAW_PBE O_s 07Sep2000                                                                   
   LULTRA =        F    use ultrasoft PP ?                                                          
   IUNSCR =        0    unscreen: 0-lin 1-nonlin 2-no                                               
   RPACOR =    0.000    partial core radius                                                         
   POMASS =   16.000; ZVAL   =    6.000    mass and valenz                                          
   RCORE  =    1.850    outmost cutoff radius                                                       
   RWIGS  =    1.700; RWIGS  =    0.900    wigner-seitz radius (au A)                               
   ENMAX  =  282.853; ENMIN  =  212.140 eV                                                          
   RCLOC  =    0.804    cutoff for local pot                                                        
   LCOR   =        T    correct aug charges                                                         
   LPAW   =        T    paw PP                                                                      
   EAUG   =  412.352                                                                                
   RMAX   =    1.897    core radius for proj-oper                                                   
   RAUG   =    1.300    factor for augmentation sphere                                              
   RDEP   =    1.878    radius for radial grids                                                     
   RDEPT  =    1.572    core radius for aug-charge                                                  
                                                                                                    
   Atomic configuration                                                                             
    4 entries                                                                                       
     n  l   j            E        occ.                                                              
     1  0  0.50      -514.6923   2.0000                                                             
     2  0  0.50       -23.9615   2.0000                                                             
     2  1  0.50        -9.0305   4.0000                                                             
     3  2  1.50        -1.3606   0.0000                                                             
   Description                                                                                      
     l       E           TYP  RCUT    TYP  RCUT                                                     
     0    -23.9615315     23  1.500                                                                 
     0    -25.3221141     23  1.500                                                                 
     1     -9.0304908     23  1.850                                                                 
     1     -7.3935399     23  1.850                                                                 
  local pseudopotential read in
  atomic valenz-charges read in
  non local Contribution for L=            0  read in
    real space projection operators read in
  non local Contribution for L=            0  read in
    real space projection operators read in
  non local Contribution for L=            1  read in
    real space projection operators read in
  non local Contribution for L=            1  read in
    real space projection operators read in
    PAW grid and wavefunctions read in
 
   number of l-projection  operators is LMAX  =            4
   number of lm-projection operators is LMMAX =            8
 
  PAW_PBE H_s 15May2010                 :
 energy of atom  1       EATOM=  -12.4884
 kinetic energy error for atom=    0.0000 (will be added to EATOM!!)
  PAW_PBE N_s 07Sep2000                 :
 energy of atom  2       EATOM= -264.5486
 kinetic energy error for atom=    0.0003 (will be added to EATOM!!)
  PAW_PBE O_s 07Sep2000                 :
 energy of atom  3       EATOM= -432.3788
 kinetic energy error for atom=    0.0004 (will be added to EATOM!!)
 
 
 POSCAR:  H  N  O
  positions in cartesian coordinates
  No initial velocities read in
 exchange correlation table for  LEXCH =        8
   RHO(1)=    0.500       N(1)  =     2000
   RHO(2)=  100.500       N(2)  =     4000
 


--------------------------------------------------------------------------------------------------------


 ion  position               nearest neighbor table
   1  0.010  0.001  0.021-   6 1.01
   2  0.999  0.039  0.997-   6 1.01
   3  0.971  0.002  0.997-   6 1.01
   4  0.019  0.146  0.009-   7 0.96
   5  0.984  0.148  0.985-   7 0.96
   6  0.999  0.010  0.996-   3 1.01   2 1.01   1 1.01
   7  0.000  0.130  0.997-   5 0.96   4 0.96
 
  LATTYP: Found a simple cubic cell.
 ALAT       =    35.0000000000
  
  Lattice vectors:
  
 A1 = (  35.0000000000,   0.0000000000,   0.0000000000)
 A2 = (   0.0000000000,  35.0000000000,   0.0000000000)
 A3 = (   0.0000000000,   0.0000000000,  35.0000000000)


Analysis of symmetry for initial positions (statically):
=====================================================================
 Subroutine PRICEL returns:
 Original cell was already a primitive cell.
 

 Routine SETGRP: Setting up the symmetry group for a 
 simple cubic supercell.


 Subroutine GETGRP returns: Found  1 space group operations
 (whereof  1 operations were pure point group operations)
 out of a pool of 48 trial point group operations.


The static configuration has the point symmetry C_1 .


Analysis of symmetry for dynamics (positions and initial velocities):
=====================================================================
 Subroutine PRICEL returns:
 Original cell was already a primitive cell.
 

 Routine SETGRP: Setting up the symmetry group for a 
 simple cubic supercell.


 Subroutine GETGRP returns: Found  1 space group operations
 (whereof  1 operations were pure point group operations)
 out of a pool of 48 trial point group operations.


The dynamic configuration has the point symmetry C_1 .


 Subroutine INISYM returns: Found  1 space group operations
 (whereof  1 operations are pure point group operations),
 and found     1 'primitive' translations


----------------------------------------------------------------------------------------

                                     Primitive cell                                     

  volume of cell :   42875.0000

  direct lattice vectors                    reciprocal lattice vectors
    35.000000000  0.000000000  0.000000000     0.028571429  0.000000000  0.000000000
     0.000000000 35.000000000  0.000000000     0.000000000  0.028571429  0.000000000
     0.000000000  0.000000000 35.000000000     0.000000000  0.000000000  0.028571429

  length of vectors
    35.000000000 35.000000000 35.000000000     0.028571429  0.028571429  0.028571429

  position of ions in fractional coordinates (direct lattice)
     0.010288498  0.000702679  0.020821486
     0.999498008  0.038882065  0.996685848
     0.970673256  0.002458017  0.996686295
     0.019312931  0.146178321  0.009315050
     0.983782053  0.148097106  0.984604577
     0.998586675  0.009985768  0.996060442
     0.000398437  0.130289759  0.997303770

  ion indices of the primitive-cell ions
   primitive index   ion index
                 1           1
                 2           2
                 3           3
                 4           4
                 5           5
                 6           6
                 7           7

----------------------------------------------------------------------------------------

 
 
 KPOINTS: automatic mesh                          

Automatic generation of k-mesh.
Space group operators:
 irot       det(A)        alpha          n_x          n_y          n_z        tau_x        tau_y        tau_z
    1     1.000000     0.000000     1.000000     0.000000     0.000000     0.000000     0.000000     0.000000
 
 Subroutine IBZKPT returns following result:
 ===========================================
 
 Found      1 irreducible k-points:
 
 Following reciprocal coordinates:
            Coordinates               Weight
  0.000000  0.000000  0.000000      1.000000
 
 Following cartesian coordinates:
            Coordinates               Weight
  0.000000  0.000000  0.000000      1.000000
 


--------------------------------------------------------------------------------------------------------




 Dimension of arrays:
   k-points           NKPTS =      1   k-points in BZ     NKDIM =      1   number of bands    NBANDS=     12
   number of dos      NEDOS =    301   number of ions     NIONS =      7
   non local maximal  LDIM  =      4   non local SUM 2l+1 LMDIM =      8
   total plane-waves  NPLWV = ******
   max r-space proj   IRMAX =      1   max aug-charges    IRDMAX=  32454
   dimension x,y,z NGX =   378 NGY =  378 NGZ =  378
   dimension x,y,z NGXF=   756 NGYF=  756 NGZF=  756
   support grid    NGXF=   756 NGYF=  756 NGZF=  756
   ions per type =               5   1   1
   NGX,Y,Z   is equivalent  to a cutoff of  17.95, 17.95, 17.95 a.u.
   NGXF,Y,Z  is equivalent  to a cutoff of  35.91, 35.91, 35.91 a.u.

 SYSTEM =  C                                       
 POSCAR =   H  N  O                                

 Startparameter for this run:
   NWRITE =      2    write-flag & timer
   PREC   = acc       normal or accurate (medium, high low for compatibility)
   ISTART =      0    job   : 0-new  1-cont  2-samecut
   ICHARG =      2    charge: 1-file 2-atom 10-const
   ISPIN  =      1    spin polarized calculation?
   LNONCOLLINEAR =      F non collinear calculations
   LSORBIT =      F    spin-orbit coupling
   INIWAV =      1    electr: 0-lowe 1-rand  2-diag
   LASPH  =      T    aspherical Exc in radial PAW
   METAGGA=      F    non-selfconsistent MetaGGA calc.

 Electronic Relaxation 1
   ENCUT  = 1000.0 eV  73.50 Ry    8.57 a.u.  90.25 90.25 90.25*2*pi/ulx,y,z
   ENINI  = 1000.0     initial cutoff
   ENAUG  =  412.4 eV  augmentation charge cutoff
   NELM   =     60;   NELMIN=  2; NELMDL= -5     # of ELM steps 
   EDIFF  = 0.1E-06   stopping-criterion for ELM
   LREAL  =      F    real-space projection
   NLSPLINE    = F    spline interpolate recip. space projectors
   LCOMPAT=      F    compatible to vasp.4.4
   GGA_COMPAT  = T    GGA compatible to vasp.4.4-vasp.4.6
   LMAXPAW     = -100 max onsite density
   LMAXMIX     =    2 max onsite mixed and CHGCAR
   VOSKOWN=      0    Vosko Wilk Nusair interpolation
   ROPT   =    0.00000   0.00000   0.00000
 Ionic relaxation
   EDIFFG = 0.1E-05   stopping-criterion for IOM
   NSW    =      0    number of steps for IOM
   NBLOCK =      1;   KBLOCK =      1    inner block; outer block 
   IBRION =     -1    ionic relax: 0-MD 1-quasi-New 2-CG
   NFREE  =      0    steps in history (QN), initial steepest desc. (CG)
   ISIF   =      2    stress and relaxation
   IWAVPR =     10    prediction:  0-non 1-charg 2-wave 3-comb
   ISYM   =      2    0-nonsym 1-usesym 2-fastsym
   LCORR  =      T    Harris-Foulkes like correction to forces

   POTIM  = 0.5000    time-step for ionic-motion
   TEIN   =    0.0    initial temperature
   TEBEG  =    0.0;   TEEND  =   0.0 temperature during run
   SMASS  =  -3.00    Nose mass-parameter (am)
   estimated Nose-frequenzy (Omega)   =  0.10E-29 period in steps = 0.13E+47 mass=  -0.280E-25a.u.
   SCALEE = 1.0000    scale energy and forces
   NPACO  =    256;   APACO  = 16.0  distance and # of slots for P.C.
   PSTRESS=    0.0 pullay stress

  Mass of Ions in am
   POMASS =   1.00 14.00 16.00
  Ionic Valenz
   ZVAL   =   1.00  5.00  6.00
  Atomic Wigner-Seitz radii
   RWIGS  =  -1.00 -1.00 -1.00
  virtual crystal weights 
   VCA    =   1.00  1.00  1.00
   NELECT =      16.0000    total number of electrons
   NUPDOWN=      -1.0000    fix difference up-down

 DOS related values:
   EMIN   =  10.00;   EMAX   =-10.00  energy-range for DOS
   EFERMI =   0.00
   ISMEAR =     0;   SIGMA  =   0.01  broadening in eV -4-tet -1-fermi 0-gaus

 Electronic relaxation 2 (details)
   IALGO  =     38    algorithm
   LDIAG  =      T    sub-space diagonalisation (order eigenvalues)
   LSUBROT=      F    optimize rotation matrix (better conditioning)
   TURBO    =      0    0=normal 1=particle mesh
   IRESTART =      0    0=no restart 2=restart with 2 vectors
   NREBOOT  =      0    no. of reboots
   NMIN     =      0    reboot dimension
   EREF     =   0.00    reference energy to select bands
   IMIX   =      4    mixing-type and parameters
     AMIX     =   0.40;   BMIX     =  1.00
     AMIX_MAG =   1.60;   BMIX_MAG =  1.00
     AMIN     =   0.10
     WC   =   100.;   INIMIX=   1;  MIXPRE=   1;  MAXMIX= -45

 Intra band minimization:
   WEIMIN = 0.0000     energy-eigenvalue tresh-hold
   EBREAK =  0.21E-08  absolut break condition
   DEPER  =   0.30     relativ break condition  

   TIME   =   0.40     timestep for ELM

  volume/ion in A,a.u.               =    6125.00     41333.54
  Fermi-wavevector in a.u.,A,eV,Ry     =   0.117864  0.222730  0.189010  0.013892
  Thomas-Fermi vector in A             =   0.732055
 
 Write flags
   LWAVE        =      T    write WAVECAR
   LDOWNSAMPLE  =      F    k-point downsampling of WAVECAR
   LCHARG       =      T    write CHGCAR
   LVTOT        =      F    write LOCPOT, total local potential
   LVHAR        =      F    write LOCPOT, Hartree potential only
   LELF         =      F    write electronic localiz. function (ELF)
   LORBIT       =      0    0 simple, 1 ext, 2 COOP (PROOUT), +10 PAW based schemes


 Dipole corrections
   LMONO  =      F    monopole corrections only (constant potential shift)
   LDIPOL =      F    correct potential (dipole corrections)
   IDIPOL =      4    1-x, 2-y, 3-z, 4-all directions 
   EPSILON=  1.0000000 bulk dielectric constant

 Exchange correlation treatment:
   GGA     =    --    GGA type
   LEXCH   =     8    internal setting for exchange type
   VOSKOWN=      0    Vosko Wilk Nusair interpolation
   LHFCALC =     F    Hartree Fock is set to
   LHFONE  =     F    Hartree Fock one center treatment
   AEXX    =    0.0000 exact exchange contribution

 Linear response parameters
   LEPSILON=     F    determine dielectric tensor
   LRPA    =     F    only Hartree local field effects (RPA)
   LNABLA  =     F    use nabla operator in PAW spheres
   LVEL    =     F    velocity operator in full k-point grid
   LINTERFAST=   F  fast interpolation
   KINTER  =     0    interpolate to denser k-point grid
   CSHIFT  =0.1000    complex shift for real part using Kramers Kronig
   OMEGAMAX=  -1.0    maximum frequency
   DEG_THRESHOLD= 0.2000000E-02 threshold for treating states as degnerate
   RTIME   =   -0.100 relaxation time in fs
  (WPLASMAI=    0.000 imaginary part of plasma frequency in eV, 0.658/RTIME)
   DFIELD  = 0.0000000 0.0000000 0.0000000 field for delta impulse in time
 
 Orbital magnetization related:
   ORBITALMAG=     F  switch on orbital magnetization
   LCHIMAG   =     F  perturbation theory with respect to B field
   DQ        =  0.001000  dq finite difference perturbation B field
   LLRAUG    =     F  two centre corrections for induced B field



--------------------------------------------------------------------------------------------------------


 Static calculation
 charge density and potential will be updated during run
 non-spin polarized calculation
 Variant of blocked Davidson
 Davidson routine will perform the subspace rotation
 perform sub-space diagonalisation
    after iterative eigenvector-optimisation
 modified Broyden-mixing scheme, WC =      100.0
 initial mixing is a Kerker type mixing with AMIX =  0.4000 and BMIX =      1.0000
 Hartree-type preconditioning will be used
 using additional bands             4
 reciprocal scheme for non local part
 calculate Harris-corrections to forces 
   (improved forces if not selfconsistent)
 use gradient corrections 
 use of overlap-Matrix (Vanderbilt PP)
 Gauss-broadening in eV      SIGMA  =   0.01


--------------------------------------------------------------------------------------------------------


  energy-cutoff  :     1000.00
  volume of cell :    42875.00
      direct lattice vectors                 reciprocal lattice vectors
    35.000000000  0.000000000  0.000000000     0.028571429  0.000000000  0.000000000
     0.000000000 35.000000000  0.000000000     0.000000000  0.028571429  0.000000000
     0.000000000  0.000000000 35.000000000     0.000000000  0.000000000  0.028571429

  length of vectors
    35.000000000 35.000000000 35.000000000     0.028571429  0.028571429  0.028571429


 
 k-points in units of 2pi/SCALE and weight: automatic mesh                          
   0.00000000  0.00000000  0.00000000       1.000
 
 k-points in reciprocal lattice and weights: automatic mesh                          
   0.00000000  0.00000000  0.00000000       1.000
 
 position of ions in fractional coordinates (direct lattice) 
   0.01028850  0.00070268  0.02082149
   0.99949801  0.03888207  0.99668585
   0.97067326  0.00245802  0.99668630
   0.01931293  0.14617832  0.00931505
   0.98378205  0.14809711  0.98460458
   0.99858668  0.00998577  0.99606044
   0.00039844  0.13028976  0.99730377
 
 position of ions in cartesian coordinates  (Angst):
   0.36009743  0.02459378  0.72875202
  34.98243028  1.36087229 34.88400467
  33.97356397  0.08603060 34.88402033
   0.67595257  5.11624124  0.32602674
  34.43237184  5.18339870 34.46116020
  34.95053363  0.34950188 34.86211549
   0.01394528  4.56014156 34.90563195
 


--------------------------------------------------------------------------------------------------------


 k-point   1 :   0.0000 0.0000 0.0000  plane waves: 3078417

 maximum and minimum number of plane-waves per node :    384834   384776

 maximum number of plane-waves:   3078417
 maximum index in each direction: 
   IXMAX=   90   IYMAX=   90   IZMAX=   90
   IXMIN=  -90   IYMIN=  -90   IZMIN=  -90


 parallel 3D FFT for wavefunctions:
    minimum data exchange during FFTs selected (reduces bandwidth)
 parallel 3D FFT for charge:
    minimum data exchange during FFTs selected (reduces bandwidth)


 total amount of memory used by VASP MPI-rank0  1980562. kBytes
=======================================================================

   base      :      30000. kBytes
   nonl-proj :     116986. kBytes
   fftplans  :     660854. kBytes
   grid      :    1154248. kBytes
   one-center:          3. kBytes
   wavefun   :      18471. kBytes
 
     INWAV:  cpu time    0.0001: real time    0.0000
 Broyden mixing: mesh for mixing (old mesh)
   NGX =181   NGY =181   NGZ =181
  (NGX  =756   NGY  =756   NGZ  =756)
  gives a total of ****** points

 initial charge density was supplied:
 charge density of overlapping atoms calculated
 number of electron      16.0000000 magnetization 
 keeping initial charge density in first step


--------------------------------------------------------------------------------------------------------


 Maximum index for augmentation-charges          1274 (set IRDMAX)


--------------------------------------------------------------------------------------------------------


 First call to EWALD:  gamma=   0.051
 Maximum number of real-space cells 3x 3x 3
 Maximum number of reciprocal cells 3x 3x 3

    FEWALD:  cpu time    0.0008: real time    0.0008


--------------------------------------- Iteration      1(   1)  ---------------------------------------


    POTLOK:  cpu time   12.0563: real time   12.0747
    SETDIJ:  cpu time    0.0520: real time    0.0532
     EDDAV:  cpu time    9.6303: real time    9.6741
       DOS:  cpu time    0.0004: real time    0.0004
    --------------------------------------------
      LOOP:  cpu time   21.7390: real time   21.8024

 eigenvalue-minimisations  :    40
 total energy-change (2. order) : 0.1178695E+03  (-0.2517254E+03)
 number of electron      16.0000000 magnetization 
 augmentation part       16.0000000 magnetization 

 Free energy of the ion-electron system (eV)
  ---------------------------------------------------
  alpha Z        PSCENC =         0.01685297
  Ewald energy   TEWEN  =       495.86531776
  -Hartree energ DENC   =     -1059.67450034
  -exchange      EXHF   =         0.00000000
  -V(xc)+E(xc)   XCENC  =        58.92388349
  PAW double counting   =       564.72862029     -570.20265452
  entropy T*S    EENTRO =        -0.00000000
  eigenvalues    EBANDS =      -131.15656856
  atomic energy  EATOM  =       759.36853833
  Solvation  Ediel_sol  =         0.00000000
  ---------------------------------------------------
  free energy    TOTEN  =       117.86948944 eV

  energy without entropy =      117.86948944  energy(sigma->0) =      117.86948944


--------------------------------------------------------------------------------------------------------




--------------------------------------- Iteration      1(   2)  ---------------------------------------


     EDDAV:  cpu time   11.0177: real time   11.0382
       DOS:  cpu time    0.0015: real time    0.0015
    --------------------------------------------
      LOOP:  cpu time   11.0192: real time   11.0397

 eigenvalue-minimisations  :    48
 total energy-change (2. order) :-0.1199287E+03  (-0.1188475E+03)
 number of electron      16.0000000 magnetization 
 augmentation part       16.0000000 magnetization 

 Free energy of the ion-electron system (eV)
  ---------------------------------------------------
  alpha Z        PSCENC =         0.01685297
  Ewald energy   TEWEN  =       495.86531776
  -Hartree energ DENC   =     -1059.67450034
  -exchange      EXHF   =         0.00000000
  -V(xc)+E(xc)   XCENC  =        58.92388349
  PAW double counting   =       564.72862029     -570.20265452
  entropy T*S    EENTRO =        -0.00000000
  eigenvalues    EBANDS =      -251.08527308
  atomic energy  EATOM  =       759.36853833
  Solvation  Ediel_sol  =         0.00000000
  ---------------------------------------------------
  free energy    TOTEN  =        -2.05921509 eV

  energy without entropy =       -2.05921509  energy(sigma->0) =       -2.05921509


--------------------------------------------------------------------------------------------------------




--------------------------------------- Iteration      1(   3)  ---------------------------------------


     EDDAV:  cpu time    7.3230: real time    7.3357
       DOS:  cpu time    0.0014: real time    0.0014
    --------------------------------------------
      LOOP:  cpu time    7.3244: real time    7.3371

 eigenvalue-minimisations  :    28
 total energy-change (2. order) :-0.3545174E+02  (-0.3540868E+02)
 number of electron      16.0000000 magnetization 
 augmentation part       16.0000000 magnetization 

 Free energy of the ion-electron system (eV)
  ---------------------------------------------------
  alpha Z        PSCENC =         0.01685297
  Ewald energy   TEWEN  =       495.86531776
  -Hartree energ DENC   =     -1059.67450034
  -exchange      EXHF   =         0.00000000
  -V(xc)+E(xc)   XCENC  =        58.92388349
  PAW double counting   =       564.72862029     -570.20265452
  entropy T*S    EENTRO =        -0.00000000
  eigenvalues    EBANDS =      -286.53701354
  atomic energy  EATOM  =       759.36853833
  Solvation  Ediel_sol  =         0.00000000
  ---------------------------------------------------
  free energy    TOTEN  =       -37.51095554 eV

  energy without entropy =      -37.51095554  energy(sigma->0) =      -37.51095554


--------------------------------------------------------------------------------------------------------




--------------------------------------- Iteration      1(   4)  ---------------------------------------


     EDDAV:  cpu time    8.1216: real time    8.1358
       DOS:  cpu time    0.0002: real time    0.0002
    --------------------------------------------
      LOOP:  cpu time    8.1217: real time    8.1360

 eigenvalue-minimisations  :    32
 total energy-change (2. order) :-0.1310485E+01  (-0.1310168E+01)
 number of electron      16.0000000 magnetization 
 augmentation part       16.0000000 magnetization 

 Free energy of the ion-electron system (eV)
  ---------------------------------------------------
  alpha Z        PSCENC =         0.01685297
  Ewald energy   TEWEN  =       495.86531776
  -Hartree energ DENC   =     -1059.67450034
  -exchange      EXHF   =         0.00000000
  -V(xc)+E(xc)   XCENC  =        58.92388349
  PAW double counting   =       564.72862029     -570.20265452
  entropy T*S    EENTRO =        -0.00000000
  eigenvalues    EBANDS =      -287.84749904
  atomic energy  EATOM  =       759.36853833
  Solvation  Ediel_sol  =         0.00000000
  ---------------------------------------------------
  free energy    TOTEN  =       -38.82144104 eV

  energy without entropy =      -38.82144104  energy(sigma->0) =      -38.82144104


--------------------------------------------------------------------------------------------------------




--------------------------------------- Iteration      1(   5)  ---------------------------------------


     EDDAV:  cpu time    8.0809: real time    8.0950
       DOS:  cpu time    0.0016: real time    0.0016
    CHARGE:  cpu time    1.7485: real time    1.7513
    MIXING:  cpu time    0.2032: real time    0.2036
    --------------------------------------------
      LOOP:  cpu time   10.0342: real time   10.0515

 eigenvalue-minimisations  :    32
 total energy-change (2. order) :-0.9688673E-02  (-0.9685759E-02)
 number of electron      16.0000000 magnetization 
 augmentation part        2.5775434 magnetization 

 Broyden mixing:
  rms(total) = 0.24336E+01    rms(broyden)= 0.24336E+01
  rms(prec ) = 0.24546E+01
  weight for this iteration     100.00

 Free energy of the ion-electron system (eV)
  ---------------------------------------------------
  alpha Z        PSCENC =         0.01685297
  Ewald energy   TEWEN  =       495.86531776
  -Hartree energ DENC   =     -1059.67450034
  -exchange      EXHF   =         0.00000000
  -V(xc)+E(xc)   XCENC  =        58.92388349
  PAW double counting   =       564.72862029     -570.20265452
  entropy T*S    EENTRO =        -0.00000000
  eigenvalues    EBANDS =      -287.85718771
  atomic energy  EATOM  =       759.36853833
  Solvation  Ediel_sol  =         0.00000000
  ---------------------------------------------------
  free energy    TOTEN  =       -38.83112972 eV

  energy without entropy =      -38.83112972  energy(sigma->0) =      -38.83112972


--------------------------------------------------------------------------------------------------------




--------------------------------------- Iteration      1(   6)  ---------------------------------------


    POTLOK:  cpu time   11.8463: real time   11.8645
    SETDIJ:  cpu time    0.0519: real time    0.0519
     EDDAV:  cpu time    7.3446: real time    7.3575
       DOS:  cpu time    0.0003: real time    0.0003
    CHARGE:  cpu time    1.6815: real time    1.6841
    MIXING:  cpu time    0.2105: real time    0.2175
    --------------------------------------------
      LOOP:  cpu time   21.1351: real time   21.1758

 eigenvalue-minimisations  :    28
 total energy-change (2. order) : 0.4888497E+01  (-0.1953191E+01)
 number of electron      16.0000000 magnetization 
 augmentation part        2.1469550 magnetization 

 Broyden mixing:
  rms(total) = 0.36000E+01    rms(broyden)= 0.36000E+01
  rms(prec ) = 0.36014E+01
  weight for this iteration     100.00

 eigenvalues of (default mixing * dielectric matrix)
  average eigenvalue GAMMA=   0.5581
  0.5581

 Free energy of the ion-electron system (eV)
  ---------------------------------------------------
  alpha Z        PSCENC =         0.01685297
  Ewald energy   TEWEN  =       495.86531776
  -Hartree energ DENC   =     -1107.63701302
  -exchange      EXHF   =         0.00000000
  -V(xc)+E(xc)   XCENC  =        61.63025249
  PAW double counting   =      1016.94670239    -1024.29392432
  entropy T*S    EENTRO =        -0.00000000
  eigenvalues    EBANDS =      -235.83935967
  atomic energy  EATOM  =       759.36853833
  Solvation  Ediel_sol  =         0.00000000
  ---------------------------------------------------
  free energy    TOTEN  =       -33.94263307 eV

  energy without entropy =      -33.94263307  energy(sigma->0) =      -33.94263307


--------------------------------------------------------------------------------------------------------




--------------------------------------- Iteration      1(   7)  ---------------------------------------


    POTLOK:  cpu time   11.8471: real time   11.8651
    SETDIJ:  cpu time    0.0515: real time    0.0515
     EDDAV:  cpu time    7.3462: real time    7.3590
       DOS:  cpu time    0.0008: real time    0.0008
    CHARGE:  cpu time    1.7002: real time    1.7029
    MIXING:  cpu time    0.2180: real time    0.2210
    --------------------------------------------
      LOOP:  cpu time   21.1638: real time   21.2003

 eigenvalue-minimisations  :    28
 total energy-change (2. order) :-0.2620565E+00  (-0.4930018E-01)
 number of electron      16.0000000 magnetization 
 augmentation part        2.1519991 magnetization 

 Broyden mixing:
  rms(total) = 0.43990E+01    rms(broyden)= 0.43990E+01
  rms(prec ) = 0.44005E+01
  weight for this iteration     100.00

 eigenvalues of (default mixing * dielectric matrix)
  average eigenvalue GAMMA=   1.5262
  1.0357  2.0168

 Free energy of the ion-electron system (eV)
  ---------------------------------------------------
  alpha Z        PSCENC =         0.01685297
  Ewald energy   TEWEN  =       495.86531776
  -Hartree energ DENC   =     -1102.94336606
  -exchange      EXHF   =         0.00000000
  -V(xc)+E(xc)   XCENC  =        61.37203351
  PAW double counting   =       768.90539149     -776.20471831
  entropy T*S    EENTRO =        -0.00000000
  eigenvalues    EBANDS =      -240.58473921
  atomic energy  EATOM  =       759.36853833
  Solvation  Ediel_sol  =         0.00000000
  ---------------------------------------------------
  free energy    TOTEN  =       -34.20468952 eV

  energy without entropy =      -34.20468952  energy(sigma->0) =      -34.20468952


--------------------------------------------------------------------------------------------------------




--------------------------------------- Iteration      1(   8)  ---------------------------------------


    POTLOK:  cpu time   11.9457: real time   11.9643
    SETDIJ:  cpu time    0.0936: real time    0.0936
     EDDAV:  cpu time    7.3480: real time    7.3606
       DOS:  cpu time    0.0012: real time    0.0012
    CHARGE:  cpu time    1.7572: real time    1.7600
    MIXING:  cpu time    0.2266: real time    0.2270
    --------------------------------------------
      LOOP:  cpu time   21.3723: real time   21.4067

 eigenvalue-minimisations  :    28
 total energy-change (2. order) : 0.6974236E+00  (-0.2196325E+00)
 number of electron      16.0000000 magnetization 
 augmentation part        2.0460258 magnetization 

 Broyden mixing:
  rms(total) = 0.89040E+00    rms(broyden)= 0.89040E+00
  rms(prec ) = 0.89167E+00
  weight for this iteration     100.00

 eigenvalues of (default mixing * dielectric matrix)
  average eigenvalue GAMMA=   1.3160
  2.1995  1.1903  0.5583

 Free energy of the ion-electron system (eV)
  ---------------------------------------------------
  alpha Z        PSCENC =         0.01685297
  Ewald energy   TEWEN  =       495.86531776
  -Hartree energ DENC   =     -1132.56701057
  -exchange      EXHF   =         0.00000000
  -V(xc)+E(xc)   XCENC  =        63.05626010
  PAW double counting   =      2752.70494693    -2760.31477184
  entropy T*S    EENTRO =        -0.00000000
  eigenvalues    EBANDS =      -211.63739958
  atomic energy  EATOM  =       759.36853833
  Solvation  Ediel_sol  =         0.00000000
  ---------------------------------------------------
  free energy    TOTEN  =       -33.50726590 eV

  energy without entropy =      -33.50726590  energy(sigma->0) =      -33.50726590


--------------------------------------------------------------------------------------------------------




--------------------------------------- Iteration      1(   9)  ---------------------------------------


    POTLOK:  cpu time   11.8315: real time   11.8496
    SETDIJ:  cpu time    0.0529: real time    0.0529
     EDDAV:  cpu time    8.0974: real time    8.1117
       DOS:  cpu time    0.0007: real time    0.0007
    CHARGE:  cpu time    1.7098: real time    1.7125
    MIXING:  cpu time    0.2538: real time    0.2543
    --------------------------------------------
      LOOP:  cpu time   21.9461: real time   21.9816

 eigenvalue-minimisations  :    32
 total energy-change (2. order) : 0.7828912E-01  (-0.1627853E-01)
 number of electron      16.0000000 magnetization 
 augmentation part        2.0785564 magnetization 

 Broyden mixing:
  rms(total) = 0.39819E+00    rms(broyden)= 0.39819E+00
  rms(prec ) = 0.39911E+00
  weight for this iteration     100.00

 eigenvalues of (default mixing * dielectric matrix)
  average eigenvalue GAMMA=   1.3300
  2.2210  1.1231  1.1231  0.8528

 Free energy of the ion-electron system (eV)
  ---------------------------------------------------
  alpha Z        PSCENC =         0.01685297
  Ewald energy   TEWEN  =       495.86531776
  -Hartree energ DENC   =     -1131.20380524
  -exchange      EXHF   =         0.00000000
  -V(xc)+E(xc)   XCENC  =        62.98153566
  PAW double counting   =      2960.19640938    -2967.67724667
  entropy T*S    EENTRO =        -0.00000000
  eigenvalues    EBANDS =      -212.97657898
  atomic energy  EATOM  =       759.36853833
  Solvation  Ediel_sol  =         0.00000000
  ---------------------------------------------------
  free energy    TOTEN  =       -33.42897678 eV

  energy without entropy =      -33.42897678  energy(sigma->0) =      -33.42897678


--------------------------------------------------------------------------------------------------------




--------------------------------------- Iteration      1(  10)  ---------------------------------------


    POTLOK:  cpu time   11.8882: real time   11.9065
    SETDIJ:  cpu time    0.0515: real time    0.0515
     EDDAV:  cpu time    8.1144: real time    8.1286
       DOS:  cpu time    0.0004: real time    0.0004
    CHARGE:  cpu time    1.6894: real time    1.6921
    MIXING:  cpu time    0.2420: real time    0.2424
    --------------------------------------------
      LOOP:  cpu time   21.9858: real time   22.0215

 eigenvalue-minimisations  :    32
 total energy-change (2. order) : 0.1045804E-01  (-0.2971906E-02)
 number of electron      16.0000000 magnetization 
 augmentation part        2.0872891 magnetization 

 Broyden mixing:
  rms(total) = 0.18636E+00    rms(broyden)= 0.18636E+00
  rms(prec ) = 0.18721E+00
  weight for this iteration     100.00

 eigenvalues of (default mixing * dielectric matrix)
  average eigenvalue GAMMA=   1.2760
  2.1733  1.2146  1.2146  0.6672  1.1101

 Free energy of the ion-electron system (eV)
  ---------------------------------------------------
  alpha Z        PSCENC =         0.01685297
  Ewald energy   TEWEN  =       495.86531776
  -Hartree energ DENC   =     -1131.76873151
  -exchange      EXHF   =         0.00000000
  -V(xc)+E(xc)   XCENC  =        63.00858759
  PAW double counting   =      3016.23313302    -3023.72336801
  entropy T*S    EENTRO =        -0.00000000
  eigenvalues    EBANDS =      -212.41884890
  atomic energy  EATOM  =       759.36853833
  Solvation  Ediel_sol  =         0.00000000
  ---------------------------------------------------
  free energy    TOTEN  =       -33.41851874 eV

  energy without entropy =      -33.41851874  energy(sigma->0) =      -33.41851874


--------------------------------------------------------------------------------------------------------




--------------------------------------- Iteration      1(  11)  ---------------------------------------


    POTLOK:  cpu time   11.8432: real time   11.8616
    SETDIJ:  cpu time    0.0514: real time    0.0514
     EDDAV:  cpu time    8.0918: real time    8.1058
       DOS:  cpu time    0.0008: real time    0.0008
    CHARGE:  cpu time    1.6964: real time    1.6991
    MIXING:  cpu time    0.2554: real time    0.2558
    --------------------------------------------
      LOOP:  cpu time   21.9390: real time   21.9745

 eigenvalue-minimisations  :    32
 total energy-change (2. order) : 0.1408258E-02  (-0.7350107E-03)
 number of electron      16.0000000 magnetization 
 augmentation part        2.0948948 magnetization 

 Broyden mixing:
  rms(total) = 0.10340E+00    rms(broyden)= 0.10340E+00
  rms(prec ) = 0.10430E+00
  weight for this iteration     100.00

 eigenvalues of (default mixing * dielectric matrix)
  average eigenvalue GAMMA=   1.5644
  2.5390  2.5390  1.2098  1.2098  1.1637  0.7253

 Free energy of the ion-electron system (eV)
  ---------------------------------------------------
  alpha Z        PSCENC =         0.01685297
  Ewald energy   TEWEN  =       495.86531776
  -Hartree energ DENC   =     -1131.76332060
  -exchange      EXHF   =         0.00000000
  -V(xc)+E(xc)   XCENC  =        62.99784341
  PAW double counting   =      3021.22117614    -3028.68999562
  entropy T*S    EENTRO =        -0.00000000
  eigenvalues    EBANDS =      -212.43352288
  atomic energy  EATOM  =       759.36853833
  Solvation  Ediel_sol  =         0.00000000
  ---------------------------------------------------
  free energy    TOTEN  =       -33.41711048 eV

  energy without entropy =      -33.41711048  energy(sigma->0) =      -33.41711048


--------------------------------------------------------------------------------------------------------




--------------------------------------- Iteration      1(  12)  ---------------------------------------


    POTLOK:  cpu time   11.8842: real time   11.9022
    SETDIJ:  cpu time    0.0514: real time    0.0514
     EDDAV:  cpu time    6.5957: real time    6.6075
       DOS:  cpu time    0.0002: real time    0.0002
    CHARGE:  cpu time    1.7102: real time    1.7129
    MIXING:  cpu time    0.2567: real time    0.2572
    --------------------------------------------
      LOOP:  cpu time   20.4984: real time   20.5314

 eigenvalue-minimisations  :    24
 total energy-change (2. order) :-0.4750539E-02  (-0.2034939E-02)
 number of electron      16.0000000 magnetization 
 augmentation part        2.1033748 magnetization 

 Broyden mixing:
  rms(total) = 0.38549E-01    rms(broyden)= 0.38549E-01
  rms(prec ) = 0.39196E-01
  weight for this iteration     100.00

 eigenvalues of (default mixing * dielectric matrix)
  average eigenvalue GAMMA=   1.4935
  2.7530  2.5102  1.2649  1.2649  1.1554  0.7532  0.7532

 Free energy of the ion-electron system (eV)
  ---------------------------------------------------
  alpha Z        PSCENC =         0.01685297
  Ewald energy   TEWEN  =       495.86531776
  -Hartree energ DENC   =     -1133.27548950
  -exchange      EXHF   =         0.00000000
  -V(xc)+E(xc)   XCENC  =        63.04567284
  PAW double counting   =      3032.31287404    -3039.77384504
  entropy T*S    EENTRO =        -0.00000000
  eigenvalues    EBANDS =      -210.98178242
  atomic energy  EATOM  =       759.36853833
  Solvation  Ediel_sol  =         0.00000000
  ---------------------------------------------------
  free energy    TOTEN  =       -33.42186102 eV

  energy without entropy =      -33.42186102  energy(sigma->0) =      -33.42186102


--------------------------------------------------------------------------------------------------------




--------------------------------------- Iteration      1(  13)  ---------------------------------------


    POTLOK:  cpu time   11.8768: real time   11.8950
    SETDIJ:  cpu time    0.0515: real time    0.0515
     EDDAV:  cpu time    7.3511: real time    7.3639
       DOS:  cpu time    0.0002: real time    0.0002
    CHARGE:  cpu time    1.7002: real time    1.7030
    MIXING:  cpu time    0.2711: real time    0.2715
    --------------------------------------------
      LOOP:  cpu time   21.2509: real time   21.2851

 eigenvalue-minimisations  :    28
 total energy-change (2. order) :-0.2229638E-02  (-0.6235451E-04)
 number of electron      16.0000000 magnetization 
 augmentation part        2.1023313 magnetization 

 Broyden mixing:
  rms(total) = 0.30921E-01    rms(broyden)= 0.30921E-01
  rms(prec ) = 0.31481E-01
  weight for this iteration     100.00

 eigenvalues of (default mixing * dielectric matrix)
  average eigenvalue GAMMA=   1.5126
  3.0135  2.3863  1.5049  1.5049  0.7247  0.9738  0.9738  1.0191

 Free energy of the ion-electron system (eV)
  ---------------------------------------------------
  alpha Z        PSCENC =         0.01685297
  Ewald energy   TEWEN  =       495.86531776
  -Hartree energ DENC   =     -1133.73227284
  -exchange      EXHF   =         0.00000000
  -V(xc)+E(xc)   XCENC  =        63.05563925
  PAW double counting   =      3027.11473785    -3034.57662378
  entropy T*S    EENTRO =        -0.00000000
  eigenvalues    EBANDS =      -210.53628022
  atomic energy  EATOM  =       759.36853833
  Solvation  Ediel_sol  =         0.00000000
  ---------------------------------------------------
  free energy    TOTEN  =       -33.42409066 eV

  energy without entropy =      -33.42409066  energy(sigma->0) =      -33.42409066


--------------------------------------------------------------------------------------------------------




--------------------------------------- Iteration      1(  14)  ---------------------------------------


    POTLOK:  cpu time   11.8872: real time   11.9057
    SETDIJ:  cpu time    0.0515: real time    0.0515
     EDDAV:  cpu time    8.1131: real time    8.1271
       DOS:  cpu time    0.0011: real time    0.0011
    CHARGE:  cpu time    1.6955: real time    1.6982
    MIXING:  cpu time    0.2808: real time    0.2813
    --------------------------------------------
      LOOP:  cpu time   22.0292: real time   22.0649

 eigenvalue-minimisations  :    32
 total energy-change (2. order) :-0.3867821E-02  (-0.7195327E-04)
 number of electron      16.0000000 magnetization 
 augmentation part        2.1010862 magnetization 

 Broyden mixing:
  rms(total) = 0.18288E-01    rms(broyden)= 0.18288E-01
  rms(prec ) = 0.18782E-01
  weight for this iteration     100.00

 eigenvalues of (default mixing * dielectric matrix)
  average eigenvalue GAMMA=   1.7550
  4.4933  2.7810  2.3995  1.2475  1.2475  1.1316  0.7269  0.8840  0.8840

 Free energy of the ion-electron system (eV)
  ---------------------------------------------------
  alpha Z        PSCENC =         0.01685297
  Ewald energy   TEWEN  =       495.86531776
  -Hartree energ DENC   =     -1134.21597711
  -exchange      EXHF   =         0.00000000
  -V(xc)+E(xc)   XCENC  =        63.05864267
  PAW double counting   =      3022.71628728    -3030.17355182
  entropy T*S    EENTRO =        -0.00000000
  eigenvalues    EBANDS =      -210.06406857
  atomic energy  EATOM  =       759.36853833
  Solvation  Ediel_sol  =         0.00000000
  ---------------------------------------------------
  free energy    TOTEN  =       -33.42795848 eV

  energy without entropy =      -33.42795848  energy(sigma->0) =      -33.42795848


--------------------------------------------------------------------------------------------------------




--------------------------------------- Iteration      1(  15)  ---------------------------------------


    POTLOK:  cpu time   11.8959: real time   11.9162
    SETDIJ:  cpu time    0.0526: real time    0.0526
     EDDAV:  cpu time    7.3432: real time    7.3563
       DOS:  cpu time    0.0009: real time    0.0009
    CHARGE:  cpu time    1.7491: real time    1.7518
    MIXING:  cpu time    0.2938: real time    0.2943
    --------------------------------------------
      LOOP:  cpu time   21.3354: real time   21.3720

 eigenvalue-minimisations  :    28
 total energy-change (2. order) :-0.6838654E-02  (-0.2407982E-03)
 number of electron      16.0000000 magnetization 
 augmentation part        2.0990026 magnetization 

 Broyden mixing:
  rms(total) = 0.10170E-01    rms(broyden)= 0.10170E-01
  rms(prec ) = 0.10327E-01
  weight for this iteration     100.00

 eigenvalues of (default mixing * dielectric matrix)
  average eigenvalue GAMMA=   1.8589
  6.0309  2.8717  2.4273  1.4028  1.4028  0.9619  0.9619  1.0371  0.7463  0.7463

 Free energy of the ion-electron system (eV)
  ---------------------------------------------------
  alpha Z        PSCENC =         0.01685297
  Ewald energy   TEWEN  =       495.86531776
  -Hartree energ DENC   =     -1135.04725694
  -exchange      EXHF   =         0.00000000
  -V(xc)+E(xc)   XCENC  =        63.06184467
  PAW double counting   =      3012.49104466    -3019.94205997
  entropy T*S    EENTRO =        -0.00000000
  eigenvalues    EBANDS =      -209.24907863
  atomic energy  EATOM  =       759.36853833
  Solvation  Ediel_sol  =         0.00000000
  ---------------------------------------------------
  free energy    TOTEN  =       -33.43479714 eV

  energy without entropy =      -33.43479714  energy(sigma->0) =      -33.43479714


--------------------------------------------------------------------------------------------------------




--------------------------------------- Iteration      1(  16)  ---------------------------------------


    POTLOK:  cpu time   11.8805: real time   11.8987
    SETDIJ:  cpu time    0.0515: real time    0.0515
     EDDAV:  cpu time    9.5997: real time    9.6167
       DOS:  cpu time    0.0007: real time    0.0007
    CHARGE:  cpu time    1.7047: real time    1.7072
    MIXING:  cpu time    0.3160: real time    0.3166
    --------------------------------------------
      LOOP:  cpu time   23.5531: real time   23.5913

 eigenvalue-minimisations  :    40
 total energy-change (2. order) :-0.2310226E-02  (-0.3576683E-04)
 number of electron      16.0000000 magnetization 
 augmentation part        2.0984384 magnetization 

 Broyden mixing:
  rms(total) = 0.12951E-01    rms(broyden)= 0.12951E-01
  rms(prec ) = 0.13025E-01
  weight for this iteration     100.00

 eigenvalues of (default mixing * dielectric matrix)
  average eigenvalue GAMMA=   1.7738
  5.6675  2.7671  2.1813  1.6755  1.6755  1.0840  1.0840  1.0717  0.8513  0.7550
  0.6987

 Free energy of the ion-electron system (eV)
  ---------------------------------------------------
  alpha Z        PSCENC =         0.01685297
  Ewald energy   TEWEN  =       495.86531776
  -Hartree energ DENC   =     -1135.23839198
  -exchange      EXHF   =         0.00000000
  -V(xc)+E(xc)   XCENC  =        63.06226888
  PAW double counting   =      3011.65773475    -3019.10954423
  entropy T*S    EENTRO =        -0.00000000
  eigenvalues    EBANDS =      -209.05988383
  atomic energy  EATOM  =       759.36853833
  Solvation  Ediel_sol  =         0.00000000
  ---------------------------------------------------
  free energy    TOTEN  =       -33.43710736 eV

  energy without entropy =      -33.43710736  energy(sigma->0) =      -33.43710736


--------------------------------------------------------------------------------------------------------




--------------------------------------- Iteration      1(  17)  ---------------------------------------


    POTLOK:  cpu time   11.8804: real time   11.8987
    SETDIJ:  cpu time    0.0513: real time    0.0513
     EDDAV:  cpu time    8.0954: real time    8.1095
       DOS:  cpu time    0.0002: real time    0.0002
    CHARGE:  cpu time    1.7001: real time    1.7029
    MIXING:  cpu time    0.3205: real time    0.3211
    --------------------------------------------
      LOOP:  cpu time   22.0480: real time   22.0836

 eigenvalue-minimisations  :    32
 total energy-change (2. order) :-0.9422771E-03  (-0.1053513E-04)
 number of electron      16.0000000 magnetization 
 augmentation part        2.0991138 magnetization 

 Broyden mixing:
  rms(total) = 0.43209E-02    rms(broyden)= 0.43209E-02
  rms(prec ) = 0.44313E-02
  weight for this iteration     100.00

 eigenvalues of (default mixing * dielectric matrix)
  average eigenvalue GAMMA=   1.9034
  6.6144  3.1878  2.3065  1.9531  1.9531  1.1257  1.1257  1.0896  1.0896  0.7302
  0.8325  0.8325

 Free energy of the ion-electron system (eV)
  ---------------------------------------------------
  alpha Z        PSCENC =         0.01685297
  Ewald energy   TEWEN  =       495.86531776
  -Hartree energ DENC   =     -1135.18308407
  -exchange      EXHF   =         0.00000000
  -V(xc)+E(xc)   XCENC  =        63.05868698
  PAW double counting   =      3012.80529911    -3020.25747564
  entropy T*S    EENTRO =        -0.00000000
  eigenvalues    EBANDS =      -209.11218509
  atomic energy  EATOM  =       759.36853833
  Solvation  Ediel_sol  =         0.00000000
  ---------------------------------------------------
  free energy    TOTEN  =       -33.43804964 eV

  energy without entropy =      -33.43804964  energy(sigma->0) =      -33.43804964


--------------------------------------------------------------------------------------------------------




--------------------------------------- Iteration      1(  18)  ---------------------------------------


    POTLOK:  cpu time   11.8950: real time   11.9172
    SETDIJ:  cpu time    0.0514: real time    0.0514
     EDDAV:  cpu time    6.6341: real time    6.6475
       DOS:  cpu time    0.0004: real time    0.0004
    CHARGE:  cpu time    1.7040: real time    1.7066
    MIXING:  cpu time    0.3599: real time    0.3605
    --------------------------------------------
      LOOP:  cpu time   20.6448: real time   20.6836

 eigenvalue-minimisations  :    24
 total energy-change (2. order) :-0.1944671E-02  (-0.1528616E-04)
 number of electron      16.0000000 magnetization 
 augmentation part        2.0992827 magnetization 

 Broyden mixing:
  rms(total) = 0.12186E-02    rms(broyden)= 0.12186E-02
  rms(prec ) = 0.13129E-02
  weight for this iteration     100.00

 eigenvalues of (default mixing * dielectric matrix)
  average eigenvalue GAMMA=   1.9771
  7.5275  3.7073  2.1286  2.1286  1.9743  1.4045  1.0888  1.0888  1.2390  1.0597
  0.8134  0.8134  0.7281

 Free energy of the ion-electron system (eV)
  ---------------------------------------------------
  alpha Z        PSCENC =         0.01685297
  Ewald energy   TEWEN  =       495.86531776
  -Hartree energ DENC   =     -1135.22546562
  -exchange      EXHF   =         0.00000000
  -V(xc)+E(xc)   XCENC  =        63.05555903
  PAW double counting   =      3013.36512989    -3020.81784354
  entropy T*S    EENTRO =        -0.00000000
  eigenvalues    EBANDS =      -209.06808314
  atomic energy  EATOM  =       759.36853833
  Solvation  Ediel_sol  =         0.00000000
  ---------------------------------------------------
  free energy    TOTEN  =       -33.43999431 eV

  energy without entropy =      -33.43999431  energy(sigma->0) =      -33.43999431


--------------------------------------------------------------------------------------------------------




--------------------------------------- Iteration      1(  19)  ---------------------------------------


    POTLOK:  cpu time   11.8806: real time   11.8987
    SETDIJ:  cpu time    0.0522: real time    0.0522
     EDDAV:  cpu time    9.6131: real time    9.6298
       DOS:  cpu time    0.0003: real time    0.0002
    CHARGE:  cpu time    1.7047: real time    1.7074
    MIXING:  cpu time    0.3504: real time    0.3510
    --------------------------------------------
      LOOP:  cpu time   23.6011: real time   23.6394

 eigenvalue-minimisations  :    40
 total energy-change (2. order) :-0.8120534E-03  (-0.6341556E-05)
 number of electron      16.0000000 magnetization 
 augmentation part        2.0994268 magnetization 

 Broyden mixing:
  rms(total) = 0.14362E-02    rms(broyden)= 0.14362E-02
  rms(prec ) = 0.14597E-02
  weight for this iteration     100.00

 eigenvalues of (default mixing * dielectric matrix)
  average eigenvalue GAMMA=   2.0145
  8.2787  4.0850  2.3822  2.3822  1.7359  1.7359  1.1238  1.1238  1.1272  1.0609
  0.8533  0.8533  0.7401  0.7207

 Free energy of the ion-electron system (eV)
  ---------------------------------------------------
  alpha Z        PSCENC =         0.01685297
  Ewald energy   TEWEN  =       495.86531776
  -Hartree energ DENC   =     -1135.22487393
  -exchange      EXHF   =         0.00000000
  -V(xc)+E(xc)   XCENC  =        63.05333542
  PAW double counting   =      3013.69414691    -3021.14650197
  entropy T*S    EENTRO =        -0.00000000
  eigenvalues    EBANDS =      -209.06762186
  atomic energy  EATOM  =       759.36853833
  Solvation  Ediel_sol  =         0.00000000
  ---------------------------------------------------
  free energy    TOTEN  =       -33.44080636 eV

  energy without entropy =      -33.44080636  energy(sigma->0) =      -33.44080636


--------------------------------------------------------------------------------------------------------




--------------------------------------- Iteration      1(  20)  ---------------------------------------


    POTLOK:  cpu time   11.8799: real time   11.8981
    SETDIJ:  cpu time    0.0514: real time    0.0514
     EDDAV:  cpu time    6.5908: real time    6.6024
       DOS:  cpu time    0.0040: real time    0.0040
    CHARGE:  cpu time    1.7850: real time    1.7876
    MIXING:  cpu time    0.3964: real time    0.3971
    --------------------------------------------
      LOOP:  cpu time   20.7075: real time   20.7406

 eigenvalue-minimisations  :    24
 total energy-change (2. order) :-0.3243242E-03  (-0.9783271E-06)
 number of electron      16.0000000 magnetization 
 augmentation part        2.0994485 magnetization 

 Broyden mixing:
  rms(total) = 0.10359E-02    rms(broyden)= 0.10359E-02
  rms(prec ) = 0.10503E-02
  weight for this iteration     100.00

 eigenvalues of (default mixing * dielectric matrix)
  average eigenvalue GAMMA=   2.1174
  8.7368  4.8787  2.9070  2.3350  2.0063  2.0063  1.2271  1.2271  1.0830  1.0830
  1.0872  0.8408  0.8408  0.7289  0.7723

 Free energy of the ion-electron system (eV)
  ---------------------------------------------------
  alpha Z        PSCENC =         0.01685297
  Ewald energy   TEWEN  =       495.86531776
  -Hartree energ DENC   =     -1135.22500197
  -exchange      EXHF   =         0.00000000
  -V(xc)+E(xc)   XCENC  =        63.05254051
  PAW double counting   =      3013.23709245    -3020.68925406
  entropy T*S    EENTRO =        -0.00000000
  eigenvalues    EBANDS =      -209.06721668
  atomic energy  EATOM  =       759.36853833
  Solvation  Ediel_sol  =         0.00000000
  ---------------------------------------------------
  free energy    TOTEN  =       -33.44113069 eV

  energy without entropy =      -33.44113069  energy(sigma->0) =      -33.44113069


--------------------------------------------------------------------------------------------------------




--------------------------------------- Iteration      1(  21)  ---------------------------------------


    POTLOK:  cpu time   11.9071: real time   11.9253
    SETDIJ:  cpu time    0.0535: real time    0.0535
     EDDAV:  cpu time    9.6209: real time    9.6375
       DOS:  cpu time    0.0015: real time    0.0015
    CHARGE:  cpu time    1.6912: real time    1.6939
    MIXING:  cpu time    0.3946: real time    0.3953
    --------------------------------------------
      LOOP:  cpu time   23.6688: real time   23.7070

 eigenvalue-minimisations  :    40
 total energy-change (2. order) :-0.2266332E-03  (-0.7013370E-06)
 number of electron      16.0000000 magnetization 
 augmentation part        2.0993821 magnetization 

 Broyden mixing:
  rms(total) = 0.30405E-03    rms(broyden)= 0.30405E-03
  rms(prec ) = 0.31654E-03
  weight for this iteration     100.00

 eigenvalues of (default mixing * dielectric matrix)
  average eigenvalue GAMMA=   2.1547
  8.9446  5.2646  3.1032  2.6199  1.9685  1.9685  1.7517  1.3547  1.1234  1.1234
  0.9754  0.9754  0.8941  0.8941  0.7277  0.7861

 Free energy of the ion-electron system (eV)
  ---------------------------------------------------
  alpha Z        PSCENC =         0.01685297
  Ewald energy   TEWEN  =       495.86531776
  -Hartree energ DENC   =     -1135.22800373
  -exchange      EXHF   =         0.00000000
  -V(xc)+E(xc)   XCENC  =        63.05242806
  PAW double counting   =      3013.06226790    -3020.51438186
  entropy T*S    EENTRO =        -0.00000000
  eigenvalues    EBANDS =      -209.06437676
  atomic energy  EATOM  =       759.36853833
  Solvation  Ediel_sol  =         0.00000000
  ---------------------------------------------------
  free energy    TOTEN  =       -33.44135732 eV

  energy without entropy =      -33.44135732  energy(sigma->0) =      -33.44135732


--------------------------------------------------------------------------------------------------------




--------------------------------------- Iteration      1(  22)  ---------------------------------------


    POTLOK:  cpu time   11.8184: real time   11.8366
    SETDIJ:  cpu time    0.0524: real time    0.0525
     EDDAV:  cpu time    6.6454: real time    6.6568
       DOS:  cpu time    0.0002: real time    0.0002
    CHARGE:  cpu time    1.7134: real time    1.7160
    MIXING:  cpu time    0.4076: real time    0.4084
    --------------------------------------------
      LOOP:  cpu time   20.6375: real time   20.6704

 eigenvalue-minimisations  :    24
 total energy-change (2. order) :-0.1095249E-03  (-0.1336254E-06)
 number of electron      16.0000000 magnetization 
 augmentation part        2.0993620 magnetization 

 Broyden mixing:
  rms(total) = 0.27527E-03    rms(broyden)= 0.27527E-03
  rms(prec ) = 0.27889E-03
  weight for this iteration     100.00

 eigenvalues of (default mixing * dielectric matrix)
  average eigenvalue GAMMA=   2.1462
  8.9311  5.7929  3.2743  2.4569  2.4569  1.9187  1.9187  1.2680  1.0987  1.0987
  1.0545  1.0545  0.7277  0.7923  0.8716  0.8716  0.8985

 Free energy of the ion-electron system (eV)
  ---------------------------------------------------
  alpha Z        PSCENC =         0.01685297
  Ewald energy   TEWEN  =       495.86531776
  -Hartree energ DENC   =     -1135.22831180
  -exchange      EXHF   =         0.00000000
  -V(xc)+E(xc)   XCENC  =        63.05221663
  PAW double counting   =      3013.01298061    -3020.46500375
  entropy T*S    EENTRO =        -0.00000000
  eigenvalues    EBANDS =      -209.06405760
  atomic energy  EATOM  =       759.36853833
  Solvation  Ediel_sol  =         0.00000000
  ---------------------------------------------------
  free energy    TOTEN  =       -33.44146685 eV

  energy without entropy =      -33.44146685  energy(sigma->0) =      -33.44146685


--------------------------------------------------------------------------------------------------------




--------------------------------------- Iteration      1(  23)  ---------------------------------------


    POTLOK:  cpu time   11.8431: real time   11.8610
    SETDIJ:  cpu time    0.0514: real time    0.0514
     EDDAV:  cpu time    6.6380: real time    6.6496
       DOS:  cpu time    0.0004: real time    0.0004
    CHARGE:  cpu time    1.7097: real time    1.7123
    MIXING:  cpu time    0.4294: real time    0.4302
    --------------------------------------------
      LOOP:  cpu time   20.6720: real time   20.7049

 eigenvalue-minimisations  :    24
 total energy-change (2. order) :-0.3269725E-04  (-0.2011107E-07)
 number of electron      16.0000000 magnetization 
 augmentation part        2.0993578 magnetization 

 Broyden mixing:
  rms(total) = 0.85103E-04    rms(broyden)= 0.85103E-04
  rms(prec ) = 0.90242E-04
  weight for this iteration     100.00

 eigenvalues of (default mixing * dielectric matrix)
  average eigenvalue GAMMA=   2.2199
  9.0925  6.2971  3.8259  2.5617  2.5617  2.1985  1.9269  1.7523  1.1114  1.1114
  1.1657  1.1657  0.7278  0.9482  0.9482  0.7937  0.8672  0.9025

 Free energy of the ion-electron system (eV)
  ---------------------------------------------------
  alpha Z        PSCENC =         0.01685297
  Ewald energy   TEWEN  =       495.86531776
  -Hartree energ DENC   =     -1135.22966897
  -exchange      EXHF   =         0.00000000
  -V(xc)+E(xc)   XCENC  =        63.05225953
  PAW double counting   =      3013.13311435    -3020.58521572
  entropy T*S    EENTRO =        -0.00000000
  eigenvalues    EBANDS =      -209.06269780
  atomic energy  EATOM  =       759.36853833
  Solvation  Ediel_sol  =         0.00000000
  ---------------------------------------------------
  free energy    TOTEN  =       -33.44149954 eV

  energy without entropy =      -33.44149954  energy(sigma->0) =      -33.44149954


--------------------------------------------------------------------------------------------------------




--------------------------------------- Iteration      1(  24)  ---------------------------------------


    POTLOK:  cpu time   11.7974: real time   11.8154
    SETDIJ:  cpu time    0.0538: real time    0.0539
     EDDAV:  cpu time    6.6364: real time    6.6481
       DOS:  cpu time    0.0030: real time    0.0030
    CHARGE:  cpu time    1.6959: real time    1.6986
    MIXING:  cpu time    0.4464: real time    0.4472
    --------------------------------------------
      LOOP:  cpu time   20.6330: real time   20.6661

 eigenvalue-minimisations  :    24
 total energy-change (2. order) :-0.3116045E-04  (-0.1594037E-07)
 number of electron      16.0000000 magnetization 
 augmentation part        2.0993632 magnetization 

 Broyden mixing:
  rms(total) = 0.10050E-03    rms(broyden)= 0.10050E-03
  rms(prec ) = 0.10148E-03
  weight for this iteration     100.00

 eigenvalues of (default mixing * dielectric matrix)
  average eigenvalue GAMMA=   2.2421
  9.4493  6.4648  4.5547  2.7960  2.2096  2.2096  2.2522  1.6658  1.4727  1.0996
  1.0996  1.0921  1.0921  0.7277  0.9445  0.9445  0.7867  0.8694  0.8694

 Free energy of the ion-electron system (eV)
  ---------------------------------------------------
  alpha Z        PSCENC =         0.01685297
  Ewald energy   TEWEN  =       495.86531776
  -Hartree energ DENC   =     -1135.23032258
  -exchange      EXHF   =         0.00000000
  -V(xc)+E(xc)   XCENC  =        63.05223252
  PAW double counting   =      3013.17713772    -3020.62924465
  entropy T*S    EENTRO =        -0.00000000
  eigenvalues    EBANDS =      -209.06204277
  atomic energy  EATOM  =       759.36853833
  Solvation  Ediel_sol  =         0.00000000
  ---------------------------------------------------
  free energy    TOTEN  =       -33.44153070 eV

  energy without entropy =      -33.44153070  energy(sigma->0) =      -33.44153070


--------------------------------------------------------------------------------------------------------




--------------------------------------- Iteration      1(  25)  ---------------------------------------


    POTLOK:  cpu time   11.8436: real time   11.8619
    SETDIJ:  cpu time    0.0515: real time    0.0516
     EDDAV:  cpu time    6.6311: real time    6.6427
       DOS:  cpu time    0.0016: real time    0.0016
    CHARGE:  cpu time    1.7217: real time    1.7245
    MIXING:  cpu time    0.4828: real time    0.4836
    --------------------------------------------
      LOOP:  cpu time   20.7324: real time   20.7658

 eigenvalue-minimisations  :    24
 total energy-change (2. order) :-0.8616332E-05  (-0.3586520E-08)
 number of electron      16.0000000 magnetization 
 augmentation part        2.0993607 magnetization 

 Broyden mixing:
  rms(total) = 0.26454E-04    rms(broyden)= 0.26454E-04
  rms(prec ) = 0.27763E-04
  weight for this iteration     100.00

 eigenvalues of (default mixing * dielectric matrix)
  average eigenvalue GAMMA=   2.2308
  9.4456  6.7922  4.6655  2.9188  2.4454  2.2879  2.2879  1.6214  1.6214  1.1006
  1.1006  1.1349  1.1349  0.9545  0.9545  0.7278  0.9447  0.7937  0.8420  0.8420

 Free energy of the ion-electron system (eV)
  ---------------------------------------------------
  alpha Z        PSCENC =         0.01685297
  Ewald energy   TEWEN  =       495.86531776
  -Hartree energ DENC   =     -1135.23131512
  -exchange      EXHF   =         0.00000000
  -V(xc)+E(xc)   XCENC  =        63.05224418
  PAW double counting   =      3013.14274596    -3020.59484341
  entropy T*S    EENTRO =        -0.00000000
  eigenvalues    EBANDS =      -209.06108000
  atomic energy  EATOM  =       759.36853833
  Solvation  Ediel_sol  =         0.00000000
  ---------------------------------------------------
  free energy    TOTEN  =       -33.44153932 eV

  energy without entropy =      -33.44153932  energy(sigma->0) =      -33.44153932


--------------------------------------------------------------------------------------------------------




--------------------------------------- Iteration      1(  26)  ---------------------------------------


    POTLOK:  cpu time   11.8204: real time   11.8381
    SETDIJ:  cpu time    0.0513: real time    0.0514
     EDDAV:  cpu time    5.1594: real time    5.1683
       DOS:  cpu time    0.0026: real time    0.0026
    CHARGE:  cpu time    1.6955: real time    1.6983
    MIXING:  cpu time    0.5064: real time    0.5074
    --------------------------------------------
      LOOP:  cpu time   19.2357: real time   19.2661

 eigenvalue-minimisations  :    16
 total energy-change (2. order) :-0.4389276E-05  (-0.1680235E-08)
 number of electron      16.0000000 magnetization 
 augmentation part        2.0993596 magnetization 

 Broyden mixing:
  rms(total) = 0.22892E-04    rms(broyden)= 0.22892E-04
  rms(prec ) = 0.23606E-04
  weight for this iteration     100.00

 eigenvalues of (default mixing * dielectric matrix)
  average eigenvalue GAMMA=   2.2830
  9.5758  7.1070  5.0615  3.6081  2.5382  2.5382  2.1067  2.1067  1.5908  1.4297
  1.1002  1.1002  1.1478  1.0476  0.9628  0.9628  0.8675  0.8675  0.7840  0.7276
  0.7135

 Free energy of the ion-electron system (eV)
  ---------------------------------------------------
  alpha Z        PSCENC =         0.01685297
  Ewald energy   TEWEN  =       495.86531776
  -Hartree energ DENC   =     -1135.23131576
  -exchange      EXHF   =         0.00000000
  -V(xc)+E(xc)   XCENC  =        63.05224452
  PAW double counting   =      3013.13909999    -3020.59119652
  entropy T*S    EENTRO =        -0.00000000
  eigenvalues    EBANDS =      -209.06108500
  atomic energy  EATOM  =       759.36853833
  Solvation  Ediel_sol  =         0.00000000
  ---------------------------------------------------
  free energy    TOTEN  =       -33.44154371 eV

  energy without entropy =      -33.44154371  energy(sigma->0) =      -33.44154371


--------------------------------------------------------------------------------------------------------




--------------------------------------- Iteration      1(  27)  ---------------------------------------


    POTLOK:  cpu time   11.8560: real time   11.8742
    SETDIJ:  cpu time    0.0514: real time    0.0514
     EDDAV:  cpu time    5.1636: real time    5.1725
       DOS:  cpu time    0.0011: real time    0.0011
    CHARGE:  cpu time    1.7136: real time    1.7164
    MIXING:  cpu time    0.5548: real time    0.5557
    --------------------------------------------
      LOOP:  cpu time   19.3406: real time   19.3713

 eigenvalue-minimisations  :    16
 total energy-change (2. order) :-0.3367138E-05  (-0.1710097E-08)
 number of electron      16.0000000 magnetization 
 augmentation part        2.0993618 magnetization 

 Broyden mixing:
  rms(total) = 0.21073E-04    rms(broyden)= 0.21073E-04
  rms(prec ) = 0.21275E-04
  weight for this iteration     100.00

 eigenvalues of (default mixing * dielectric matrix)
  average eigenvalue GAMMA=   2.2480
  9.5925  7.2098  5.2467  3.7957  2.5576  2.5576  2.1380  2.1380  1.5107  1.5107
  1.1020  1.1020  1.0660  1.0660  1.0108  1.0108  0.7277  0.8629  0.8629  0.7872
  0.8003  0.8003

 Free energy of the ion-electron system (eV)
  ---------------------------------------------------
  alpha Z        PSCENC =         0.01685297
  Ewald energy   TEWEN  =       495.86531776
  -Hartree energ DENC   =     -1135.23109193
  -exchange      EXHF   =         0.00000000
  -V(xc)+E(xc)   XCENC  =        63.05223559
  PAW double counting   =      3013.12876325    -3020.58086320
  entropy T*S    EENTRO =        -0.00000000
  eigenvalues    EBANDS =      -209.06129986
  atomic energy  EATOM  =       759.36853833
  Solvation  Ediel_sol  =         0.00000000
  ---------------------------------------------------
  free energy    TOTEN  =       -33.44154708 eV

  energy without entropy =      -33.44154708  energy(sigma->0) =      -33.44154708


--------------------------------------------------------------------------------------------------------




--------------------------------------- Iteration      1(  28)  ---------------------------------------


    POTLOK:  cpu time   11.8371: real time   11.8552
    SETDIJ:  cpu time    0.0515: real time    0.0516
     EDDAV:  cpu time    6.6372: real time    6.6488
       DOS:  cpu time    0.0015: real time    0.0015
    CHARGE:  cpu time    1.7208: real time    1.7235
    MIXING:  cpu time    0.5494: real time    0.5503
    --------------------------------------------
      LOOP:  cpu time   20.7974: real time   20.8308

 eigenvalue-minimisations  :    24
 total energy-change (2. order) :-0.7642864E-06  (-0.8097398E-09)
 number of electron      16.0000000 magnetization 
 augmentation part        2.0993626 magnetization 

 Broyden mixing:
  rms(total) = 0.75414E-05    rms(broyden)= 0.75414E-05
  rms(prec ) = 0.78189E-05
  weight for this iteration     100.00

 eigenvalues of (default mixing * dielectric matrix)
  average eigenvalue GAMMA=   2.2785
  9.6050  7.4554  5.5352  4.0275  2.8329  2.4269  2.4269  1.9744  1.9744  1.3857
  1.3857  1.3486  1.1032  1.1032  1.0222  1.0222  0.9463  0.9463  0.8646  0.8646
  0.7277  0.7860  0.6406

 Free energy of the ion-electron system (eV)
  ---------------------------------------------------
  alpha Z        PSCENC =         0.01685297
  Ewald energy   TEWEN  =       495.86531776
  -Hartree energ DENC   =     -1135.23090385
  -exchange      EXHF   =         0.00000000
  -V(xc)+E(xc)   XCENC  =        63.05222683
  PAW double counting   =      3013.13216392    -3020.58426782
  entropy T*S    EENTRO =        -0.00000000
  eigenvalues    EBANDS =      -209.06147598
  atomic energy  EATOM  =       759.36853833
  Solvation  Ediel_sol  =         0.00000000
  ---------------------------------------------------
  free energy    TOTEN  =       -33.44154784 eV

  energy without entropy =      -33.44154784  energy(sigma->0) =      -33.44154784


--------------------------------------------------------------------------------------------------------




--------------------------------------- Iteration      1(  29)  ---------------------------------------


    POTLOK:  cpu time   11.8161: real time   11.8348
    SETDIJ:  cpu time    0.0514: real time    0.0514
     EDDAV:  cpu time    5.1660: real time    5.1750
       DOS:  cpu time    0.0024: real time    0.0024
    CHARGE:  cpu time    1.6930: real time    1.6958
    MIXING:  cpu time    0.5602: real time    0.5611
    --------------------------------------------
      LOOP:  cpu time   19.2891: real time   19.3205

 eigenvalue-minimisations  :    16
 total energy-change (2. order) :-0.8583941E-06  (-0.6888730E-09)
 number of electron      16.0000000 magnetization 
 augmentation part        2.0993629 magnetization 

 Broyden mixing:
  rms(total) = 0.59130E-05    rms(broyden)= 0.59130E-05
  rms(prec ) = 0.60449E-05
  weight for this iteration     100.00

 eigenvalues of (default mixing * dielectric matrix)
  average eigenvalue GAMMA=   2.2596
  9.6383  7.6228  5.7309  4.1963  2.7338  2.7338  2.5861  2.0672  2.0672  1.4882
  1.4882  1.0995  1.0995  1.1880  0.9859  0.9457  0.9457  0.8818  0.8818  0.7278
  0.7897  0.8466  0.8466  0.6382

 Free energy of the ion-electron system (eV)
  ---------------------------------------------------
  alpha Z        PSCENC =         0.01685297
  Ewald energy   TEWEN  =       495.86531776
  -Hartree energ DENC   =     -1135.23082444
  -exchange      EXHF   =         0.00000000
  -V(xc)+E(xc)   XCENC  =        63.05222003
  PAW double counting   =      3013.13274722    -3020.58484715
  entropy T*S    EENTRO =        -0.00000000
  eigenvalues    EBANDS =      -209.06155342
  atomic energy  EATOM  =       759.36853833
  Solvation  Ediel_sol  =         0.00000000
  ---------------------------------------------------
  free energy    TOTEN  =       -33.44154870 eV

  energy without entropy =      -33.44154870  energy(sigma->0) =      -33.44154870


--------------------------------------------------------------------------------------------------------




--------------------------------------- Iteration      1(  30)  ---------------------------------------


    POTLOK:  cpu time   11.8387: real time   11.8568
    SETDIJ:  cpu time    0.0518: real time    0.0518
     EDDAV:  cpu time    6.6221: real time    6.6338
       DOS:  cpu time    0.0010: real time    0.0010
    CHARGE:  cpu time    1.6919: real time    1.6946
    MIXING:  cpu time    0.5975: real time    0.5985
    --------------------------------------------
      LOOP:  cpu time   20.8030: real time   20.8365

 eigenvalue-minimisations  :    24
 total energy-change (2. order) :-0.2013126E-06  (-0.5065637E-09)
 number of electron      16.0000000 magnetization 
 augmentation part        2.0993626 magnetization 

 Broyden mixing:
  rms(total) = 0.56116E-05    rms(broyden)= 0.56116E-05
  rms(prec ) = 0.56928E-05
  weight for this iteration     100.00

 eigenvalues of (default mixing * dielectric matrix)
  average eigenvalue GAMMA=   2.2474
  9.6555  7.7443  5.7971  4.4075  2.8905  2.7958  2.3115  2.0115  2.0115  1.4471
  1.4471  1.5015  1.1051  1.1051  1.1847  1.1847  1.0318  0.9750  0.9750  0.7278
  0.8512  0.8512  0.8045  0.8045  0.5644

 Free energy of the ion-electron system (eV)
  ---------------------------------------------------
  alpha Z        PSCENC =         0.01685297
  Ewald energy   TEWEN  =       495.86531776
  -Hartree energ DENC   =     -1135.23084937
  -exchange      EXHF   =         0.00000000
  -V(xc)+E(xc)   XCENC  =        63.05222171
  PAW double counting   =      3013.13341547    -3020.58551756
  entropy T*S    EENTRO =        -0.00000000
  eigenvalues    EBANDS =      -209.06152822
  atomic energy  EATOM  =       759.36853833
  Solvation  Ediel_sol  =         0.00000000
  ---------------------------------------------------
  free energy    TOTEN  =       -33.44154890 eV

  energy without entropy =      -33.44154890  energy(sigma->0) =      -33.44154890


--------------------------------------------------------------------------------------------------------




--------------------------------------- Iteration      1(  31)  ---------------------------------------


    POTLOK:  cpu time   11.8043: real time   11.8223
    SETDIJ:  cpu time    0.0518: real time    0.0518
     EDDAV:  cpu time    5.1717: real time    5.1806
       DOS:  cpu time    0.0004: real time    0.0004
    CHARGE:  cpu time    1.6866: real time    1.6894
    MIXING:  cpu time    0.6352: real time    0.6363
    --------------------------------------------
      LOOP:  cpu time   19.3500: real time   19.3808

 eigenvalue-minimisations  :    16
 total energy-change (2. order) :-0.1538701E-06  (-0.4597851E-09)
 number of electron      16.0000000 magnetization 
 augmentation part        2.0993625 magnetization 

 Broyden mixing:
  rms(total) = 0.44188E-05    rms(broyden)= 0.44188E-05
  rms(prec ) = 0.44693E-05
  weight for this iteration     100.00

 eigenvalues of (default mixing * dielectric matrix)
  average eigenvalue GAMMA=   2.2574
  9.7005  7.8446  6.0551  4.4568  3.3381  2.5467  2.3424  2.3424  2.0154  2.0154
  1.6029  1.6029  1.1039  1.1039  1.1535  1.1535  1.0295  0.9622  0.9622  0.7278
  0.8565  0.8565  0.7931  0.7867  0.7867  0.5519

 Free energy of the ion-electron system (eV)
  ---------------------------------------------------
  alpha Z        PSCENC =         0.01685297
  Ewald energy   TEWEN  =       495.86531776
  -Hartree energ DENC   =     -1135.23086542
  -exchange      EXHF   =         0.00000000
  -V(xc)+E(xc)   XCENC  =        63.05222323
  PAW double counting   =      3013.13454529    -3020.58664714
  entropy T*S    EENTRO =        -0.00000000
  eigenvalues    EBANDS =      -209.06151408
  atomic energy  EATOM  =       759.36853833
  Solvation  Ediel_sol  =         0.00000000
  ---------------------------------------------------
  free energy    TOTEN  =       -33.44154905 eV

  energy without entropy =      -33.44154905  energy(sigma->0) =      -33.44154905


--------------------------------------------------------------------------------------------------------




--------------------------------------- Iteration      1(  32)  ---------------------------------------


    POTLOK:  cpu time   11.7712: real time   11.7891
    SETDIJ:  cpu time    0.0517: real time    0.0518
     EDDAV:  cpu time    5.1566: real time    5.1655
       DOS:  cpu time    0.0004: real time    0.0004
    CHARGE:  cpu time    1.7162: real time    1.7189
    MIXING:  cpu time    0.6406: real time    0.6417
    --------------------------------------------
      LOOP:  cpu time   19.3367: real time   19.3674

 eigenvalue-minimisations  :    16
 total energy-change (2. order) :-0.1935059E-06  (-0.4207408E-09)
 number of electron      16.0000000 magnetization 
 augmentation part        2.0993619 magnetization 

 Broyden mixing:
  rms(total) = 0.18858E-05    rms(broyden)= 0.18858E-05
  rms(prec ) = 0.19167E-05
  weight for this iteration     100.00

 eigenvalues of (default mixing * dielectric matrix)
  average eigenvalue GAMMA=   2.2650
  9.6968  8.0814  6.2777  4.7673  3.7167  2.6062  2.6062  2.4537  2.0299  2.0299
  1.4261  1.4261  1.3722  1.0960  1.0960  1.0723  1.0723  1.0125  0.9428  0.9428
  0.7278  0.8662  0.8662  0.8615  0.7770  0.7770  0.5539

 Free energy of the ion-electron system (eV)
  ---------------------------------------------------
  alpha Z        PSCENC =         0.01685297
  Ewald energy   TEWEN  =       495.86531776
  -Hartree energ DENC   =     -1135.23092753
  -exchange      EXHF   =         0.00000000
  -V(xc)+E(xc)   XCENC  =        63.05222652
  PAW double counting   =      3013.13619247    -3020.58829247
  entropy T*S    EENTRO =        -0.00000000
  eigenvalues    EBANDS =      -209.06145730
  atomic energy  EATOM  =       759.36853833
  Solvation  Ediel_sol  =         0.00000000
  ---------------------------------------------------
  free energy    TOTEN  =       -33.44154925 eV

  energy without entropy =      -33.44154925  energy(sigma->0) =      -33.44154925


--------------------------------------------------------------------------------------------------------




--------------------------------------- Iteration      1(  33)  ---------------------------------------


    POTLOK:  cpu time   11.7908: real time   11.8092
    SETDIJ:  cpu time    0.0514: real time    0.0514
     EDDAV:  cpu time    6.6446: real time    6.6561
       DOS:  cpu time    0.0002: real time    0.0002
    --------------------------------------------
      LOOP:  cpu time   18.4869: real time   18.5169

 eigenvalue-minimisations  :    24
 total energy-change (2. order) :-0.4563844E-07  (-0.3770246E-09)
 number of electron      16.0000000 magnetization 
 augmentation part        2.0993619 magnetization 

 Free energy of the ion-electron system (eV)
  ---------------------------------------------------
  alpha Z        PSCENC =         0.01685297
  Ewald energy   TEWEN  =       495.86531776
  -Hartree energ DENC   =     -1135.23092349
  -exchange      EXHF   =         0.00000000
  -V(xc)+E(xc)   XCENC  =        63.05222651
  PAW double counting   =      3013.13651522    -3020.58861476
  entropy T*S    EENTRO =        -0.00000000
  eigenvalues    EBANDS =      -209.06146184
  atomic energy  EATOM  =       759.36853833
  Solvation  Ediel_sol  =         0.00000000
  ---------------------------------------------------
  free energy    TOTEN  =       -33.44154929 eV

  energy without entropy =      -33.44154929  energy(sigma->0) =      -33.44154929


--------------------------------------------------------------------------------------------------------




 average (electrostatic) potential at core
  the test charge radii are     0.6256  0.9051  0.8742
  (the norm of the test charge is              1.0000)
       1 -39.5285       2 -39.4014       3 -39.5269       4 -41.5897       5 -41.5887
       6 -84.4263       7 -90.8960
 
 
 
 E-fermi :  -5.7592     XC(G=0):  -0.0348     alpha+bet : -0.0073


 k-point     1 :       0.0000    0.0000    0.0000
  band No.  band energies     occupation 
      1     -25.6668      2.00000
      2     -20.9240      2.00000
      3     -13.3217      2.00000
      4     -11.0119      2.00000
      5     -10.9681      2.00000
      6      -9.4184      2.00000
      7      -7.4091      2.00000
      8      -5.8106      2.00000
      9      -1.1426      0.00000
     10      -0.3905      0.00000
     11      -0.0000      0.00000
     12       0.0813      0.00000


--------------------------------------------------------------------------------------------------------


 soft charge-density along one line, spin component            1
         0         1         2         3         4         5         6         7         8         9
 total charge-density along one line
 
 pseudopotential strength for first ion, spin component:            1
 -2.291  -3.627  -0.009   0.022   0.011
 -3.627  -5.574  -0.017   0.041   0.021
 -0.009  -0.017  -0.128  -0.010  -0.004
  0.022   0.041  -0.010  -0.108   0.012
  0.011   0.021  -0.004   0.012  -0.126
 total augmentation occupancy for first ion, spin component:            1
  2.963  -0.477   0.292  -0.769  -0.369
 -0.477   0.141  -0.034   0.107   0.043
  0.292  -0.034   0.070  -0.060  -0.044
 -0.769   0.107  -0.060   0.225   0.076
 -0.369   0.043  -0.044   0.076   0.091


------------------------ aborting loop because EDIFF is reached ----------------------------------------



 DIPCOR: dipole corrections for dipol
 direction  1 min pos   357, direction  2 min pos   403, direction  3 min pos   348,
 dipolmoment           0.119784     -0.544204     -0.241509 electrons x Angstroem
 Tr[quadrupol]         3.980623

 energy correction for charged system         0.000000 eV
 dipol+quadrupol energy correction            0.000259 eV
 added-field ion interaction          0.000000 eV  (added to PSCEN)

 
  *************** adding dipol energy to TOTEN NOW **************** 
    CHARGE:  cpu time    1.6922: real time    1.6951
    FORLOC:  cpu time    0.6415: real time    0.6423
    FORNL :  cpu time    0.3916: real time    0.3923
    STRESS:  cpu time    4.8637: real time    4.8719
    FORHAR:  cpu time    3.4932: real time    3.4986
    MIXING:  cpu time    0.6631: real time    0.6642
    OFIELD:  cpu time    0.0000: real time    0.0000

  FORCE on cell =-STRESS in cart. coord.  units (eV):
  Direction    XX          YY          ZZ          XY          YZ          ZX
  --------------------------------------------------------------------------------------
  Alpha Z     0.01685     0.01685     0.01685
  Ewald     122.23351   326.20680    47.42501    19.48863   -29.31975    85.73331
  Hartree   316.70900   515.25860   303.26325     7.63394    -6.37078    15.11766
  E(xc)     -66.71807   -66.72627   -66.98943     0.04600    -0.09164     0.31743
  Local    -673.92101 -1078.61481  -609.09791   -22.94301    27.33755   -73.73978
  n-local    23.21928    22.68120    25.28504    -0.23719     0.46629    -2.59371
  augment    61.41240    61.84464    65.20608    -0.52279     1.11858    -4.55913
  Kinetic   219.57637   221.39392   236.24587    -3.32725     6.52611   -18.85931
  Fock        0.00000     0.00000     0.00000     0.00000     0.00000     0.00000
  -------------------------------------------------------------------------------------
  Total       2.52833     2.06093     1.35478     0.13835    -0.33364     1.41647
  in kB       0.09448     0.07701     0.05063     0.00517    -0.01247     0.05293
  external pressure =        0.07 kB  Pullay stress =        0.00 kB


 VOLUME and BASIS-vectors are now :
 -----------------------------------------------------------------------------
  energy-cutoff  :     1000.00
  volume of cell :    42875.00
      direct lattice vectors                 reciprocal lattice vectors
    35.000000000  0.000000000  0.000000000     0.028571429  0.000000000  0.000000000
     0.000000000 35.000000000  0.000000000     0.000000000  0.028571429  0.000000000
     0.000000000  0.000000000 35.000000000     0.000000000  0.000000000  0.028571429

  length of vectors
    35.000000000 35.000000000 35.000000000     0.028571429  0.028571429  0.028571429


 FORCES acting on ions
    electron-ion (+dipol)            ewald-force                    non-local-force                 convergence-correction
 -----------------------------------------------------------------------------------------------
   -.313E+02 0.295E+02 -.601E+02   0.347E+02 -.322E+02 0.667E+02   -.301E+01 0.237E+01 -.594E+01   -.984E-06 0.123E-05 -.406E-05
   -.381E+01 -.607E+02 0.130E+01   0.421E+01 0.687E+02 -.138E+01   -.335E+00 -.713E+01 0.295E-01   0.360E-06 -.391E-05 -.852E-06
   0.694E+02 0.251E+02 0.126E+01   -.770E+02 -.273E+02 -.133E+01   0.680E+01 0.194E+01 0.320E-01   0.406E-05 0.976E-06 -.929E-06
   -.635E+02 -.535E+02 -.405E+02   0.703E+02 0.587E+02 0.448E+02   -.548E+01 -.428E+01 -.350E+01   -.372E-06 -.865E-06 -.354E-06
   0.561E+02 -.599E+02 0.427E+02   -.622E+02 0.658E+02 -.473E+02   0.486E+01 -.484E+01 0.369E+01   0.376E-06 -.910E-06 0.200E-06
   -.174E+02 0.448E+02 0.307E+02   0.367E+02 -.595E+02 -.635E+02   -.190E+02 0.144E+02 0.322E+02   0.664E-05 -.199E-05 -.110E-04
   0.219E+01 0.665E+01 -.669E+00   -.675E+01 -.742E+02 0.195E+01   0.442E+01 0.655E+02 -.123E+01   -.149E-07 -.673E-05 -.459E-06
 -----------------------------------------------------------------------------------------------
   0.117E+02 -.680E+02 -.253E+02   0.178E-14 0.142E-13 -.120E-13   -.117E+02 0.680E+02 0.253E+02   0.101E-04 -.122E-04 -.174E-04
 
 
 POSITION                                       TOTAL-FORCE (eV/Angst)
 -----------------------------------------------------------------------------------
      0.36010      0.02459      0.72875         0.380957     -0.304555      0.680558
     34.98243      1.36087     34.88400         0.062095      0.900105     -0.049602
     33.97356      0.08603     34.88402        -0.797293     -0.247096     -0.037424
      0.67595      5.11624      0.32603         1.346910      0.921433      0.863273
     34.43237      5.18340     34.46116        -1.206648      1.056436     -0.913178
     34.95053      0.34950     34.86212         0.356042     -0.305376     -0.597503
      0.01395      4.56014     34.90563        -0.142063     -2.020947      0.053877
 -----------------------------------------------------------------------------------
    total drift:                                0.000009     -0.000016     -0.000037


--------------------------------------------------------------------------------------------------------



  FREE ENERGIE OF THE ION-ELECTRON SYSTEM (eV)
  ---------------------------------------------------
  free  energy   TOTEN  =       -33.44128985 eV

  energy  without entropy=      -33.44128985  energy(sigma->0) =      -33.44128985
 


--------------------------------------------------------------------------------------------------------


    POTLOK:  cpu time   12.0153: real time   12.0334


--------------------------------------------------------------------------------------------------------


 writing wavefunctions
     LOOP+:  cpu time 1035.4083: real time 1038.8906
    4ORBIT:  cpu time    0.0000: real time    0.0000

 total amount of memory used by VASP MPI-rank0  1980562. kBytes
=======================================================================

   base      :      30000. kBytes
   nonl-proj :     116986. kBytes
   fftplans  :     660854. kBytes
   grid      :    1154248. kBytes
   one-center:          3. kBytes
   wavefun   :      18471. kBytes
 
  
  
 General timing and accounting informations for this job:
 ========================================================
  
                  Total CPU time used (sec):     1438.635
                            User time (sec):     1395.046
                          System time (sec):       43.589
                         Elapsed time (sec):     1447.298
  
                   Maximum memory used (kb):     2424640.
                   Average memory used (kb):           0.
  
                          Minor page faults:     26023231
                          Major page faults:          236
                 Voluntary context switches:         4747
