
     Program PWSCF v.7.2 starts on 12Oct2023 at 12: 4:18 

     This program is part of the open-source Quantum ESPRESSO suite
     for quantum simulation of materials; please cite
         "P. Giannozzi et al., J. Phys.:Condens. Matter 21 395502 (2009);
         "P. Giannozzi et al., J. Phys.:Condens. Matter 29 465901 (2017);
         "P. Giannozzi et al., J. Chem. Phys. 152 154105 (2020);
          URL http://www.quantum-espresso.org", 
     in publications or presentations arising from this work. More details at
     http://www.quantum-espresso.org/quote

     Parallel version (MPI), running on    32 processors

     MPI processes distributed on     1 nodes
     246956 MiB available memory on the printing compute node when the environment starts

     Reading input from H2O_CO2_dimer_O_H_contact_21_precision_dimer.in
Warning: card &CELL ignored
Warning: card / ignored

     Current dimensions of program PWSCF are:
     Max number of different atomic species (ntypx) = 10
     Max number of k-points (npk) =  40000
     Max angular momentum in pseudopotentials (lmaxx) =  4
     file H.pbe-kjpaw_psl.1.0.0.UPF: wavefunction(s)  1S renormalized
     file C.pbe-n-kjpaw_psl.1.0.0.UPF: wavefunction(s)  2S 2P renormalized
     file O.pbe-n-kjpaw_psl.1.0.0.UPF: wavefunction(s)  2S 2P renormalized

     IMPORTANT: XC functional enforced from input :
     Exchange-correlation= PBE
                           (   1   4   3   4   0   0   0)
     Any further DFT definition will be discarded
     Please, verify this is what you really want


     gamma-point specific algorithms are used

     R & G space division:  proc/nbgrp/npool/nimage =      32
     Subspace diagonalization in iterative solution of the eigenvalue problem:
     a serial algorithm will be used


     Parallelization info
     --------------------
     sticks:   dense  smooth     PW     G-vecs:    dense   smooth      PW
     Min        6395    6395   1598              2177048  2177048  272114
     Max        6398    6398   1600              2177062  2177062  272124
     Sum      204693  204693  51189             69665707 69665707 8707803

     Using Slab Decomposition



     bravais-lattice index     =            0
     lattice parameter (alat)  =      66.1404  a.u.
     unit-cell volume          =  289334.8415 (a.u.)^3
     number of atoms/cell      =            6
     number of atomic types    =            3
     number of electrons       =        24.00
     number of Kohn-Sham states=           12
     kinetic-energy cutoff     =     147.0000  Ry
     charge density cutoff     =     588.0000  Ry
     scf convergence threshold =      1.0E-08
     mixing beta               =       0.7000
     number of iterations used =            8  plain     mixing
     Exchange-correlation= PBE
                           (   1   4   3   4   0   0   0)

     celldm(1)=  66.140414  celldm(2)=   0.000000  celldm(3)=   0.000000
     celldm(4)=   0.000000  celldm(5)=   0.000000  celldm(6)=   0.000000

     crystal axes: (cart. coord. in units of alat)
               a(1) = (   1.000000   0.000000   0.000000 )  
               a(2) = (   0.000000   1.000000   0.000000 )  
               a(3) = (   0.000000   0.000000   1.000000 )  

     reciprocal axes: (cart. coord. in units 2 pi/alat)
               b(1) = (  1.000000  0.000000  0.000000 )  
               b(2) = (  0.000000  1.000000  0.000000 )  
               b(3) = (  0.000000  0.000000  1.000000 )  


     PseudoPot. # 1 for H  read from file:
     /home/users/klimj2am/src/pslibrary.1.0.0/pbe/PSEUDOPOTENTIALS/H.pbe-kjpaw_psl.1.0.0.UPF
     MD5 check sum: 220281c0717fd894cece6904c624ceaa
     Pseudo is Projector augmented-wave, Zval =  1.0
     Generated using 'atomic' code by A. Dal Corso  v.7.2
     Shape of augmentation charge: PSQ
     Using radial grid of  929 points,  2 beta functions with: 
                l(1) =   0
                l(2) =   0
     Q(r) pseudized with 0 coefficients 


     PseudoPot. # 2 for C  read from file:
     /home/users/klimj2am/src/pslibrary.1.0.0/pbe/PSEUDOPOTENTIALS/C.pbe-n-kjpaw_psl.1.0.0.UPF
     MD5 check sum: 9d4797b4e2669f30c50dcc814f8da1dd
     Pseudo is Projector augmented-wave + core cor, Zval =  4.0
     Generated using 'atomic' code by A. Dal Corso  v.7.2
     Shape of augmentation charge: PSQ
     Using radial grid of 1073 points,  4 beta functions with: 
                l(1) =   0
                l(2) =   0
                l(3) =   1
                l(4) =   1
     Q(r) pseudized with 0 coefficients 


     PseudoPot. # 3 for O  read from file:
     /home/users/klimj2am/src/pslibrary.1.0.0/pbe/PSEUDOPOTENTIALS/O.pbe-n-kjpaw_psl.1.0.0.UPF
     MD5 check sum: 48e285564fec6dca10ec424bc53b541b
     Pseudo is Projector augmented-wave + core cor, Zval =  6.0
     Generated using 'atomic' code by A. Dal Corso  v.7.2
     Shape of augmentation charge: PSQ
     Using radial grid of 1095 points,  4 beta functions with: 
                l(1) =   0
                l(2) =   0
                l(3) =   1
                l(4) =   1
     Q(r) pseudized with 0 coefficients 


     atomic species   valence    mass     pseudopotential
        H              1.00     1.00800     H ( 1.00)
        C              4.00    12.01100     C ( 1.00)
        O              6.00    15.99900     O ( 1.00)

     No symmetry found



   Cartesian axes

     site n.     atom                  positions (alat units)
         1           H   tau(   1) = (   0.0010117   0.1301190  -0.0266201  )
         2           H   tau(   2) = (   0.0000000   0.0959565   0.0000000  )
         3           C   tau(   3) = (   0.0000000   0.0025216   0.0000000  )
         4           O   tau(   4) = (   0.0000000   0.0359565   0.0000000  )
         5           O   tau(   5) = (   0.0000000  -0.0309133   0.0000000  )
         6           O   tau(   6) = (   0.0000000   0.1234242   0.0000000  )

     number of k points=     1
                       cart. coord. in units 2pi/alat
        k(    1) = (   0.0000000   0.0000000   0.0000000), wk =   2.0000000

     Dense  grid: 34832854 G-vectors     FFT dimensions: ( 512, 512, 512)

     Estimated max dynamical RAM per process >       1.63 GB

     Estimated total dynamical RAM >      52.26 GB

     Initial potential from superposition of free atoms

     starting charge      23.9999, renormalised to      24.0000

     negative rho (up, down):  1.061E-03 0.000E+00
     Starting wfcs are   18 randomized atomic wfcs
     Checking if some PAW data can be deallocated... 

     total cpu time spent up to now is       43.8 secs

     Self-consistent Calculation

     iteration #  1     ecut=   147.00 Ry     beta= 0.70
     Davidson diagonalization with overlap
     ethr =  1.00E-02,  avg # of iterations =  3.0

     negative rho (up, down):  6.673E-04 0.000E+00

     total cpu time spent up to now is       59.6 secs

     total energy              =    -145.21931460 Ry
     estimated scf accuracy    <       0.92591150 Ry

     iteration #  2     ecut=   147.00 Ry     beta= 0.70
     Davidson diagonalization with overlap
     ethr =  3.86E-03,  avg # of iterations =  6.0

     negative rho (up, down):  8.089E-04 0.000E+00

     total cpu time spent up to now is       76.8 secs

     total energy              =    -145.66058092 Ry
     estimated scf accuracy    <       0.77340967 Ry

     iteration #  3     ecut=   147.00 Ry     beta= 0.70
     Davidson diagonalization with overlap
     ethr =  3.22E-03,  avg # of iterations =  2.0

     negative rho (up, down):  1.397E-03 0.000E+00

     total cpu time spent up to now is       90.1 secs

     total energy              =    -145.52853865 Ry
     estimated scf accuracy    <       0.23062547 Ry

     iteration #  4     ecut=   147.00 Ry     beta= 0.70
     Davidson diagonalization with overlap
     ethr =  9.61E-04,  avg # of iterations =  6.0

     negative rho (up, down):  1.659E-03 0.000E+00

     total cpu time spent up to now is      108.2 secs

     total energy              =    -145.85492135 Ry
     estimated scf accuracy    <       0.44338267 Ry

     iteration #  5     ecut=   147.00 Ry     beta= 0.70
     Davidson diagonalization with overlap
     ethr =  9.61E-04,  avg # of iterations =  1.0

     negative rho (up, down):  1.754E-03 0.000E+00

     total cpu time spent up to now is      121.1 secs

     total energy              =    -145.75981413 Ry
     estimated scf accuracy    <       0.25442918 Ry

     iteration #  6     ecut=   147.00 Ry     beta= 0.70
     Davidson diagonalization with overlap
     ethr =  9.61E-04,  avg # of iterations =  2.0

     negative rho (up, down):  1.760E-03 0.000E+00

     total cpu time spent up to now is      134.7 secs

     total energy              =    -145.78447635 Ry
     estimated scf accuracy    <       0.06209359 Ry

     iteration #  7     ecut=   147.00 Ry     beta= 0.70
     Davidson diagonalization with overlap
     ethr =  2.59E-04,  avg # of iterations =  6.0

     negative rho (up, down):  1.762E-03 0.000E+00

     total cpu time spent up to now is      151.2 secs

     total energy              =    -145.80875694 Ry
     estimated scf accuracy    <       0.01433431 Ry

     iteration #  8     ecut=   147.00 Ry     beta= 0.70
     Davidson diagonalization with overlap
     ethr =  5.97E-05,  avg # of iterations =  4.0

     negative rho (up, down):  1.777E-03 0.000E+00

     total cpu time spent up to now is      167.4 secs

     total energy              =    -145.81566557 Ry
     estimated scf accuracy    <       0.00581187 Ry

     iteration #  9     ecut=   147.00 Ry     beta= 0.70
     Davidson diagonalization with overlap
     ethr =  2.42E-05,  avg # of iterations =  4.0

     negative rho (up, down):  1.849E-03 0.000E+00

     total cpu time spent up to now is      181.7 secs

     total energy              =    -145.81663078 Ry
     estimated scf accuracy    <       0.00470695 Ry

     iteration # 10     ecut=   147.00 Ry     beta= 0.70
     Davidson diagonalization with overlap
     ethr =  1.96E-05,  avg # of iterations =  2.0

     negative rho (up, down):  2.049E-03 0.000E+00

     total cpu time spent up to now is      196.0 secs

     total energy              =    -145.81633488 Ry
     estimated scf accuracy    <       0.00413337 Ry

     iteration # 11     ecut=   147.00 Ry     beta= 0.70
     Davidson diagonalization with overlap
     ethr =  1.72E-05,  avg # of iterations =  4.0

     negative rho (up, down):  2.101E-03 0.000E+00

     total cpu time spent up to now is      212.2 secs

     total energy              =    -145.81957430 Ry
     estimated scf accuracy    <       0.00792281 Ry

     iteration # 12     ecut=   147.00 Ry     beta= 0.70
     Davidson diagonalization with overlap
     ethr =  1.72E-05,  avg # of iterations =  4.0

     negative rho (up, down):  2.056E-03 0.000E+00

     total cpu time spent up to now is      227.4 secs

     total energy              =    -145.81946590 Ry
     estimated scf accuracy    <       0.01388336 Ry

     iteration # 13     ecut=   147.00 Ry     beta= 0.70
     Davidson diagonalization with overlap
     ethr =  1.72E-05,  avg # of iterations =  1.0

     negative rho (up, down):  2.007E-03 0.000E+00

     total cpu time spent up to now is      240.6 secs

     total energy              =    -145.82086231 Ry
     estimated scf accuracy    <       0.01259784 Ry

     iteration # 14     ecut=   147.00 Ry     beta= 0.70
     Davidson diagonalization with overlap
     ethr =  1.72E-05,  avg # of iterations =  4.0

     negative rho (up, down):  2.014E-03 0.000E+00

     total cpu time spent up to now is      256.5 secs

     total energy              =    -145.82235876 Ry
     estimated scf accuracy    <       0.01906432 Ry

     iteration # 15     ecut=   147.00 Ry     beta= 0.70
     Davidson diagonalization with overlap
     ethr =  1.72E-05,  avg # of iterations =  2.0

     negative rho (up, down):  2.028E-03 0.000E+00

     total cpu time spent up to now is      270.2 secs

     total energy              =    -145.82050720 Ry
     estimated scf accuracy    <       0.02011443 Ry

     iteration # 16     ecut=   147.00 Ry     beta= 0.70
     Davidson diagonalization with overlap
     ethr =  1.72E-05,  avg # of iterations =  1.0

     negative rho (up, down):  2.082E-03 0.000E+00

     total cpu time spent up to now is      283.3 secs

     total energy              =    -145.81299170 Ry
     estimated scf accuracy    <       0.01648291 Ry

     iteration # 17     ecut=   147.00 Ry     beta= 0.70
     Davidson diagonalization with overlap
     ethr =  1.72E-05,  avg # of iterations =  4.0

     negative rho (up, down):  2.059E-03 0.000E+00

     total cpu time spent up to now is      299.3 secs

     total energy              =    -145.81510226 Ry
     estimated scf accuracy    <       0.00111680 Ry

     iteration # 18     ecut=   147.00 Ry     beta= 0.70
     Davidson diagonalization with overlap
     ethr =  4.65E-06,  avg # of iterations =  9.0

     negative rho (up, down):  2.051E-03 0.000E+00

     total cpu time spent up to now is      319.0 secs

     total energy              =    -145.81592497 Ry
     estimated scf accuracy    <       0.00074567 Ry

     iteration # 19     ecut=   147.00 Ry     beta= 0.70
     Davidson diagonalization with overlap
     ethr =  3.11E-06,  avg # of iterations =  2.0

     negative rho (up, down):  2.052E-03 0.000E+00

     total cpu time spent up to now is      332.8 secs

     total energy              =    -145.81583531 Ry
     estimated scf accuracy    <       0.00041686 Ry

     iteration # 20     ecut=   147.00 Ry     beta= 0.70
     Davidson diagonalization with overlap
     ethr =  1.74E-06,  avg # of iterations =  5.0

     negative rho (up, down):  2.048E-03 0.000E+00

     total cpu time spent up to now is      347.7 secs

     total energy              =    -145.81590468 Ry
     estimated scf accuracy    <       0.00012068 Ry

     iteration # 21     ecut=   147.00 Ry     beta= 0.70
     Davidson diagonalization with overlap
     ethr =  5.03E-07,  avg # of iterations =  6.0

     negative rho (up, down):  2.049E-03 0.000E+00

     total cpu time spent up to now is      365.2 secs

     total energy              =    -145.81590810 Ry
     estimated scf accuracy    <       0.00013452 Ry

     iteration # 22     ecut=   147.00 Ry     beta= 0.70
     Davidson diagonalization with overlap
     ethr =  5.03E-07,  avg # of iterations =  2.0

     negative rho (up, down):  2.051E-03 0.000E+00

     total cpu time spent up to now is      379.1 secs

     total energy              =    -145.81590615 Ry
     estimated scf accuracy    <       0.00002362 Ry

     iteration # 23     ecut=   147.00 Ry     beta= 0.70
     Davidson diagonalization with overlap
     ethr =  9.84E-08,  avg # of iterations = 10.0

     negative rho (up, down):  2.051E-03 0.000E+00

     total cpu time spent up to now is      402.0 secs

     total energy              =    -145.81595049 Ry
     estimated scf accuracy    <       0.00011908 Ry

     iteration # 24     ecut=   147.00 Ry     beta= 0.70
     Davidson diagonalization with overlap
     ethr =  9.84E-08,  avg # of iterations =  1.0

     negative rho (up, down):  2.050E-03 0.000E+00

     total cpu time spent up to now is      415.2 secs

     total energy              =    -145.81593807 Ry
     estimated scf accuracy    <       0.00006980 Ry

     iteration # 25     ecut=   147.00 Ry     beta= 0.70
     Davidson diagonalization with overlap
     ethr =  9.84E-08,  avg # of iterations =  6.0

     negative rho (up, down):  2.050E-03 0.000E+00

     total cpu time spent up to now is      431.4 secs

     total energy              =    -145.81594386 Ry
     estimated scf accuracy    <       0.00001818 Ry

     iteration # 26     ecut=   147.00 Ry     beta= 0.70
     Davidson diagonalization with overlap
     ethr =  7.57E-08,  avg # of iterations =  2.0

     negative rho (up, down):  2.049E-03 0.000E+00

     total cpu time spent up to now is      444.9 secs

     total energy              =    -145.81594119 Ry
     estimated scf accuracy    <       0.00001022 Ry

     iteration # 27     ecut=   147.00 Ry     beta= 0.70
     Davidson diagonalization with overlap
     ethr =  4.26E-08,  avg # of iterations =  4.0

     negative rho (up, down):  2.049E-03 0.000E+00

     total cpu time spent up to now is      459.7 secs

     total energy              =    -145.81594356 Ry
     estimated scf accuracy    <       0.00000075 Ry

     iteration # 28     ecut=   147.00 Ry     beta= 0.70
     Davidson diagonalization with overlap
     ethr =  3.12E-09,  avg # of iterations = 12.0

     negative rho (up, down):  2.049E-03 0.000E+00

     total cpu time spent up to now is      487.2 secs

     total energy              =    -145.81594570 Ry
     estimated scf accuracy    <       0.00000514 Ry

     iteration # 29     ecut=   147.00 Ry     beta= 0.70
     Davidson diagonalization with overlap
     ethr =  3.12E-09,  avg # of iterations =  5.0

     negative rho (up, down):  2.049E-03 0.000E+00

     total cpu time spent up to now is      501.7 secs

     total energy              =    -145.81594525 Ry
     estimated scf accuracy    <       0.00000288 Ry

     iteration # 30     ecut=   147.00 Ry     beta= 0.70
     Davidson diagonalization with overlap
     ethr =  3.12E-09,  avg # of iterations =  3.0

     negative rho (up, down):  2.049E-03 0.000E+00

     total cpu time spent up to now is      517.2 secs

     total energy              =    -145.81594521 Ry
     estimated scf accuracy    <       0.00000137 Ry

     iteration # 31     ecut=   147.00 Ry     beta= 0.70
     Davidson diagonalization with overlap
     ethr =  3.12E-09,  avg # of iterations =  5.0

     negative rho (up, down):  2.049E-03 0.000E+00

     total cpu time spent up to now is      533.5 secs

     total energy              =    -145.81594544 Ry
     estimated scf accuracy    <       0.00000041 Ry

     iteration # 32     ecut=   147.00 Ry     beta= 0.70
     Davidson diagonalization with overlap
     ethr =  1.70E-09,  avg # of iterations =  2.0

     negative rho (up, down):  2.049E-03 0.000E+00

     total cpu time spent up to now is      547.1 secs

     total energy              =    -145.81594539 Ry
     estimated scf accuracy    <       0.00000027 Ry

     iteration # 33     ecut=   147.00 Ry     beta= 0.70
     Davidson diagonalization with overlap
     ethr =  1.11E-09,  avg # of iterations =  2.0

     negative rho (up, down):  2.049E-03 0.000E+00

     total cpu time spent up to now is      561.3 secs

     total energy              =    -145.81594542 Ry
     estimated scf accuracy    <       0.00000005 Ry

     iteration # 34     ecut=   147.00 Ry     beta= 0.70
     Davidson diagonalization with overlap
     ethr =  1.92E-10,  avg # of iterations = 11.0

     negative rho (up, down):  2.049E-03 0.000E+00

     total cpu time spent up to now is      583.6 secs

     total energy              =    -145.81594550 Ry
     estimated scf accuracy    <       0.00000014 Ry

     iteration # 35     ecut=   147.00 Ry     beta= 0.70
     Davidson diagonalization with overlap
     ethr =  1.92E-10,  avg # of iterations =  1.0

     negative rho (up, down):  2.049E-03 0.000E+00

     total cpu time spent up to now is      596.7 secs

     total energy              =    -145.81594547 Ry
     estimated scf accuracy    <       0.00000009 Ry

     iteration # 36     ecut=   147.00 Ry     beta= 0.70
     Davidson diagonalization with overlap
     ethr =  1.92E-10,  avg # of iterations =  7.0

     negative rho (up, down):  2.049E-03 0.000E+00

     total cpu time spent up to now is      612.6 secs

     total energy              =    -145.81594549 Ry
     estimated scf accuracy    <       0.00000002 Ry

     iteration # 37     ecut=   147.00 Ry     beta= 0.70
     Davidson diagonalization with overlap
     ethr =  7.35E-11,  avg # of iterations =  2.0

     negative rho (up, down):  2.049E-03 0.000E+00

     total cpu time spent up to now is      626.5 secs

     total energy              =    -145.81594549 Ry
     estimated scf accuracy    <       0.00000001 Ry

     iteration # 38     ecut=   147.00 Ry     beta= 0.70
     Davidson diagonalization with overlap
     ethr =  5.82E-11,  avg # of iterations =  2.0

     negative rho (up, down):  2.049E-03 0.000E+00

     total cpu time spent up to now is      639.2 secs

     End of self-consistent calculation

          k = 0.0000 0.0000 0.0000 (****** PWs)   bands (ev):

   -29.6114 -28.6118 -25.0638 -14.4044 -13.2603 -13.0975 -13.0947 -12.6176
    -9.5055  -9.5009  -8.9812  -6.9359

     highest occupied level (ev):    -6.9359

!    total energy              =    -145.81594549 Ry
     total all-electron energy =      -530.120705 Ry
     estimated scf accuracy    <          5.3E-09 Ry

     The total energy is the sum of the following terms:
     one-electron contribution =    -341.60909228 Ry
     hartree contribution      =     174.74959396 Ry
     xc contribution           =     -28.18198866 Ry
     ewald contribution        =      84.17305594 Ry
     one-center paw contrib.   =     -34.94751445 Ry

     charge density inside the Wigner-Seitz cell:   24.00000000

     reference position (x0):         0.00278811    2.77504802   -0.07336111 bohr

     Dipole moments (with respect to x0):
     Elect   0.0209  -0.6337  -0.5494 au (Ha),   0.0531  -1.6107  -1.3965 Debye
     Ionic  -0.0000  -0.0000  -0.0000 au (Ha),  -0.0000  -0.0000  -0.0000 Debye
     Total   0.0209  -0.6337  -0.5494 au (Ha),   0.0531  -1.6107  -1.3965 Debye

     Electrons quadrupole moment       -446.10981795 a.u. (Ha)
          Ions quadrupole moment        391.46596739 a.u. (Ha)
         Total quadrupole moment        -54.64385057 a.u. (Ha)

     *********    MAKOV-PAYNE CORRECTION    *********

     Makov-Payne correction with Madelung constant =   2.8373

     Makov-Payne correction     0.00000000 Ry =  0.000 eV (1st order, 1/a0)
                                0.00001019 Ry =  0.000 eV (2nd order, 1/a0^3)
                                0.00001019 Ry =  0.000 eV (total)

!    Total+Makov-Payne energy  =    -145.81593530 Ry
     Corrected vacuum level    =       0.01078182 eV

     convergence has been achieved in  38 iterations

     Writing all to output data dir ./pwscf.save/

     init_run     :     39.97s CPU     42.80s WALL (       1 calls)
     electrons    :    521.07s CPU    598.36s WALL (       1 calls)

     Called by init_run:
     wfcinit      :      2.52s CPU      2.87s WALL (       1 calls)
     potinit      :      4.53s CPU      5.44s WALL (       1 calls)
     hinit0       :      5.30s CPU      5.57s WALL (       1 calls)

     Called by electrons:
     c_bands      :    217.81s CPU    230.07s WALL (      38 calls)
     sum_band     :    131.15s CPU    155.54s WALL (      38 calls)
     v_of_rho     :     83.23s CPU    101.09s WALL (      39 calls)
     newd         :     55.22s CPU     76.00s WALL (      39 calls)
     PAW_pot      :      0.60s CPU      0.61s WALL (      39 calls)
     mix_rho      :     32.06s CPU     34.02s WALL (      38 calls)

     Called by c_bands:
     init_us_2    :      2.59s CPU      2.70s WALL (      77 calls)
     init_us_2:cp :      2.59s CPU      2.70s WALL (      77 calls)
     regterg      :    213.66s CPU    225.84s WALL (      38 calls)

     Called by *egterg:
     rdiaghg      :      0.04s CPU      0.06s WALL (     193 calls)
     h_psi        :    184.52s CPU    196.68s WALL (     194 calls)
     s_psi        :      6.09s CPU      6.13s WALL (     194 calls)
     g_psi        :      0.65s CPU      0.66s WALL (     155 calls)

     Called by h_psi:
     h_psi:calbec :      5.31s CPU      5.43s WALL (     194 calls)
     vloc_psi     :    171.83s CPU    183.82s WALL (     194 calls)
     add_vuspsi   :      6.10s CPU      6.12s WALL (     194 calls)

     General routines
     calbec       :      6.25s CPU      6.38s WALL (     232 calls)
     fft          :     69.71s CPU     83.12s WALL (     351 calls)
     ffts         :      6.37s CPU      7.71s WALL (      38 calls)
     fftw         :    157.77s CPU    171.30s WALL (    1740 calls)

     Parallel routines

     PWSCF        :   9m23.42s CPU  10m46.55s WALL


   This run was terminated on:  12:15: 4  12Oct2023            

=------------------------------------------------------------------------------=
   JOB DONE.
=------------------------------------------------------------------------------=
