
     Program PWSCF v.7.2 starts on 12Oct2023 at 12: 6:11 

     This program is part of the open-source Quantum ESPRESSO suite
     for quantum simulation of materials; please cite
         "P. Giannozzi et al., J. Phys.:Condens. Matter 21 395502 (2009);
         "P. Giannozzi et al., J. Phys.:Condens. Matter 29 465901 (2017);
         "P. Giannozzi et al., J. Chem. Phys. 152 154105 (2020);
          URL http://www.quantum-espresso.org", 
     in publications or presentations arising from this work. More details at
     http://www.quantum-espresso.org/quote

     Parallel version (MPI), running on    32 processors

     MPI processes distributed on     1 nodes
     245650 MiB available memory on the printing compute node when the environment starts

     Reading input from H2O_CO2_dimer_O_H_contact_32_precision_dimer.in
Warning: card &CELL ignored
Warning: card / ignored

     Current dimensions of program PWSCF are:
     Max number of different atomic species (ntypx) = 10
     Max number of k-points (npk) =  40000
     Max angular momentum in pseudopotentials (lmaxx) =  4
     file H.pbe-kjpaw_psl.1.0.0.UPF: wavefunction(s)  1S renormalized
     file C.pbe-n-kjpaw_psl.1.0.0.UPF: wavefunction(s)  2S 2P renormalized
     file O.pbe-n-kjpaw_psl.1.0.0.UPF: wavefunction(s)  2S 2P renormalized

     IMPORTANT: XC functional enforced from input :
     Exchange-correlation= PBE
                           (   1   4   3   4   0   0   0)
     Any further DFT definition will be discarded
     Please, verify this is what you really want


     gamma-point specific algorithms are used

     R & G space division:  proc/nbgrp/npool/nimage =      32
     Subspace diagonalization in iterative solution of the eigenvalue problem:
     a serial algorithm will be used


     Parallelization info
     --------------------
     sticks:   dense  smooth     PW     G-vecs:    dense   smooth      PW
     Min        6395    6395   1598              2177048  2177048  272114
     Max        6398    6398   1600              2177062  2177062  272124
     Sum      204693  204693  51189             69665707 69665707 8707803

     Using Slab Decomposition



     bravais-lattice index     =            0
     lattice parameter (alat)  =      66.1404  a.u.
     unit-cell volume          =  289334.8415 (a.u.)^3
     number of atoms/cell      =            6
     number of atomic types    =            3
     number of electrons       =        24.00
     number of Kohn-Sham states=           12
     kinetic-energy cutoff     =     147.0000  Ry
     charge density cutoff     =     588.0000  Ry
     scf convergence threshold =      1.0E-08
     mixing beta               =       0.7000
     number of iterations used =            8  plain     mixing
     Exchange-correlation= PBE
                           (   1   4   3   4   0   0   0)

     celldm(1)=  66.140414  celldm(2)=   0.000000  celldm(3)=   0.000000
     celldm(4)=   0.000000  celldm(5)=   0.000000  celldm(6)=   0.000000

     crystal axes: (cart. coord. in units of alat)
               a(1) = (   1.000000   0.000000   0.000000 )  
               a(2) = (   0.000000   1.000000   0.000000 )  
               a(3) = (   0.000000   0.000000   1.000000 )  

     reciprocal axes: (cart. coord. in units 2 pi/alat)
               b(1) = (  1.000000  0.000000  0.000000 )  
               b(2) = (  0.000000  1.000000  0.000000 )  
               b(3) = (  0.000000  0.000000  1.000000 )  


     PseudoPot. # 1 for H  read from file:
     /home/users/klimj2am/src/pslibrary.1.0.0/pbe/PSEUDOPOTENTIALS/H.pbe-kjpaw_psl.1.0.0.UPF
     MD5 check sum: 220281c0717fd894cece6904c624ceaa
     Pseudo is Projector augmented-wave, Zval =  1.0
     Generated using 'atomic' code by A. Dal Corso  v.7.2
     Shape of augmentation charge: PSQ
     Using radial grid of  929 points,  2 beta functions with: 
                l(1) =   0
                l(2) =   0
     Q(r) pseudized with 0 coefficients 


     PseudoPot. # 2 for C  read from file:
     /home/users/klimj2am/src/pslibrary.1.0.0/pbe/PSEUDOPOTENTIALS/C.pbe-n-kjpaw_psl.1.0.0.UPF
     MD5 check sum: 9d4797b4e2669f30c50dcc814f8da1dd
     Pseudo is Projector augmented-wave + core cor, Zval =  4.0
     Generated using 'atomic' code by A. Dal Corso  v.7.2
     Shape of augmentation charge: PSQ
     Using radial grid of 1073 points,  4 beta functions with: 
                l(1) =   0
                l(2) =   0
                l(3) =   1
                l(4) =   1
     Q(r) pseudized with 0 coefficients 


     PseudoPot. # 3 for O  read from file:
     /home/users/klimj2am/src/pslibrary.1.0.0/pbe/PSEUDOPOTENTIALS/O.pbe-n-kjpaw_psl.1.0.0.UPF
     MD5 check sum: 48e285564fec6dca10ec424bc53b541b
     Pseudo is Projector augmented-wave + core cor, Zval =  6.0
     Generated using 'atomic' code by A. Dal Corso  v.7.2
     Shape of augmentation charge: PSQ
     Using radial grid of 1095 points,  4 beta functions with: 
                l(1) =   0
                l(2) =   0
                l(3) =   1
                l(4) =   1
     Q(r) pseudized with 0 coefficients 


     atomic species   valence    mass     pseudopotential
        H              1.00     1.00800     H ( 1.00)
        C              4.00    12.01100     C ( 1.00)
        O              6.00    15.99900     O ( 1.00)

     No symmetry found



   Cartesian axes

     site n.     atom                  positions (alat units)
         1           H   tau(   1) = (   0.0010117   0.1615475  -0.0266201  )
         2           H   tau(   2) = (   0.0000000   0.1273850   0.0000000  )
         3           C   tau(   3) = (   0.0000000   0.0025216   0.0000000  )
         4           O   tau(   4) = (   0.0000000   0.0359565   0.0000000  )
         5           O   tau(   5) = (   0.0000000  -0.0309133   0.0000000  )
         6           O   tau(   6) = (   0.0000000   0.1548527   0.0000000  )

     number of k points=     1
                       cart. coord. in units 2pi/alat
        k(    1) = (   0.0000000   0.0000000   0.0000000), wk =   2.0000000

     Dense  grid: 34832854 G-vectors     FFT dimensions: ( 512, 512, 512)

     Estimated max dynamical RAM per process >       1.63 GB

     Estimated total dynamical RAM >      52.26 GB

     Initial potential from superposition of free atoms

     starting charge      23.9999, renormalised to      24.0000

     negative rho (up, down):  1.061E-03 0.000E+00
     Starting wfcs are   18 randomized atomic wfcs
     Checking if some PAW data can be deallocated... 

     total cpu time spent up to now is       44.1 secs

     Self-consistent Calculation

     iteration #  1     ecut=   147.00 Ry     beta= 0.70
     Davidson diagonalization with overlap
     ethr =  1.00E-02,  avg # of iterations =  3.0

     negative rho (up, down):  6.452E-04 0.000E+00

     total cpu time spent up to now is       60.0 secs

     total energy              =    -145.20598477 Ry
     estimated scf accuracy    <       0.95529020 Ry

     iteration #  2     ecut=   147.00 Ry     beta= 0.70
     Davidson diagonalization with overlap
     ethr =  3.98E-03,  avg # of iterations =  7.0

     negative rho (up, down):  8.247E-04 0.000E+00

     total cpu time spent up to now is       78.4 secs

     total energy              =    -145.64848504 Ry
     estimated scf accuracy    <       0.67473092 Ry

     iteration #  3     ecut=   147.00 Ry     beta= 0.70
     Davidson diagonalization with overlap
     ethr =  2.81E-03,  avg # of iterations =  2.0

     negative rho (up, down):  1.276E-03 0.000E+00

     total cpu time spent up to now is       91.6 secs

     total energy              =    -145.55170533 Ry
     estimated scf accuracy    <       0.20689786 Ry

     iteration #  4     ecut=   147.00 Ry     beta= 0.70
     Davidson diagonalization with overlap
     ethr =  8.62E-04,  avg # of iterations =  7.0

     negative rho (up, down):  1.335E-03 0.000E+00

     total cpu time spent up to now is      109.2 secs

     total energy              =    -145.86071009 Ry
     estimated scf accuracy    <       0.36678285 Ry

     iteration #  5     ecut=   147.00 Ry     beta= 0.70
     Davidson diagonalization with overlap
     ethr =  8.62E-04,  avg # of iterations =  1.0

     negative rho (up, down):  1.576E-03 0.000E+00

     total cpu time spent up to now is      122.2 secs

     total energy              =    -145.76288314 Ry
     estimated scf accuracy    <       0.27239040 Ry

     iteration #  6     ecut=   147.00 Ry     beta= 0.70
     Davidson diagonalization with overlap
     ethr =  8.62E-04,  avg # of iterations =  4.0

     negative rho (up, down):  2.058E-03 0.000E+00

     total cpu time spent up to now is      136.5 secs

     total energy              =    -145.75044607 Ry
     estimated scf accuracy    <       0.05665815 Ry

     iteration #  7     ecut=   147.00 Ry     beta= 0.70
     Davidson diagonalization with overlap
     ethr =  2.36E-04,  avg # of iterations =  7.0

     negative rho (up, down):  2.033E-03 0.000E+00

     total cpu time spent up to now is      153.8 secs

     total energy              =    -145.82984950 Ry
     estimated scf accuracy    <       0.15602801 Ry

     iteration #  8     ecut=   147.00 Ry     beta= 0.70
     Davidson diagonalization with overlap
     ethr =  2.36E-04,  avg # of iterations =  1.0

     negative rho (up, down):  1.913E-03 0.000E+00

     total cpu time spent up to now is      166.9 secs

     total energy              =    -145.79472765 Ry
     estimated scf accuracy    <       0.11000257 Ry

     iteration #  9     ecut=   147.00 Ry     beta= 0.70
     Davidson diagonalization with overlap
     ethr =  2.36E-04,  avg # of iterations =  4.0

     negative rho (up, down):  2.053E-03 0.000E+00

     total cpu time spent up to now is      181.5 secs

     total energy              =    -145.81246763 Ry
     estimated scf accuracy    <       0.01267199 Ry

     iteration # 10     ecut=   147.00 Ry     beta= 0.70
     Davidson diagonalization with overlap
     ethr =  5.28E-05,  avg # of iterations =  4.0

     negative rho (up, down):  2.133E-03 0.000E+00

     total cpu time spent up to now is      195.8 secs

     total energy              =    -145.81315218 Ry
     estimated scf accuracy    <       0.00815153 Ry

     iteration # 11     ecut=   147.00 Ry     beta= 0.70
     Davidson diagonalization with overlap
     ethr =  3.40E-05,  avg # of iterations =  2.0

     negative rho (up, down):  2.054E-03 0.000E+00

     total cpu time spent up to now is      209.6 secs

     total energy              =    -145.81205448 Ry
     estimated scf accuracy    <       0.00391130 Ry

     iteration # 12     ecut=   147.00 Ry     beta= 0.70
     Davidson diagonalization with overlap
     ethr =  1.63E-05,  avg # of iterations =  5.0

     negative rho (up, down):  2.019E-03 0.000E+00

     total cpu time spent up to now is      225.2 secs

     total energy              =    -145.81409178 Ry
     estimated scf accuracy    <       0.00047996 Ry

     iteration # 13     ecut=   147.00 Ry     beta= 0.70
     Davidson diagonalization with overlap
     ethr =  2.00E-06,  avg # of iterations =  8.0

     negative rho (up, down):  2.030E-03 0.000E+00

     total cpu time spent up to now is      243.4 secs

     total energy              =    -145.81425285 Ry
     estimated scf accuracy    <       0.00218439 Ry

     iteration # 14     ecut=   147.00 Ry     beta= 0.70
     Davidson diagonalization with overlap
     ethr =  2.00E-06,  avg # of iterations =  1.0

     negative rho (up, down):  2.054E-03 0.000E+00

     total cpu time spent up to now is      256.5 secs

     total energy              =    -145.81351917 Ry
     estimated scf accuracy    <       0.00132397 Ry

     iteration # 15     ecut=   147.00 Ry     beta= 0.70
     Davidson diagonalization with overlap
     ethr =  2.00E-06,  avg # of iterations =  6.0

     negative rho (up, down):  2.061E-03 0.000E+00

     total cpu time spent up to now is      275.8 secs

     total energy              =    -145.81427631 Ry
     estimated scf accuracy    <       0.00033935 Ry

     iteration # 16     ecut=   147.00 Ry     beta= 0.70
     Davidson diagonalization with overlap
     ethr =  1.41E-06,  avg # of iterations =  2.0

     negative rho (up, down):  2.056E-03 0.000E+00

     total cpu time spent up to now is      289.4 secs

     total energy              =    -145.81411843 Ry
     estimated scf accuracy    <       0.00049538 Ry

     iteration # 17     ecut=   147.00 Ry     beta= 0.70
     Davidson diagonalization with overlap
     ethr =  1.41E-06,  avg # of iterations =  1.0

     negative rho (up, down):  2.052E-03 0.000E+00

     total cpu time spent up to now is      302.6 secs

     total energy              =    -145.81400392 Ry
     estimated scf accuracy    <       0.00024234 Ry

     iteration # 18     ecut=   147.00 Ry     beta= 0.70
     Davidson diagonalization with overlap
     ethr =  1.01E-06,  avg # of iterations =  5.0

     negative rho (up, down):  2.051E-03 0.000E+00

     total cpu time spent up to now is      317.4 secs

     total energy              =    -145.81404747 Ry
     estimated scf accuracy    <       0.00002738 Ry

     iteration # 19     ecut=   147.00 Ry     beta= 0.70
     Davidson diagonalization with overlap
     ethr =  1.14E-07,  avg # of iterations =  6.0

     negative rho (up, down):  2.052E-03 0.000E+00

     total cpu time spent up to now is      335.9 secs

     total energy              =    -145.81409167 Ry
     estimated scf accuracy    <       0.00000889 Ry

     iteration # 20     ecut=   147.00 Ry     beta= 0.70
     Davidson diagonalization with overlap
     ethr =  3.70E-08,  avg # of iterations =  2.0

     negative rho (up, down):  2.052E-03 0.000E+00

     total cpu time spent up to now is      350.0 secs

     total energy              =    -145.81409189 Ry
     estimated scf accuracy    <       0.00000379 Ry

     iteration # 21     ecut=   147.00 Ry     beta= 0.70
     Davidson diagonalization with overlap
     ethr =  1.58E-08,  avg # of iterations =  8.0

     negative rho (up, down):  2.052E-03 0.000E+00

     total cpu time spent up to now is      367.3 secs

     total energy              =    -145.81409358 Ry
     estimated scf accuracy    <       0.00000219 Ry

     iteration # 22     ecut=   147.00 Ry     beta= 0.70
     Davidson diagonalization with overlap
     ethr =  9.12E-09,  avg # of iterations =  2.0

     negative rho (up, down):  2.053E-03 0.000E+00

     total cpu time spent up to now is      381.5 secs

     total energy              =    -145.81409390 Ry
     estimated scf accuracy    <       0.00000158 Ry

     iteration # 23     ecut=   147.00 Ry     beta= 0.70
     Davidson diagonalization with overlap
     ethr =  6.60E-09,  avg # of iterations =  4.0

     negative rho (up, down):  2.053E-03 0.000E+00

     total cpu time spent up to now is      397.7 secs

     total energy              =    -145.81409476 Ry
     estimated scf accuracy    <       0.00000258 Ry

     iteration # 24     ecut=   147.00 Ry     beta= 0.70
     Davidson diagonalization with overlap
     ethr =  6.60E-09,  avg # of iterations =  2.0

     negative rho (up, down):  2.052E-03 0.000E+00

     total cpu time spent up to now is      411.9 secs

     total energy              =    -145.81409348 Ry
     estimated scf accuracy    <       0.00000348 Ry

     iteration # 25     ecut=   147.00 Ry     beta= 0.70
     Davidson diagonalization with overlap
     ethr =  6.60E-09,  avg # of iterations =  2.0

     negative rho (up, down):  2.052E-03 0.000E+00

     total cpu time spent up to now is      425.5 secs

     total energy              =    -145.81409301 Ry
     estimated scf accuracy    <       0.00000133 Ry

     iteration # 26     ecut=   147.00 Ry     beta= 0.70
     Davidson diagonalization with overlap
     ethr =  5.55E-09,  avg # of iterations =  5.0

     negative rho (up, down):  2.052E-03 0.000E+00

     total cpu time spent up to now is      441.9 secs

     total energy              =    -145.81409361 Ry
     estimated scf accuracy    <       0.00000005 Ry

     iteration # 27     ecut=   147.00 Ry     beta= 0.70
     Davidson diagonalization with overlap
     ethr =  2.28E-10,  avg # of iterations = 11.0

     negative rho (up, down):  2.052E-03 0.000E+00

     total cpu time spent up to now is      468.6 secs

     total energy              =    -145.81409358 Ry
     estimated scf accuracy    <       0.00000050 Ry

     iteration # 28     ecut=   147.00 Ry     beta= 0.70
     Davidson diagonalization with overlap
     ethr =  2.28E-10,  avg # of iterations = 11.0

     negative rho (up, down):  2.052E-03 0.000E+00

     total cpu time spent up to now is      494.1 secs

     total energy              =    -145.81409377 Ry
     estimated scf accuracy    <       0.00000011 Ry

     iteration # 29     ecut=   147.00 Ry     beta= 0.70
     Davidson diagonalization with overlap
     ethr =  2.28E-10,  avg # of iterations =  4.0

     negative rho (up, down):  2.052E-03 0.000E+00

     total cpu time spent up to now is      508.5 secs

     total energy              =    -145.81409371 Ry
     estimated scf accuracy    <       0.00000014 Ry

     iteration # 30     ecut=   147.00 Ry     beta= 0.70
     Davidson diagonalization with overlap
     ethr =  2.28E-10,  avg # of iterations =  5.0

     negative rho (up, down):  2.052E-03 0.000E+00

     total cpu time spent up to now is      524.1 secs

     total energy              =    -145.81409372 Ry
     estimated scf accuracy    <       0.00000002 Ry

     iteration # 31     ecut=   147.00 Ry     beta= 0.70
     Davidson diagonalization with overlap
     ethr =  7.08E-11,  avg # of iterations =  8.0

     negative rho (up, down):  2.052E-03 0.000E+00

     total cpu time spent up to now is      544.6 secs

     total energy              =    -145.81409374 Ry
     estimated scf accuracy    <       0.00000001 Ry

     iteration # 32     ecut=   147.00 Ry     beta= 0.70
     Davidson diagonalization with overlap
     ethr =  5.90E-11,  avg # of iterations =  2.0

     negative rho (up, down):  2.052E-03 0.000E+00

     total cpu time spent up to now is      557.3 secs

     End of self-consistent calculation

          k = 0.0000 0.0000 0.0000 (****** PWs)   bands (ev):

   -29.3879 -28.3890 -25.2837 -14.0165 -13.0386 -12.8826 -12.8818 -12.8502
    -9.2771  -9.2760  -9.2125  -7.1340

     highest occupied level (ev):    -7.1340

!    total energy              =    -145.81409373 Ry
     total all-electron energy =      -530.118853 Ry
     estimated scf accuracy    <          7.9E-09 Ry

     The total energy is the sum of the following terms:
     one-electron contribution =    -325.57910779 Ry
     hartree contribution      =     166.80513548 Ry
     xc contribution           =     -28.17021815 Ry
     ewald contribution        =      76.07838749 Ry
     one-center paw contrib.   =     -34.94829076 Ry

     charge density inside the Wigner-Seitz cell:   24.00000000

     reference position (x0):         0.00278811    3.46794760   -0.07336111 bohr

     Dipole moments (with respect to x0):
     Elect   0.0211  -0.4997  -0.5562 au (Ha),   0.0537  -1.2702  -1.4138 Debye
     Ionic  -0.0000   0.0000  -0.0000 au (Ha),  -0.0000   0.0000  -0.0000 Debye
     Total   0.0211  -0.4997  -0.5562 au (Ha),   0.0537  -1.2702  -1.4138 Debye

     Electrons quadrupole moment       -643.67039497 a.u. (Ha)
          Ions quadrupole moment        588.00897098 a.u. (Ha)
         Total quadrupole moment        -55.66142399 a.u. (Ha)

     *********    MAKOV-PAYNE CORRECTION    *********

     Makov-Payne correction with Madelung constant =   2.8373

     Makov-Payne correction     0.00000000 Ry =  0.000 eV (1st order, 1/a0)
                                0.00000810 Ry =  0.000 eV (2nd order, 1/a0^3)
                                0.00000810 Ry =  0.000 eV (total)

!    Total+Makov-Payne energy  =    -145.81408563 Ry
     Corrected vacuum level    =       0.01099796 eV

     convergence has been achieved in  32 iterations

     Writing all to output data dir ./pwscf.save/

     init_run     :     40.55s CPU     43.41s WALL (       1 calls)
     electrons    :    450.06s CPU    516.02s WALL (       1 calls)

     Called by init_run:
     wfcinit      :      2.50s CPU      2.85s WALL (       1 calls)
     potinit      :      5.02s CPU      5.81s WALL (       1 calls)
     hinit0       :      2.41s CPU      2.73s WALL (       1 calls)

     Called by electrons:
     c_bands      :    195.38s CPU    205.92s WALL (      32 calls)
     sum_band     :    110.00s CPU    130.46s WALL (      32 calls)
     v_of_rho     :     70.37s CPU     86.16s WALL (      33 calls)
     newd         :     46.84s CPU     64.33s WALL (      33 calls)
     PAW_pot      :      0.50s CPU      0.51s WALL (      33 calls)
     mix_rho      :     26.54s CPU     28.13s WALL (      32 calls)

     Called by c_bands:
     init_us_2    :      2.15s CPU      2.23s WALL (      65 calls)
     init_us_2:cp :      2.15s CPU      2.23s WALL (      65 calls)
     regterg      :    191.86s CPU    202.34s WALL (      32 calls)

     Called by *egterg:
     rdiaghg      :      0.04s CPU      0.05s WALL (     174 calls)
     h_psi        :    165.60s CPU    176.05s WALL (     175 calls)
     s_psi        :      5.62s CPU      5.64s WALL (     175 calls)
     g_psi        :      0.60s CPU      0.60s WALL (     142 calls)

     Called by h_psi:
     h_psi:calbec :      4.91s CPU      5.01s WALL (     175 calls)
     vloc_psi     :    153.97s CPU    164.28s WALL (     175 calls)
     add_vuspsi   :      5.58s CPU      5.61s WALL (     175 calls)

     General routines
     calbec       :      5.71s CPU      5.81s WALL (     207 calls)
     fft          :     58.86s CPU     70.73s WALL (     297 calls)
     ffts         :      5.49s CPU      6.64s WALL (      32 calls)
     fftw         :    140.20s CPU    151.71s WALL (    1550 calls)

     Parallel routines

     PWSCF        :   8m12.86s CPU   9m24.42s WALL


   This run was terminated on:  12:15:35  12Oct2023            

=------------------------------------------------------------------------------=
   JOB DONE.
=------------------------------------------------------------------------------=
