 vasp.6.1.2 22Jul20 (build Jan  5 2021 21:18:56) complex                         
 executed on             LinuxPGI date 2021.02.12  07:33:52
 running on   32 total cores
 distrk:  each k-point on   32 cores,    1 groups
 distr:  one band on NCORE=   8 cores,    4 groups


--------------------------------------------------------------------------------------------------------


 INCAR:
 POTCAR:    PAW_PBE H 15Jun2001                   
 POTCAR:    PAW_PBE N 08Apr2002                   
 POTCAR:    PAW_PBE O 08Apr2002                   
 POTCAR:    PAW_PBE H 15Jun2001                   
   VRHFIN =H: ultrasoft test                                                                        
   LEXCH  = PE                                                                                      
   EATOM  =    12.4884 eV,    0.9179 Ry                                                             
                                                                                                    
   TITEL  = PAW_PBE H 15Jun2001                                                                     
   LULTRA =        F    use ultrasoft PP ?                                                          
   IUNSCR =        0    unscreen: 0-lin 1-nonlin 2-no                                               
   RPACOR =    0.000    partial core radius                                                         
   POMASS =    1.000; ZVAL   =    1.000    mass and valenz                                          
   RCORE  =    1.100    outmost cutoff radius                                                       
   RWIGS  =    0.700; RWIGS  =    0.370    wigner-seitz radius (au A)                               
   ENMAX  =  250.000; ENMIN  =  200.000 eV                                                          
   RCLOC  =    0.701    cutoff for local pot                                                        
   LCOR   =        T    correct aug charges                                                         
   LPAW   =        T    paw PP                                                                      
   EAUG   =  400.000                                                                                
   RMAX   =    1.123    core radius for proj-oper                                                   
   RAUG   =    1.200    factor for augmentation sphere                                              
   RDEP   =    1.112    radius for radial grids                                                     
   RDEPT  =    0.926    core radius for aug-charge                                                  
                                                                                                    
   Atomic configuration                                                                             
    2 entries                                                                                       
     n  l   j            E        occ.                                                              
     1  0  0.50        -6.4927   1.0000                                                             
     2  1  0.50        -3.4015   0.0000                                                             
   Description                                                                                      
     l       E           TYP  RCUT    TYP  RCUT                                                     
     0     -6.4927494     23  1.100                                                                 
     0      6.8029130     23  1.100                                                                 
     1     -4.0817478     23  1.100                                                                 
  local pseudopotential read in
  atomic valenz-charges read in
  non local Contribution for L=            0  read in
    real space projection operators read in
  non local Contribution for L=            0  read in
    real space projection operators read in
  non local Contribution for L=            1  read in
    real space projection operators read in
    PAW grid and wavefunctions read in
 
   number of l-projection  operators is LMAX  =            3
   number of lm-projection operators is LMMAX =            5
 
 POTCAR:    PAW_PBE N 08Apr2002                   
   VRHFIN =N: s2p3                                                                                  
   LEXCH  = PE                                                                                      
   EATOM  =   264.5486 eV,   19.4438 Ry                                                             
                                                                                                    
   TITEL  = PAW_PBE N 08Apr2002                                                                     
   LULTRA =        F    use ultrasoft PP ?                                                          
   IUNSCR =        1    unscreen: 0-lin 1-nonlin 2-no                                               
   RPACOR =    1.200    partial core radius                                                         
   POMASS =   14.001; ZVAL   =    5.000    mass and valenz                                          
   RCORE  =    1.500    outmost cutoff radius                                                       
   RWIGS  =    1.400; RWIGS  =    0.741    wigner-seitz radius (au A)                               
   ENMAX  =  400.000; ENMIN  =  300.000 eV                                                          
   ICORE  =        2    local potential                                                             
   LCOR   =        T    correct aug charges                                                         
   LPAW   =        T    paw PP                                                                      
   EAUG   =  627.112                                                                                
   DEXC   =    0.000                                                                                
   RMAX   =    1.529    core radius for proj-oper                                                   
   RAUG   =    1.300    factor for augmentation sphere                                              
   RDEP   =    1.514    radius for radial grids                                                     
   RDEPT  =    1.338    core radius for aug-charge                                                  
                                                                                                    
   Atomic configuration                                                                             
    4 entries                                                                                       
     n  l   j            E        occ.                                                              
     1  0  0.50      -384.7179   2.0000                                                             
     2  0  0.50       -18.5828   2.0000                                                             
     2  1  0.50        -7.0898   3.0000                                                             
     3  2  1.50        -6.8029   0.0000                                                             
   Description                                                                                      
     l       E           TYP  RCUT    TYP  RCUT                                                     
     0    -18.5828119     23  1.200                                                                 
     0    -13.5018863     23  1.200                                                                 
     1     -7.0897853     23  1.500                                                                 
     1      9.5240782     23  1.500                                                                 
     2     -6.8029130      7  1.500                                                                 
  local pseudopotential read in
  partial core-charges read in
  partial kinetic energy density read in
  atomic valenz-charges read in
  non local Contribution for L=            0  read in
    real space projection operators read in
  non local Contribution for L=            0  read in
    real space projection operators read in
  non local Contribution for L=            1  read in
    real space projection operators read in
  non local Contribution for L=            1  read in
    real space projection operators read in
    PAW grid and wavefunctions read in
 
   number of l-projection  operators is LMAX  =            4
   number of lm-projection operators is LMMAX =            8
 
 POTCAR:    PAW_PBE O 08Apr2002                   
   VRHFIN =O: s2p4                                                                                  
   LEXCH  = PE                                                                                      
   EATOM  =   432.3788 eV,   31.7789 Ry                                                             
                                                                                                    
   TITEL  = PAW_PBE O 08Apr2002                                                                     
   LULTRA =        F    use ultrasoft PP ?                                                          
   IUNSCR =        1    unscreen: 0-lin 1-nonlin 2-no                                               
   RPACOR =    1.200    partial core radius                                                         
   POMASS =   16.000; ZVAL   =    6.000    mass and valenz                                          
   RCORE  =    1.520    outmost cutoff radius                                                       
   RWIGS  =    1.550; RWIGS  =    0.820    wigner-seitz radius (au A)                               
   ENMAX  =  400.000; ENMIN  =  300.000 eV                                                          
   ICORE  =        2    local potential                                                             
   LCOR   =        T    correct aug charges                                                         
   LPAW   =        T    paw PP                                                                      
   EAUG   =  605.392                                                                                
   DEXC   =    0.000                                                                                
   RMAX   =    1.553    core radius for proj-oper                                                   
   RAUG   =    1.300    factor for augmentation sphere                                              
   RDEP   =    1.550    radius for radial grids                                                     
   RDEPT  =    1.329    core radius for aug-charge                                                  
                                                                                                    
   Atomic configuration                                                                             
    4 entries                                                                                       
     n  l   j            E        occ.                                                              
     1  0  0.50      -514.6923   2.0000                                                             
     2  0  0.50       -23.9615   2.0000                                                             
     2  1  0.50        -9.0305   4.0000                                                             
     3  2  1.50        -9.5241   0.0000                                                             
   Description                                                                                      
     l       E           TYP  RCUT    TYP  RCUT                                                     
     0    -23.9615318     23  1.200                                                                 
     0     -9.5240782     23  1.200                                                                 
     1     -9.0304911     23  1.520                                                                 
     1      8.1634956     23  1.520                                                                 
     2     -9.5240782      7  1.500                                                                 
  local pseudopotential read in
  partial core-charges read in
  partial kinetic energy density read in
  kinetic energy density of atom read in
  atomic valenz-charges read in
  non local Contribution for L=            0  read in
    real space projection operators read in
  non local Contribution for L=            0  read in
    real space projection operators read in
  non local Contribution for L=            1  read in
    real space projection operators read in
  non local Contribution for L=            1  read in
    real space projection operators read in
    PAW grid and wavefunctions read in
 
   number of l-projection  operators is LMAX  =            4
   number of lm-projection operators is LMMAX =            8
 
  PAW_PBE H 15Jun2001                   :
 energy of atom  1       EATOM=  -12.4884
 kinetic energy error for atom=    0.0000 (will be added to EATOM!!)
  PAW_PBE N 08Apr2002                   :
 energy of atom  2       EATOM= -264.5486
 kinetic energy error for atom=    0.0004 (will be added to EATOM!!)
  PAW_PBE O 08Apr2002                   :
 energy of atom  3       EATOM= -432.3788
 kinetic energy error for atom=    0.0005 (will be added to EATOM!!)
 
 
 POSCAR:  H  N  O
  positions in cartesian coordinates
  No initial velocities read in
 exchange correlation table for  LEXCH =        8
   RHO(1)=    0.500       N(1)  =     2000
   RHO(2)=  100.500       N(2)  =     4000
 


--------------------------------------------------------------------------------------------------------


 ion  position               nearest neighbor table
   1  0.010  0.001  0.021-   6 1.01
   2  0.999  0.039  0.997-   6 1.01
   3  0.971  0.002  0.997-   6 1.01
   4  0.019  0.098  0.009-   7 0.96
   5  0.984  0.100  0.985-   7 0.96
   6  0.999  0.010  0.996-   3 1.01   2 1.01   1 1.01
   7  0.000  0.082  0.997-   5 0.96   4 0.96
 
  LATTYP: Found a simple cubic cell.
 ALAT       =    35.0000000000
  
  Lattice vectors:
  
 A1 = (  35.0000000000,   0.0000000000,   0.0000000000)
 A2 = (   0.0000000000,  35.0000000000,   0.0000000000)
 A3 = (   0.0000000000,   0.0000000000,  35.0000000000)


Analysis of symmetry for initial positions (statically):
=====================================================================
 Subroutine PRICEL returns:
 Original cell was already a primitive cell.
 

 Routine SETGRP: Setting up the symmetry group for a 
 simple cubic supercell.


 Subroutine GETGRP returns: Found  1 space group operations
 (whereof  1 operations were pure point group operations)
 out of a pool of 48 trial point group operations.


The static configuration has the point symmetry C_1 .


Analysis of symmetry for dynamics (positions and initial velocities):
=====================================================================
 Subroutine PRICEL returns:
 Original cell was already a primitive cell.
 

 Routine SETGRP: Setting up the symmetry group for a 
 simple cubic supercell.


 Subroutine GETGRP returns: Found  1 space group operations
 (whereof  1 operations were pure point group operations)
 out of a pool of 48 trial point group operations.


The dynamic configuration has the point symmetry C_1 .


 Subroutine INISYM returns: Found  1 space group operations
 (whereof  1 operations are pure point group operations),
 and found     1 'primitive' translations


----------------------------------------------------------------------------------------

                                     Primitive cell                                     

  volume of cell :   42875.0000

  direct lattice vectors                    reciprocal lattice vectors
    35.000000000  0.000000000  0.000000000     0.028571429  0.000000000  0.000000000
     0.000000000 35.000000000  0.000000000     0.000000000  0.028571429  0.000000000
     0.000000000  0.000000000 35.000000000     0.000000000  0.000000000  0.028571429

  length of vectors
    35.000000000 35.000000000 35.000000000     0.028571429  0.028571429  0.028571429

  position of ions in fractional coordinates (direct lattice)
     0.010288498  0.000702679  0.020821486
     0.999498008  0.038882065  0.996685848
     0.970673256  0.002458017  0.996686295
     0.019312931  0.097606892  0.009315050
     0.983782053  0.099525677  0.984604577
     0.998586675  0.009985768  0.996060442
     0.000398437  0.081718330  0.997303770

  ion indices of the primitive-cell ions
   primitive index   ion index
                 1           1
                 2           2
                 3           3
                 4           4
                 5           5
                 6           6
                 7           7

----------------------------------------------------------------------------------------

 
 
 KPOINTS: automatic mesh                          

Automatic generation of k-mesh.
Space group operators:
 irot       det(A)        alpha          n_x          n_y          n_z        tau_x        tau_y        tau_z
    1     1.000000     0.000000     1.000000     0.000000     0.000000     0.000000     0.000000     0.000000
 
 Subroutine IBZKPT returns following result:
 ===========================================
 
 Found      1 irreducible k-points:
 
 Following reciprocal coordinates:
            Coordinates               Weight
  0.000000  0.000000  0.000000      1.000000
 
 Following cartesian coordinates:
            Coordinates               Weight
  0.000000  0.000000  0.000000      1.000000
 


--------------------------------------------------------------------------------------------------------




 Dimension of arrays:
   k-points           NKPTS =      1   k-points in BZ     NKDIM =      1   number of bands    NBANDS=     12
   number of dos      NEDOS =    301   number of ions     NIONS =      7
   non local maximal  LDIM  =      4   non local SUM 2l+1 LMDIM =      8
   total plane-waves  NPLWV = ******
   max r-space proj   IRMAX =      1   max aug-charges    IRDMAX=  33660
   dimension x,y,z NGX =   480 NGY =  480 NGZ =  480
   dimension x,y,z NGXF=   960 NGYF=  960 NGZF=  960
   support grid    NGXF=   960 NGYF=  960 NGZF=  960
   ions per type =               5   1   1
   NGX,Y,Z   is equivalent  to a cutoff of  22.80, 22.80, 22.80 a.u.
   NGXF,Y,Z  is equivalent  to a cutoff of  45.60, 45.60, 45.60 a.u.

 SYSTEM =  C                                       
 POSCAR =   H  N  O                                

 Startparameter for this run:
   NWRITE =      2    write-flag & timer
   PREC   = acc       normal or accurate (medium, high low for compatibility)
   ISTART =      0    job   : 0-new  1-cont  2-samecut
   ICHARG =      2    charge: 1-file 2-atom 10-const
   ISPIN  =      1    spin polarized calculation?
   LNONCOLLINEAR =      F non collinear calculations
   LSORBIT =      F    spin-orbit coupling
   INIWAV =      1    electr: 0-lowe 1-rand  2-diag
   LASPH  =      T    aspherical Exc in radial PAW
   METAGGA=      F    non-selfconsistent MetaGGA calc.

 Electronic Relaxation 1
   ENCUT  = 1600.0 eV 117.60 Ry   10.84 a.u. 114.15114.15114.15*2*pi/ulx,y,z
   ENINI  = 1600.0     initial cutoff
   ENAUG  =  627.1 eV  augmentation charge cutoff
   NELM   =     60;   NELMIN=  2; NELMDL= -5     # of ELM steps 
   EDIFF  = 0.1E-06   stopping-criterion for ELM
   LREAL  =      F    real-space projection
   NLSPLINE    = F    spline interpolate recip. space projectors
   LCOMPAT=      F    compatible to vasp.4.4
   GGA_COMPAT  = T    GGA compatible to vasp.4.4-vasp.4.6
   LMAXPAW     = -100 max onsite density
   LMAXMIX     =    2 max onsite mixed and CHGCAR
   VOSKOWN=      0    Vosko Wilk Nusair interpolation
   ROPT   =    0.00000   0.00000   0.00000
 Ionic relaxation
   EDIFFG = 0.1E-05   stopping-criterion for IOM
   NSW    =      0    number of steps for IOM
   NBLOCK =      1;   KBLOCK =      1    inner block; outer block 
   IBRION =     -1    ionic relax: 0-MD 1-quasi-New 2-CG
   NFREE  =      0    steps in history (QN), initial steepest desc. (CG)
   ISIF   =      2    stress and relaxation
   IWAVPR =     10    prediction:  0-non 1-charg 2-wave 3-comb
   ISYM   =      2    0-nonsym 1-usesym 2-fastsym
   LCORR  =      T    Harris-Foulkes like correction to forces

   POTIM  = 0.5000    time-step for ionic-motion
   TEIN   =    0.0    initial temperature
   TEBEG  =    0.0;   TEEND  =   0.0 temperature during run
   SMASS  =  -3.00    Nose mass-parameter (am)
   estimated Nose-frequenzy (Omega)   =  0.10E-29 period in steps = 0.13E+47 mass=  -0.280E-25a.u.
   SCALEE = 1.0000    scale energy and forces
   NPACO  =    256;   APACO  = 16.0  distance and # of slots for P.C.
   PSTRESS=    0.0 pullay stress

  Mass of Ions in am
   POMASS =   1.00 14.00 16.00
  Ionic Valenz
   ZVAL   =   1.00  5.00  6.00
  Atomic Wigner-Seitz radii
   RWIGS  =  -1.00 -1.00 -1.00
  virtual crystal weights 
   VCA    =   1.00  1.00  1.00
   NELECT =      16.0000    total number of electrons
   NUPDOWN=      -1.0000    fix difference up-down

 DOS related values:
   EMIN   =  10.00;   EMAX   =-10.00  energy-range for DOS
   EFERMI =   0.00
   ISMEAR =     0;   SIGMA  =   0.01  broadening in eV -4-tet -1-fermi 0-gaus

 Electronic relaxation 2 (details)
   IALGO  =     38    algorithm
   LDIAG  =      T    sub-space diagonalisation (order eigenvalues)
   LSUBROT=      F    optimize rotation matrix (better conditioning)
   TURBO    =      0    0=normal 1=particle mesh
   IRESTART =      0    0=no restart 2=restart with 2 vectors
   NREBOOT  =      0    no. of reboots
   NMIN     =      0    reboot dimension
   EREF     =   0.00    reference energy to select bands
   IMIX   =      4    mixing-type and parameters
     AMIX     =   0.40;   BMIX     =  1.00
     AMIX_MAG =   1.60;   BMIX_MAG =  1.00
     AMIN     =   0.10
     WC   =   100.;   INIMIX=   1;  MIXPRE=   1;  MAXMIX= -45

 Intra band minimization:
   WEIMIN = 0.0000     energy-eigenvalue tresh-hold
   EBREAK =  0.21E-08  absolut break condition
   DEPER  =   0.30     relativ break condition  

   TIME   =   0.40     timestep for ELM

  volume/ion in A,a.u.               =    6125.00     41333.54
  Fermi-wavevector in a.u.,A,eV,Ry     =   0.117864  0.222730  0.189010  0.013892
  Thomas-Fermi vector in A             =   0.732055
 
 Write flags
   LWAVE        =      T    write WAVECAR
   LDOWNSAMPLE  =      F    k-point downsampling of WAVECAR
   LCHARG       =      T    write CHGCAR
   LVTOT        =      F    write LOCPOT, total local potential
   LVHAR        =      F    write LOCPOT, Hartree potential only
   LELF         =      F    write electronic localiz. function (ELF)
   LORBIT       =      0    0 simple, 1 ext, 2 COOP (PROOUT), +10 PAW based schemes


 Dipole corrections
   LMONO  =      F    monopole corrections only (constant potential shift)
   LDIPOL =      F    correct potential (dipole corrections)
   IDIPOL =      4    1-x, 2-y, 3-z, 4-all directions 
   EPSILON=  1.0000000 bulk dielectric constant

 Exchange correlation treatment:
   GGA     =    --    GGA type
   LEXCH   =     8    internal setting for exchange type
   VOSKOWN=      0    Vosko Wilk Nusair interpolation
   LHFCALC =     F    Hartree Fock is set to
   LHFONE  =     F    Hartree Fock one center treatment
   AEXX    =    0.0000 exact exchange contribution

 Linear response parameters
   LEPSILON=     F    determine dielectric tensor
   LRPA    =     F    only Hartree local field effects (RPA)
   LNABLA  =     F    use nabla operator in PAW spheres
   LVEL    =     F    velocity operator in full k-point grid
   LINTERFAST=   F  fast interpolation
   KINTER  =     0    interpolate to denser k-point grid
   CSHIFT  =0.1000    complex shift for real part using Kramers Kronig
   OMEGAMAX=  -1.0    maximum frequency
   DEG_THRESHOLD= 0.2000000E-02 threshold for treating states as degnerate
   RTIME   =   -0.100 relaxation time in fs
  (WPLASMAI=    0.000 imaginary part of plasma frequency in eV, 0.658/RTIME)
   DFIELD  = 0.0000000 0.0000000 0.0000000 field for delta impulse in time
 
 Orbital magnetization related:
   ORBITALMAG=     F  switch on orbital magnetization
   LCHIMAG   =     F  perturbation theory with respect to B field
   DQ        =  0.001000  dq finite difference perturbation B field
   LLRAUG    =     F  two centre corrections for induced B field



--------------------------------------------------------------------------------------------------------


 Static calculation
 charge density and potential will be updated during run
 non-spin polarized calculation
 Variant of blocked Davidson
 Davidson routine will perform the subspace rotation
 perform sub-space diagonalisation
    after iterative eigenvector-optimisation
 modified Broyden-mixing scheme, WC =      100.0
 initial mixing is a Kerker type mixing with AMIX =  0.4000 and BMIX =      1.0000
 Hartree-type preconditioning will be used
 using additional bands             4
 reciprocal scheme for non local part
 use partial core corrections
 calculate Harris-corrections to forces 
   (improved forces if not selfconsistent)
 use gradient corrections 
 use of overlap-Matrix (Vanderbilt PP)
 Gauss-broadening in eV      SIGMA  =   0.01


--------------------------------------------------------------------------------------------------------


  energy-cutoff  :     1600.00
  volume of cell :    42875.00
      direct lattice vectors                 reciprocal lattice vectors
    35.000000000  0.000000000  0.000000000     0.028571429  0.000000000  0.000000000
     0.000000000 35.000000000  0.000000000     0.000000000  0.028571429  0.000000000
     0.000000000  0.000000000 35.000000000     0.000000000  0.000000000  0.028571429

  length of vectors
    35.000000000 35.000000000 35.000000000     0.028571429  0.028571429  0.028571429


 
 k-points in units of 2pi/SCALE and weight: automatic mesh                          
   0.00000000  0.00000000  0.00000000       1.000
 
 k-points in reciprocal lattice and weights: automatic mesh                          
   0.00000000  0.00000000  0.00000000       1.000
 
 position of ions in fractional coordinates (direct lattice) 
   0.01028850  0.00070268  0.02082149
   0.99949801  0.03888207  0.99668585
   0.97067326  0.00245802  0.99668630
   0.01931293  0.09760689  0.00931505
   0.98378205  0.09952568  0.98460458
   0.99858668  0.00998577  0.99606044
   0.00039844  0.08171833  0.99730377
 
 position of ions in cartesian coordinates  (Angst):
   0.36009743  0.02459378  0.72875202
  34.98243028  1.36087229 34.88400467
  33.97356397  0.08603060 34.88402033
   0.67595257  3.41624124  0.32602674
  34.43237184  3.48339870 34.46116020
  34.95053363  0.34950188 34.86211549
   0.01394528  2.86014156 34.90563195
 


--------------------------------------------------------------------------------------------------------


 k-point   1 :   0.0000 0.0000 0.0000  plane waves: 6231197

 maximum and minimum number of plane-waves per node :    778937   778861

 maximum number of plane-waves:   6231197
 maximum index in each direction: 
   IXMAX=  114   IYMAX=  114   IZMAX=  114
   IXMIN= -114   IYMIN= -114   IZMIN= -114


 parallel 3D FFT for wavefunctions:
    minimum data exchange during FFTs selected (reduces bandwidth)
 parallel 3D FFT for charge:
    minimum data exchange during FFTs selected (reduces bandwidth)


 total amount of memory used by VASP MPI-rank0  3965023. kBytes
=======================================================================

   base      :      30000. kBytes
   nonl-proj :     236786. kBytes
   fftplans  :    1335190. kBytes
   grid      :    2325657. kBytes
   one-center:          3. kBytes
   wavefun   :      37387. kBytes
 
     INWAV:  cpu time    0.0001: real time    0.0000
 Broyden mixing: mesh for mixing (old mesh)
   NGX =229   NGY =229   NGZ =229
  (NGX  =960   NGY  =960   NGZ  =960)
  gives a total of ****** points

 initial charge density was supplied:
 charge density of overlapping atoms calculated
 number of electron      16.0000000 magnetization 
 keeping initial charge density in first step


--------------------------------------------------------------------------------------------------------


 Maximum index for augmentation-charges          1231 (set IRDMAX)


--------------------------------------------------------------------------------------------------------


 First call to EWALD:  gamma=   0.051
 Maximum number of real-space cells 3x 3x 3
 Maximum number of reciprocal cells 3x 3x 3

    FEWALD:  cpu time    0.0008: real time    0.0008


--------------------------------------- Iteration      1(   1)  ---------------------------------------


    POTLOK:  cpu time   24.0796: real time   24.1151
    SETDIJ:  cpu time    0.0638: real time    0.0652
     EDDAV:  cpu time   19.4954: real time   19.5562
       DOS:  cpu time    0.0015: real time    0.0015
    --------------------------------------------
      LOOP:  cpu time   43.6404: real time   43.7379

 eigenvalue-minimisations  :    40
 total energy-change (2. order) : 0.1249754E+03  (-0.2996820E+03)
 number of electron      16.0000000 magnetization 
 augmentation part       16.0000000 magnetization 

 Free energy of the ion-electron system (eV)
  ---------------------------------------------------
  alpha Z        PSCENC =         0.02122976
  Ewald energy   TEWEN  =       642.01420245
  -Hartree energ DENC   =     -1205.15771988
  -exchange      EXHF   =         0.00000000
  -V(xc)+E(xc)   XCENC  =        59.35334996
  PAW double counting   =       562.15234568     -565.18638936
  entropy T*S    EENTRO =        -0.00000000
  eigenvalues    EBANDS =      -127.59003455
  atomic energy  EATOM  =       759.36846174
  Solvation  Ediel_sol  =         0.00000000
  ---------------------------------------------------
  free energy    TOTEN  =       124.97544579 eV

  energy without entropy =      124.97544579  energy(sigma->0) =      124.97544579


--------------------------------------------------------------------------------------------------------




--------------------------------------- Iteration      1(   2)  ---------------------------------------


     EDDAV:  cpu time   16.4748: real time   16.5005
       DOS:  cpu time    0.0017: real time    0.0017
    --------------------------------------------
      LOOP:  cpu time   16.4764: real time   16.5022

 eigenvalue-minimisations  :    32
 total energy-change (2. order) :-0.8325479E+02  (-0.8299149E+02)
 number of electron      16.0000000 magnetization 
 augmentation part       16.0000000 magnetization 

 Free energy of the ion-electron system (eV)
  ---------------------------------------------------
  alpha Z        PSCENC =         0.02122976
  Ewald energy   TEWEN  =       642.01420245
  -Hartree energ DENC   =     -1205.15771988
  -exchange      EXHF   =         0.00000000
  -V(xc)+E(xc)   XCENC  =        59.35334996
  PAW double counting   =       562.15234568     -565.18638936
  entropy T*S    EENTRO =        -0.00000000
  eigenvalues    EBANDS =      -210.84482642
  atomic energy  EATOM  =       759.36846174
  Solvation  Ediel_sol  =         0.00000000
  ---------------------------------------------------
  free energy    TOTEN  =        41.72065393 eV

  energy without entropy =       41.72065393  energy(sigma->0) =       41.72065393


--------------------------------------------------------------------------------------------------------




--------------------------------------- Iteration      1(   3)  ---------------------------------------


     EDDAV:  cpu time   19.4742: real time   19.5070
       DOS:  cpu time    0.0023: real time    0.0023
    --------------------------------------------
      LOOP:  cpu time   19.4765: real time   19.5093

 eigenvalue-minimisations  :    40
 total energy-change (2. order) :-0.5937948E+02  (-0.5646113E+02)
 number of electron      16.0000000 magnetization 
 augmentation part       16.0000000 magnetization 

 Free energy of the ion-electron system (eV)
  ---------------------------------------------------
  alpha Z        PSCENC =         0.02122976
  Ewald energy   TEWEN  =       642.01420245
  -Hartree energ DENC   =     -1205.15771988
  -exchange      EXHF   =         0.00000000
  -V(xc)+E(xc)   XCENC  =        59.35334996
  PAW double counting   =       562.15234568     -565.18638936
  entropy T*S    EENTRO =        -0.00000000
  eigenvalues    EBANDS =      -270.22430821
  atomic energy  EATOM  =       759.36846174
  Solvation  Ediel_sol  =         0.00000000
  ---------------------------------------------------
  free energy    TOTEN  =       -17.65882787 eV

  energy without entropy =      -17.65882787  energy(sigma->0) =      -17.65882787


--------------------------------------------------------------------------------------------------------




--------------------------------------- Iteration      1(   4)  ---------------------------------------


     EDDAV:  cpu time   14.9042: real time   14.9278
       DOS:  cpu time    0.0025: real time    0.0025
    --------------------------------------------
      LOOP:  cpu time   14.9067: real time   14.9303

 eigenvalue-minimisations  :    28
 total energy-change (2. order) :-0.1971126E+02  (-0.1967607E+02)
 number of electron      16.0000000 magnetization 
 augmentation part       16.0000000 magnetization 

 Free energy of the ion-electron system (eV)
  ---------------------------------------------------
  alpha Z        PSCENC =         0.02122976
  Ewald energy   TEWEN  =       642.01420245
  -Hartree energ DENC   =     -1205.15771988
  -exchange      EXHF   =         0.00000000
  -V(xc)+E(xc)   XCENC  =        59.35334996
  PAW double counting   =       562.15234568     -565.18638936
  entropy T*S    EENTRO =        -0.00000000
  eigenvalues    EBANDS =      -289.93556807
  atomic energy  EATOM  =       759.36846174
  Solvation  Ediel_sol  =         0.00000000
  ---------------------------------------------------
  free energy    TOTEN  =       -37.37008773 eV

  energy without entropy =      -37.37008773  energy(sigma->0) =      -37.37008773


--------------------------------------------------------------------------------------------------------




--------------------------------------- Iteration      1(   5)  ---------------------------------------


     EDDAV:  cpu time   16.4783: real time   16.5048
       DOS:  cpu time    0.0010: real time    0.0010
    CHARGE:  cpu time    3.5415: real time    3.5465
    MIXING:  cpu time    0.5191: real time    0.5199
    --------------------------------------------
      LOOP:  cpu time   20.5400: real time   20.5723

 eigenvalue-minimisations  :    32
 total energy-change (2. order) :-0.1548026E+01  (-0.1547783E+01)
 number of electron      16.0000000 magnetization 
 augmentation part        1.2480722 magnetization 

 Broyden mixing:
  rms(total) = 0.12088E+01    rms(broyden)= 0.12088E+01
  rms(prec ) = 0.12516E+01
  weight for this iteration     100.00

 Free energy of the ion-electron system (eV)
  ---------------------------------------------------
  alpha Z        PSCENC =         0.02122976
  Ewald energy   TEWEN  =       642.01420245
  -Hartree energ DENC   =     -1205.15771988
  -exchange      EXHF   =         0.00000000
  -V(xc)+E(xc)   XCENC  =        59.35334996
  PAW double counting   =       562.15234568     -565.18638936
  entropy T*S    EENTRO =        -0.00000000
  eigenvalues    EBANDS =      -291.48359359
  atomic energy  EATOM  =       759.36846174
  Solvation  Ediel_sol  =         0.00000000
  ---------------------------------------------------
  free energy    TOTEN  =       -38.91811324 eV

  energy without entropy =      -38.91811324  energy(sigma->0) =      -38.91811324


--------------------------------------------------------------------------------------------------------




--------------------------------------- Iteration      1(   6)  ---------------------------------------


    POTLOK:  cpu time   23.9044: real time   23.9390
    SETDIJ:  cpu time    0.0706: real time    0.0706
     EDDAV:  cpu time   14.9853: real time   15.0090
       DOS:  cpu time    0.0002: real time    0.0002
    CHARGE:  cpu time    3.4192: real time    3.4243
    MIXING:  cpu time    0.5023: real time    0.5123
    --------------------------------------------
      LOOP:  cpu time   42.8818: real time   42.9553

 eigenvalue-minimisations  :    28
 total energy-change (2. order) : 0.4846849E+01  (-0.1654950E+01)
 number of electron      16.0000000 magnetization 
 augmentation part        1.0482172 magnetization 

 Broyden mixing:
  rms(total) = 0.50422E+00    rms(broyden)= 0.50422E+00
  rms(prec ) = 0.51600E+00
  weight for this iteration     100.00

 eigenvalues of (default mixing * dielectric matrix)
  average eigenvalue GAMMA=   1.0343
  1.0343

 Free energy of the ion-electron system (eV)
  ---------------------------------------------------
  alpha Z        PSCENC =         0.02122976
  Ewald energy   TEWEN  =       642.01420245
  -Hartree energ DENC   =     -1253.05122759
  -exchange      EXHF   =         0.00000000
  -V(xc)+E(xc)   XCENC  =        61.95904338
  PAW double counting   =       789.59378670     -793.24762505
  entropy T*S    EENTRO =        -0.00000000
  eigenvalues    EBANDS =      -240.72913539
  atomic energy  EATOM  =       759.36846174
  Solvation  Ediel_sol  =         0.00000000
  ---------------------------------------------------
  free energy    TOTEN  =       -34.07126401 eV

  energy without entropy =      -34.07126401  energy(sigma->0) =      -34.07126401


--------------------------------------------------------------------------------------------------------




--------------------------------------- Iteration      1(   7)  ---------------------------------------


    POTLOK:  cpu time   23.7592: real time   23.7936
    SETDIJ:  cpu time    0.0521: real time    0.0521
     EDDAV:  cpu time   18.0808: real time   18.1091
       DOS:  cpu time    0.0055: real time    0.0055
    CHARGE:  cpu time    3.4600: real time    3.4649
    MIXING:  cpu time    0.4978: real time    0.4986
    --------------------------------------------
      LOOP:  cpu time   45.8554: real time   45.9239

 eigenvalue-minimisations  :    36
 total energy-change (2. order) : 0.3806356E+00  (-0.1275497E+00)
 number of electron      16.0000000 magnetization 
 augmentation part        1.0144857 magnetization 

 Broyden mixing:
  rms(total) = 0.35166E+00    rms(broyden)= 0.35166E+00
  rms(prec ) = 0.35775E+00
  weight for this iteration     100.00

 eigenvalues of (default mixing * dielectric matrix)
  average eigenvalue GAMMA=   1.8213
  1.2231  2.4196

 Free energy of the ion-electron system (eV)
  ---------------------------------------------------
  alpha Z        PSCENC =         0.02122976
  Ewald energy   TEWEN  =       642.01420245
  -Hartree energ DENC   =     -1266.58662109
  -exchange      EXHF   =         0.00000000
  -V(xc)+E(xc)   XCENC  =        62.69672663
  PAW double counting   =       938.87628789     -942.59001070
  entropy T*S    EENTRO =        -0.00000000
  eigenvalues    EBANDS =      -227.49090506
  atomic energy  EATOM  =       759.36846174
  Solvation  Ediel_sol  =         0.00000000
  ---------------------------------------------------
  free energy    TOTEN  =       -33.69062839 eV

  energy without entropy =      -33.69062839  energy(sigma->0) =      -33.69062839


--------------------------------------------------------------------------------------------------------




--------------------------------------- Iteration      1(   8)  ---------------------------------------


    POTLOK:  cpu time   23.7943: real time   23.8285
    SETDIJ:  cpu time    0.0596: real time    0.0596
     EDDAV:  cpu time   15.0165: real time   15.0402
       DOS:  cpu time    0.0021: real time    0.0021
    CHARGE:  cpu time    3.4113: real time    3.4162
    MIXING:  cpu time    0.5863: real time    0.5871
    --------------------------------------------
      LOOP:  cpu time   42.8700: real time   42.9337

 eigenvalue-minimisations  :    28
 total energy-change (2. order) : 0.2577406E+00  (-0.3815805E-01)
 number of electron      16.0000000 magnetization 
 augmentation part        1.0275724 magnetization 

 Broyden mixing:
  rms(total) = 0.89220E-01    rms(broyden)= 0.89220E-01
  rms(prec ) = 0.94173E-01
  weight for this iteration     100.00

 eigenvalues of (default mixing * dielectric matrix)
  average eigenvalue GAMMA=   1.4511
  2.3717  0.9908  0.9908

 Free energy of the ion-electron system (eV)
  ---------------------------------------------------
  alpha Z        PSCENC =         0.02122976
  Ewald energy   TEWEN  =       642.01420245
  -Hartree energ DENC   =     -1276.69628109
  -exchange      EXHF   =         0.00000000
  -V(xc)+E(xc)   XCENC  =        63.30141517
  PAW double counting   =      1167.93089467    -1171.60348655
  entropy T*S    EENTRO =        -0.00000000
  eigenvalues    EBANDS =      -217.76932395
  atomic energy  EATOM  =       759.36846174
  Solvation  Ediel_sol  =         0.00000000
  ---------------------------------------------------
  free energy    TOTEN  =       -33.43288781 eV

  energy without entropy =      -33.43288781  energy(sigma->0) =      -33.43288781


--------------------------------------------------------------------------------------------------------




--------------------------------------- Iteration      1(   9)  ---------------------------------------


    POTLOK:  cpu time   23.7912: real time   23.8259
    SETDIJ:  cpu time    0.0599: real time    0.0599
     EDDAV:  cpu time   16.4371: real time   16.4631
       DOS:  cpu time    0.0002: real time    0.0002
    CHARGE:  cpu time    3.4453: real time    3.4501
    MIXING:  cpu time    0.5442: real time    0.5451
    --------------------------------------------
      LOOP:  cpu time   44.2780: real time   44.3444

 eigenvalue-minimisations  :    32
 total energy-change (2. order) : 0.2365283E-01  (-0.8869743E-02)
 number of electron      16.0000000 magnetization 
 augmentation part        1.0148189 magnetization 

 Broyden mixing:
  rms(total) = 0.37099E-01    rms(broyden)= 0.37099E-01
  rms(prec ) = 0.42211E-01
  weight for this iteration     100.00

 eigenvalues of (default mixing * dielectric matrix)
  average eigenvalue GAMMA=   1.3140
  2.2894  1.1955  0.8856  0.8856

 Free energy of the ion-electron system (eV)
  ---------------------------------------------------
  alpha Z        PSCENC =         0.02122976
  Ewald energy   TEWEN  =       642.01420245
  -Hartree energ DENC   =     -1279.82189558
  -exchange      EXHF   =         0.00000000
  -V(xc)+E(xc)   XCENC  =        63.44269031
  PAW double counting   =      1162.56281108    -1166.26622645
  entropy T*S    EENTRO =        -0.00000000
  eigenvalues    EBANDS =      -214.73050829
  atomic energy  EATOM  =       759.36846174
  Solvation  Ediel_sol  =         0.00000000
  ---------------------------------------------------
  free energy    TOTEN  =       -33.40923498 eV

  energy without entropy =      -33.40923498  energy(sigma->0) =      -33.40923498


--------------------------------------------------------------------------------------------------------




--------------------------------------- Iteration      1(  10)  ---------------------------------------


    POTLOK:  cpu time   23.8737: real time   23.9080
    SETDIJ:  cpu time    0.0626: real time    0.0626
     EDDAV:  cpu time   18.0251: real time   18.0535
       DOS:  cpu time    0.0069: real time    0.0069
    CHARGE:  cpu time    3.4867: real time    3.4918
    MIXING:  cpu time    0.6240: real time    0.6249
    --------------------------------------------
      LOOP:  cpu time   46.0790: real time   46.1477

 eigenvalue-minimisations  :    36
 total energy-change (2. order) : 0.3572970E-02  (-0.7486596E-03)
 number of electron      16.0000000 magnetization 
 augmentation part        1.0124516 magnetization 

 Broyden mixing:
  rms(total) = 0.17221E-01    rms(broyden)= 0.17221E-01
  rms(prec ) = 0.22962E-01
  weight for this iteration     100.00

 eigenvalues of (default mixing * dielectric matrix)
  average eigenvalue GAMMA=   1.6723
  2.9024  2.5553  1.0238  1.0238  0.8561

 Free energy of the ion-electron system (eV)
  ---------------------------------------------------
  alpha Z        PSCENC =         0.02122976
  Ewald energy   TEWEN  =       642.01420245
  -Hartree energ DENC   =     -1281.19584557
  -exchange      EXHF   =         0.00000000
  -V(xc)+E(xc)   XCENC  =        63.46340595
  PAW double counting   =      1142.76895447    -1146.46577933
  entropy T*S    EENTRO =        -0.00000000
  eigenvalues    EBANDS =      -213.38029148
  atomic energy  EATOM  =       759.36846174
  Solvation  Ediel_sol  =         0.00000000
  ---------------------------------------------------
  free energy    TOTEN  =       -33.40566201 eV

  energy without entropy =      -33.40566201  energy(sigma->0) =      -33.40566201


--------------------------------------------------------------------------------------------------------




--------------------------------------- Iteration      1(  11)  ---------------------------------------


    POTLOK:  cpu time   23.8732: real time   23.9077
    SETDIJ:  cpu time    0.0642: real time    0.0642
     EDDAV:  cpu time   15.0346: real time   15.0582
       DOS:  cpu time    0.0027: real time    0.0027
    CHARGE:  cpu time    3.4310: real time    3.4390
    MIXING:  cpu time    0.5957: real time    0.5967
    --------------------------------------------
      LOOP:  cpu time   43.0015: real time   43.0686

 eigenvalue-minimisations  :    28
 total energy-change (2. order) : 0.5374028E-02  (-0.9883899E-03)
 number of electron      16.0000000 magnetization 
 augmentation part        1.0105145 magnetization 

 Broyden mixing:
  rms(total) = 0.12430E-01    rms(broyden)= 0.12430E-01
  rms(prec ) = 0.14916E-01
  weight for this iteration     100.00

 eigenvalues of (default mixing * dielectric matrix)
  average eigenvalue GAMMA=   1.7175
  3.2847  2.3985  1.5730  0.9317  1.0586  1.0586

 Free energy of the ion-electron system (eV)
  ---------------------------------------------------
  alpha Z        PSCENC =         0.02122976
  Ewald energy   TEWEN  =       642.01420245
  -Hartree energ DENC   =     -1283.83270689
  -exchange      EXHF   =         0.00000000
  -V(xc)+E(xc)   XCENC  =        63.53229251
  PAW double counting   =      1132.67889096    -1136.36609782
  entropy T*S    EENTRO =        -0.00000000
  eigenvalues    EBANDS =      -210.81656068
  atomic energy  EATOM  =       759.36846174
  Solvation  Ediel_sol  =         0.00000000
  ---------------------------------------------------
  free energy    TOTEN  =       -33.40028798 eV

  energy without entropy =      -33.40028798  energy(sigma->0) =      -33.40028798


--------------------------------------------------------------------------------------------------------




--------------------------------------- Iteration      1(  12)  ---------------------------------------


    POTLOK:  cpu time   23.9216: real time   23.9561
    SETDIJ:  cpu time    0.0568: real time    0.0568
     EDDAV:  cpu time   19.5553: real time   19.5867
       DOS:  cpu time    0.0031: real time    0.0031
    CHARGE:  cpu time    3.4856: real time    3.4906
    MIXING:  cpu time    0.6114: real time    0.6124
    --------------------------------------------
      LOOP:  cpu time   47.6338: real time   47.7057

 eigenvalue-minimisations  :    40
 total energy-change (2. order) :-0.8069518E-02  (-0.6798205E-03)
 number of electron      16.0000000 magnetization 
 augmentation part        1.0088717 magnetization 

 Broyden mixing:
  rms(total) = 0.10597E-01    rms(broyden)= 0.10597E-01
  rms(prec ) = 0.12023E-01
  weight for this iteration     100.00

 eigenvalues of (default mixing * dielectric matrix)
  average eigenvalue GAMMA=   1.7408
  3.9338  2.5537  1.8116  1.1179  1.1179  0.8254  0.8254

 Free energy of the ion-electron system (eV)
  ---------------------------------------------------
  alpha Z        PSCENC =         0.02122976
  Ewald energy   TEWEN  =       642.01420245
  -Hartree energ DENC   =     -1285.03074522
  -exchange      EXHF   =         0.00000000
  -V(xc)+E(xc)   XCENC  =        63.55623645
  PAW double counting   =      1137.67106601    -1141.35893502
  entropy T*S    EENTRO =        -0.00000000
  eigenvalues    EBANDS =      -209.64987366
  atomic energy  EATOM  =       759.36846174
  Solvation  Ediel_sol  =         0.00000000
  ---------------------------------------------------
  free energy    TOTEN  =       -33.40835750 eV

  energy without entropy =      -33.40835750  energy(sigma->0) =      -33.40835750


--------------------------------------------------------------------------------------------------------




--------------------------------------- Iteration      1(  13)  ---------------------------------------


    POTLOK:  cpu time   24.0292: real time   24.0640
    SETDIJ:  cpu time    0.0589: real time    0.0590
     EDDAV:  cpu time   13.5074: real time   13.5289
       DOS:  cpu time    0.0010: real time    0.0010
    CHARGE:  cpu time    3.3904: real time    3.3951
    MIXING:  cpu time    0.7235: real time    0.7247
    --------------------------------------------
      LOOP:  cpu time   41.7105: real time   41.7727

 eigenvalue-minimisations  :    24
 total energy-change (2. order) :-0.5580459E-02  (-0.1308422E-03)
 number of electron      16.0000000 magnetization 
 augmentation part        1.0094602 magnetization 

 Broyden mixing:
  rms(total) = 0.51700E-02    rms(broyden)= 0.51700E-02
  rms(prec ) = 0.63631E-02
  weight for this iteration     100.00

 eigenvalues of (default mixing * dielectric matrix)
  average eigenvalue GAMMA=   1.8444
  4.7562  2.5473  2.5473  1.0651  1.0651  0.8943  0.9401  0.9401

 Free energy of the ion-electron system (eV)
  ---------------------------------------------------
  alpha Z        PSCENC =         0.02122976
  Ewald energy   TEWEN  =       642.01420245
  -Hartree energ DENC   =     -1285.30058100
  -exchange      EXHF   =         0.00000000
  -V(xc)+E(xc)   XCENC  =        63.54473822
  PAW double counting   =      1137.44963687    -1141.13498337
  entropy T*S    EENTRO =        -0.00000000
  eigenvalues    EBANDS =      -209.37664261
  atomic energy  EATOM  =       759.36846174
  Solvation  Ediel_sol  =         0.00000000
  ---------------------------------------------------
  free energy    TOTEN  =       -33.41393796 eV

  energy without entropy =      -33.41393796  energy(sigma->0) =      -33.41393796


--------------------------------------------------------------------------------------------------------




--------------------------------------- Iteration      1(  14)  ---------------------------------------


    POTLOK:  cpu time   23.8837: real time   23.9184
    SETDIJ:  cpu time    0.1057: real time    0.1058
     EDDAV:  cpu time   18.0778: real time   18.1061
       DOS:  cpu time    0.0028: real time    0.0028
    CHARGE:  cpu time    3.4518: real time    3.4567
    MIXING:  cpu time    0.6705: real time    0.6716
    --------------------------------------------
      LOOP:  cpu time   46.1923: real time   46.2614

 eigenvalue-minimisations  :    36
 total energy-change (2. order) :-0.5667676E-02  (-0.1053438E-03)
 number of electron      16.0000000 magnetization 
 augmentation part        1.0097818 magnetization 

 Broyden mixing:
  rms(total) = 0.33399E-02    rms(broyden)= 0.33399E-02
  rms(prec ) = 0.40909E-02
  weight for this iteration     100.00

 eigenvalues of (default mixing * dielectric matrix)
  average eigenvalue GAMMA=   1.9845
  5.7805  3.1600  2.4334  1.3547  1.3547  0.9109  0.9109  0.9775  0.9775

 Free energy of the ion-electron system (eV)
  ---------------------------------------------------
  alpha Z        PSCENC =         0.02122976
  Ewald energy   TEWEN  =       642.01420245
  -Hartree energ DENC   =     -1285.50796858
  -exchange      EXHF   =         0.00000000
  -V(xc)+E(xc)   XCENC  =        63.53791955
  PAW double counting   =      1140.30775439    -1143.99250198
  entropy T*S    EENTRO =        -0.00000000
  eigenvalues    EBANDS =      -209.16870295
  atomic energy  EATOM  =       759.36846174
  Solvation  Ediel_sol  =         0.00000000
  ---------------------------------------------------
  free energy    TOTEN  =       -33.41960563 eV

  energy without entropy =      -33.41960563  energy(sigma->0) =      -33.41960563


--------------------------------------------------------------------------------------------------------




--------------------------------------- Iteration      1(  15)  ---------------------------------------


    POTLOK:  cpu time   23.9615: real time   23.9961
    SETDIJ:  cpu time    0.0564: real time    0.0564
     EDDAV:  cpu time   13.5013: real time   13.5227
       DOS:  cpu time    0.0013: real time    0.0013
    CHARGE:  cpu time    3.4685: real time    3.4739
    MIXING:  cpu time    0.6878: real time    0.6889
    --------------------------------------------
      LOOP:  cpu time   41.6769: real time   41.7394

 eigenvalue-minimisations  :    24
 total energy-change (2. order) :-0.4929772E-02  (-0.7029807E-04)
 number of electron      16.0000000 magnetization 
 augmentation part        1.0100106 magnetization 

 Broyden mixing:
  rms(total) = 0.26502E-02    rms(broyden)= 0.26502E-02
  rms(prec ) = 0.29433E-02
  weight for this iteration     100.00

 eigenvalues of (default mixing * dielectric matrix)
  average eigenvalue GAMMA=   2.0595
  6.2483  3.7498  2.5139  2.0420  1.1040  1.1040  1.0637  0.8773  0.9460  0.9460

 Free energy of the ion-electron system (eV)
  ---------------------------------------------------
  alpha Z        PSCENC =         0.02122976
  Ewald energy   TEWEN  =       642.01420245
  -Hartree energ DENC   =     -1285.54959964
  -exchange      EXHF   =         0.00000000
  -V(xc)+E(xc)   XCENC  =        63.52628558
  PAW double counting   =      1139.53957711    -1143.22359748
  entropy T*S    EENTRO =        -0.00000000
  eigenvalues    EBANDS =      -209.12109492
  atomic energy  EATOM  =       759.36846174
  Solvation  Ediel_sol  =         0.00000000
  ---------------------------------------------------
  free energy    TOTEN  =       -33.42453541 eV

  energy without entropy =      -33.42453541  energy(sigma->0) =      -33.42453541


--------------------------------------------------------------------------------------------------------




--------------------------------------- Iteration      1(  16)  ---------------------------------------


    POTLOK:  cpu time   23.9115: real time   23.9461
    SETDIJ:  cpu time    0.0618: real time    0.0619
     EDDAV:  cpu time   19.5400: real time   19.5707
       DOS:  cpu time    0.0056: real time    0.0056
    CHARGE:  cpu time    3.4720: real time    3.4768
    MIXING:  cpu time    0.7460: real time    0.7473
    --------------------------------------------
      LOOP:  cpu time   47.7369: real time   47.8083

 eigenvalue-minimisations  :    40
 total energy-change (2. order) :-0.2539489E-02  (-0.3742223E-04)
 number of electron      16.0000000 magnetization 
 augmentation part        1.0097571 magnetization 

 Broyden mixing:
  rms(total) = 0.10770E-02    rms(broyden)= 0.10770E-02
  rms(prec ) = 0.12842E-02
  weight for this iteration     100.00

 eigenvalues of (default mixing * dielectric matrix)
  average eigenvalue GAMMA=   2.1080
  7.1532  3.9587  2.4005  2.4005  1.2634  1.2634  1.0505  1.0505  0.9377  0.9377
  0.7715

 Free energy of the ion-electron system (eV)
  ---------------------------------------------------
  alpha Z        PSCENC =         0.02122976
  Ewald energy   TEWEN  =       642.01420245
  -Hartree energ DENC   =     -1285.58863874
  -exchange      EXHF   =         0.00000000
  -V(xc)+E(xc)   XCENC  =        63.52312583
  PAW double counting   =      1138.32728968    -1142.01155953
  entropy T*S    EENTRO =        -0.00000000
  eigenvalues    EBANDS =      -209.08118607
  atomic energy  EATOM  =       759.36846174
  Solvation  Ediel_sol  =         0.00000000
  ---------------------------------------------------
  free energy    TOTEN  =       -33.42707489 eV

  energy without entropy =      -33.42707489  energy(sigma->0) =      -33.42707489


--------------------------------------------------------------------------------------------------------




--------------------------------------- Iteration      1(  17)  ---------------------------------------


    POTLOK:  cpu time   23.8880: real time   23.9228
    SETDIJ:  cpu time    0.0652: real time    0.0652
     EDDAV:  cpu time   16.5694: real time   16.5956
       DOS:  cpu time    0.0011: real time    0.0011
    CHARGE:  cpu time    3.4842: real time    3.4915
    MIXING:  cpu time    0.7829: real time    0.7841
    --------------------------------------------
      LOOP:  cpu time   44.7908: real time   44.8603

 eigenvalue-minimisations  :    32
 total energy-change (2. order) :-0.1018809E-02  (-0.5177887E-05)
 number of electron      16.0000000 magnetization 
 augmentation part        1.0097225 magnetization 

 Broyden mixing:
  rms(total) = 0.63655E-03    rms(broyden)= 0.63655E-03
  rms(prec ) = 0.76999E-03
  weight for this iteration     100.00

 eigenvalues of (default mixing * dielectric matrix)
  average eigenvalue GAMMA=   2.2145
  7.8799  4.5279  2.9237  2.4562  1.7569  1.2690  0.9463  0.9463  1.0417  1.0417
  0.8921  0.8921

 Free energy of the ion-electron system (eV)
  ---------------------------------------------------
  alpha Z        PSCENC =         0.02122976
  Ewald energy   TEWEN  =       642.01420245
  -Hartree energ DENC   =     -1285.60736239
  -exchange      EXHF   =         0.00000000
  -V(xc)+E(xc)   XCENC  =        63.52115353
  PAW double counting   =      1137.66354997    -1141.34757349
  entropy T*S    EENTRO =        -0.00000000
  eigenvalues    EBANDS =      -209.06175526
  atomic energy  EATOM  =       759.36846174
  Solvation  Ediel_sol  =         0.00000000
  ---------------------------------------------------
  free energy    TOTEN  =       -33.42809370 eV

  energy without entropy =      -33.42809370  energy(sigma->0) =      -33.42809370


--------------------------------------------------------------------------------------------------------




--------------------------------------- Iteration      1(  18)  ---------------------------------------


    POTLOK:  cpu time   23.9564: real time   23.9909
    SETDIJ:  cpu time    0.0627: real time    0.0628
     EDDAV:  cpu time   19.4753: real time   19.5076
       DOS:  cpu time    0.0025: real time    0.0025
    CHARGE:  cpu time    3.4967: real time    3.5018
    MIXING:  cpu time    0.8216: real time    0.8229
    --------------------------------------------
      LOOP:  cpu time   47.8152: real time   47.8884

 eigenvalue-minimisations  :    40
 total energy-change (2. order) :-0.7157885E-03  (-0.3692506E-05)
 number of electron      16.0000000 magnetization 
 augmentation part        1.0096600 magnetization 

 Broyden mixing:
  rms(total) = 0.59219E-03    rms(broyden)= 0.59219E-03
  rms(prec ) = 0.63621E-03
  weight for this iteration     100.00

 eigenvalues of (default mixing * dielectric matrix)
  average eigenvalue GAMMA=   2.2054
  8.2076  4.5819  2.8961  2.5224  1.7681  1.7681  1.1089  1.1089  1.0927  0.9384
  0.9384  0.8692  0.8692

 Free energy of the ion-electron system (eV)
  ---------------------------------------------------
  alpha Z        PSCENC =         0.02122976
  Ewald energy   TEWEN  =       642.01420245
  -Hartree energ DENC   =     -1285.62516589
  -exchange      EXHF   =         0.00000000
  -V(xc)+E(xc)   XCENC  =        63.52093342
  PAW double counting   =      1137.57564595    -1141.25967796
  entropy T*S    EENTRO =        -0.00000000
  eigenvalues    EBANDS =      -209.04443896
  atomic energy  EATOM  =       759.36846174
  Solvation  Ediel_sol  =         0.00000000
  ---------------------------------------------------
  free energy    TOTEN  =       -33.42880949 eV

  energy without entropy =      -33.42880949  energy(sigma->0) =      -33.42880949


--------------------------------------------------------------------------------------------------------




--------------------------------------- Iteration      1(  19)  ---------------------------------------


    POTLOK:  cpu time   23.8621: real time   23.8976
    SETDIJ:  cpu time    0.0675: real time    0.0675
     EDDAV:  cpu time   19.5825: real time   19.6134
       DOS:  cpu time    0.0039: real time    0.0039
    CHARGE:  cpu time    3.4841: real time    3.4891
    MIXING:  cpu time    0.8509: real time    0.8524
    --------------------------------------------
      LOOP:  cpu time   47.8509: real time   47.9239

 eigenvalue-minimisations  :    40
 total energy-change (2. order) :-0.2874628E-03  (-0.2841218E-06)
 number of electron      16.0000000 magnetization 
 augmentation part        1.0096742 magnetization 

 Broyden mixing:
  rms(total) = 0.22328E-03    rms(broyden)= 0.22328E-03
  rms(prec ) = 0.26483E-03
  weight for this iteration     100.00

 eigenvalues of (default mixing * dielectric matrix)
  average eigenvalue GAMMA=   2.3453
  8.7945  5.3932  3.6633  2.6950  2.5033  1.6436  1.3918  0.9580  0.9580  1.0379
  1.0379  0.9529  0.9529  0.8517

 Free energy of the ion-electron system (eV)
  ---------------------------------------------------
  alpha Z        PSCENC =         0.02122976
  Ewald energy   TEWEN  =       642.01420245
  -Hartree energ DENC   =     -1285.62153067
  -exchange      EXHF   =         0.00000000
  -V(xc)+E(xc)   XCENC  =        63.52040357
  PAW double counting   =      1137.86094912    -1141.54499861
  entropy T*S    EENTRO =        -0.00000000
  eigenvalues    EBANDS =      -209.04781430
  atomic energy  EATOM  =       759.36846174
  Solvation  Ediel_sol  =         0.00000000
  ---------------------------------------------------
  free energy    TOTEN  =       -33.42909695 eV

  energy without entropy =      -33.42909695  energy(sigma->0) =      -33.42909695


--------------------------------------------------------------------------------------------------------




--------------------------------------- Iteration      1(  20)  ---------------------------------------


    POTLOK:  cpu time   23.8530: real time   23.8912
    SETDIJ:  cpu time    0.0613: real time    0.0614
     EDDAV:  cpu time   13.5060: real time   13.5271
       DOS:  cpu time    0.0014: real time    0.0014
    CHARGE:  cpu time    3.5036: real time    3.5087
    MIXING:  cpu time    0.8654: real time    0.8669
    --------------------------------------------
      LOOP:  cpu time   41.7907: real time   41.8567

 eigenvalue-minimisations  :    24
 total energy-change (2. order) :-0.2164404E-03  (-0.5075485E-06)
 number of electron      16.0000000 magnetization 
 augmentation part        1.0097018 magnetization 

 Broyden mixing:
  rms(total) = 0.18728E-03    rms(broyden)= 0.18728E-03
  rms(prec ) = 0.19858E-03
  weight for this iteration     100.00

 eigenvalues of (default mixing * dielectric matrix)
  average eigenvalue GAMMA=   2.3580
  8.9770  5.7434  3.8311  2.6698  2.5130  1.8469  1.8469  1.1341  1.1341  0.9386
  0.9386  1.0175  1.0175  0.8805  0.8805

 Free energy of the ion-electron system (eV)
  ---------------------------------------------------
  alpha Z        PSCENC =         0.02122976
  Ewald energy   TEWEN  =       642.01420245
  -Hartree energ DENC   =     -1285.61810212
  -exchange      EXHF   =         0.00000000
  -V(xc)+E(xc)   XCENC  =        63.51999581
  PAW double counting   =      1138.06578324    -1141.74977883
  entropy T*S    EENTRO =        -0.00000000
  eigenvalues    EBANDS =      -209.05110543
  atomic energy  EATOM  =       759.36846174
  Solvation  Ediel_sol  =         0.00000000
  ---------------------------------------------------
  free energy    TOTEN  =       -33.42931339 eV

  energy without entropy =      -33.42931339  energy(sigma->0) =      -33.42931339


--------------------------------------------------------------------------------------------------------




--------------------------------------- Iteration      1(  21)  ---------------------------------------


    POTLOK:  cpu time   23.8019: real time   23.8363
    SETDIJ:  cpu time    0.0580: real time    0.0580
     EDDAV:  cpu time   19.5574: real time   19.5882
       DOS:  cpu time    0.0026: real time    0.0026
    CHARGE:  cpu time    3.5195: real time    3.5244
    MIXING:  cpu time    0.9373: real time    0.9389
    --------------------------------------------
      LOOP:  cpu time   47.8768: real time   47.9485

 eigenvalue-minimisations  :    40
 total energy-change (2. order) :-0.6531099E-04  (-0.5281643E-07)
 number of electron      16.0000000 magnetization 
 augmentation part        1.0096964 magnetization 

 Broyden mixing:
  rms(total) = 0.53638E-04    rms(broyden)= 0.53638E-04
  rms(prec ) = 0.65222E-04
  weight for this iteration     100.00

 eigenvalues of (default mixing * dielectric matrix)
  average eigenvalue GAMMA=   2.3802
  9.0826  6.1443  4.0351  2.9721  2.5928  2.3635  1.8237  1.2540  1.0952  1.0952
  0.9436  0.9436  0.9844  0.9844  0.8842  0.8842

 Free energy of the ion-electron system (eV)
  ---------------------------------------------------
  alpha Z        PSCENC =         0.02122976
  Ewald energy   TEWEN  =       642.01420245
  -Hartree energ DENC   =     -1285.61729254
  -exchange      EXHF   =         0.00000000
  -V(xc)+E(xc)   XCENC  =        63.51986663
  PAW double counting   =      1137.97881826    -1141.66283086
  entropy T*S    EENTRO =        -0.00000000
  eigenvalues    EBANDS =      -209.05183414
  atomic energy  EATOM  =       759.36846174
  Solvation  Ediel_sol  =         0.00000000
  ---------------------------------------------------
  free energy    TOTEN  =       -33.42937871 eV

  energy without entropy =      -33.42937871  energy(sigma->0) =      -33.42937871


--------------------------------------------------------------------------------------------------------




--------------------------------------- Iteration      1(  22)  ---------------------------------------


    POTLOK:  cpu time   23.7608: real time   23.7954
    SETDIJ:  cpu time    0.0578: real time    0.0578
     EDDAV:  cpu time   16.5202: real time   16.5462
       DOS:  cpu time    0.0048: real time    0.0048
    CHARGE:  cpu time    3.5269: real time    3.5318
    MIXING:  cpu time    0.9722: real time    0.9739
    --------------------------------------------
      LOOP:  cpu time   44.8427: real time   44.9098

 eigenvalue-minimisations  :    32
 total energy-change (2. order) :-0.3819290E-04  (-0.2272422E-07)
 number of electron      16.0000000 magnetization 
 augmentation part        1.0096941 magnetization 

 Broyden mixing:
  rms(total) = 0.39047E-04    rms(broyden)= 0.39047E-04
  rms(prec ) = 0.44175E-04
  weight for this iteration     100.00

 eigenvalues of (default mixing * dielectric matrix)
  average eigenvalue GAMMA=   2.4088
  9.3251  6.4810  4.4294  3.3436  2.5202  2.5202  1.7506  1.7506  1.1397  1.1397
  0.9373  0.9373  0.9982  0.9982  0.8595  0.9091  0.9091

 Free energy of the ion-electron system (eV)
  ---------------------------------------------------
  alpha Z        PSCENC =         0.02122976
  Ewald energy   TEWEN  =       642.01420245
  -Hartree energ DENC   =     -1285.61719627
  -exchange      EXHF   =         0.00000000
  -V(xc)+E(xc)   XCENC  =        63.51980044
  PAW double counting   =      1137.93750341    -1141.62151507
  entropy T*S    EENTRO =        -0.00000000
  eigenvalues    EBANDS =      -209.05190336
  atomic energy  EATOM  =       759.36846174
  Solvation  Ediel_sol  =         0.00000000
  ---------------------------------------------------
  free energy    TOTEN  =       -33.42941690 eV

  energy without entropy =      -33.42941690  energy(sigma->0) =      -33.42941690


--------------------------------------------------------------------------------------------------------




--------------------------------------- Iteration      1(  23)  ---------------------------------------


    POTLOK:  cpu time   23.7863: real time   23.8207
    SETDIJ:  cpu time    0.0723: real time    0.0724
     EDDAV:  cpu time   10.4717: real time   10.4880
       DOS:  cpu time    0.0061: real time    0.0061
    CHARGE:  cpu time    3.4678: real time    3.4729
    MIXING:  cpu time    1.0810: real time    1.0827
    --------------------------------------------
      LOOP:  cpu time   38.8853: real time   38.9428

 eigenvalue-minimisations  :    16
 total energy-change (2. order) :-0.1496656E-04  (-0.5028864E-08)
 number of electron      16.0000000 magnetization 
 augmentation part        1.0096968 magnetization 

 Broyden mixing:
  rms(total) = 0.31526E-04    rms(broyden)= 0.31526E-04
  rms(prec ) = 0.34183E-04
  weight for this iteration     100.00

 eigenvalues of (default mixing * dielectric matrix)
  average eigenvalue GAMMA=   2.4410
  9.4218  6.7883  4.9280  3.4072  2.7942  2.4467  2.2274  1.9339  1.1717  1.1217
  1.1217  0.9433  0.9433  1.0010  1.0010  0.8726  0.8726  0.9421

 Free energy of the ion-electron system (eV)
  ---------------------------------------------------
  alpha Z        PSCENC =         0.02122976
  Ewald energy   TEWEN  =       642.01420245
  -Hartree energ DENC   =     -1285.61729417
  -exchange      EXHF   =         0.00000000
  -V(xc)+E(xc)   XCENC  =        63.51977456
  PAW double counting   =      1137.93281074    -1141.61681334
  entropy T*S    EENTRO =        -0.00000000
  eigenvalues    EBANDS =      -209.05180360
  atomic energy  EATOM  =       759.36846174
  Solvation  Ediel_sol  =         0.00000000
  ---------------------------------------------------
  free energy    TOTEN  =       -33.42943187 eV

  energy without entropy =      -33.42943187  energy(sigma->0) =      -33.42943187


--------------------------------------------------------------------------------------------------------




--------------------------------------- Iteration      1(  24)  ---------------------------------------


    POTLOK:  cpu time   23.8036: real time   23.8382
    SETDIJ:  cpu time    0.0672: real time    0.0672
     EDDAV:  cpu time   13.5305: real time   13.5517
       DOS:  cpu time    0.0046: real time    0.0046
    CHARGE:  cpu time    3.4769: real time    3.4819
    MIXING:  cpu time    1.0949: real time    1.0967
    --------------------------------------------
      LOOP:  cpu time   41.9778: real time   42.0404

 eigenvalue-minimisations  :    24
 total energy-change (2. order) :-0.8889009E-05  (-0.5438228E-08)
 number of electron      16.0000000 magnetization 
 augmentation part        1.0096944 magnetization 

 Broyden mixing:
  rms(total) = 0.97687E-05    rms(broyden)= 0.97687E-05
  rms(prec ) = 0.11536E-04
  weight for this iteration     100.00

 eigenvalues of (default mixing * dielectric matrix)
  average eigenvalue GAMMA=   2.3844
  9.4484  6.8536  5.0290  3.1991  3.1991  2.3509  2.3509  1.7869  1.4511  1.1210
  1.1210  0.9410  0.9410  0.9947  0.9947  1.0012  0.8792  0.8792  0.7608

 Free energy of the ion-electron system (eV)
  ---------------------------------------------------
  alpha Z        PSCENC =         0.02122976
  Ewald energy   TEWEN  =       642.01420245
  -Hartree energ DENC   =     -1285.61883111
  -exchange      EXHF   =         0.00000000
  -V(xc)+E(xc)   XCENC  =        63.51984615
  PAW double counting   =      1137.94348215    -1141.62749133
  entropy T*S    EENTRO =        -0.00000000
  eigenvalues    EBANDS =      -209.05034055
  atomic energy  EATOM  =       759.36846174
  Solvation  Ediel_sol  =         0.00000000
  ---------------------------------------------------
  free energy    TOTEN  =       -33.42944075 eV

  energy without entropy =      -33.42944075  energy(sigma->0) =      -33.42944075


--------------------------------------------------------------------------------------------------------




--------------------------------------- Iteration      1(  25)  ---------------------------------------


    POTLOK:  cpu time   23.7980: real time   23.8324
    SETDIJ:  cpu time    0.0609: real time    0.0609
     EDDAV:  cpu time   13.4799: real time   13.5011
       DOS:  cpu time    0.0018: real time    0.0018
    CHARGE:  cpu time    3.4554: real time    3.4602
    MIXING:  cpu time    1.1358: real time    1.1378
    --------------------------------------------
      LOOP:  cpu time   41.9318: real time   41.9942

 eigenvalue-minimisations  :    24
 total energy-change (2. order) :-0.2510814E-05  (-0.2582766E-08)
 number of electron      16.0000000 magnetization 
 augmentation part        1.0096945 magnetization 

 Broyden mixing:
  rms(total) = 0.11813E-04    rms(broyden)= 0.11813E-04
  rms(prec ) = 0.12924E-04
  weight for this iteration     100.00

 eigenvalues of (default mixing * dielectric matrix)
  average eigenvalue GAMMA=   2.4176
  9.5154  7.1675  5.3468  3.7836  2.8792  2.5698  2.3192  2.3192  1.8486  1.1240
  1.1240  0.9437  0.9437  1.0951  1.0141  1.0141  0.9490  0.8703  0.8703  0.6547

 Free energy of the ion-electron system (eV)
  ---------------------------------------------------
  alpha Z        PSCENC =         0.02122976
  Ewald energy   TEWEN  =       642.01420245
  -Hartree energ DENC   =     -1285.61924415
  -exchange      EXHF   =         0.00000000
  -V(xc)+E(xc)   XCENC  =        63.51986449
  PAW double counting   =      1137.94634375    -1141.63035262
  entropy T*S    EENTRO =        -0.00000000
  eigenvalues    EBANDS =      -209.04994867
  atomic energy  EATOM  =       759.36846174
  Solvation  Ediel_sol  =         0.00000000
  ---------------------------------------------------
  free energy    TOTEN  =       -33.42944327 eV

  energy without entropy =      -33.42944327  energy(sigma->0) =      -33.42944327


--------------------------------------------------------------------------------------------------------




--------------------------------------- Iteration      1(  26)  ---------------------------------------


    POTLOK:  cpu time   23.8006: real time   23.8349
    SETDIJ:  cpu time    0.0558: real time    0.0558
     EDDAV:  cpu time   10.4945: real time   10.5109
       DOS:  cpu time    0.0046: real time    0.0046
    CHARGE:  cpu time    3.5022: real time    3.5071
    MIXING:  cpu time    1.1861: real time    1.1880
    --------------------------------------------
      LOOP:  cpu time   39.0437: real time   39.1013

 eigenvalue-minimisations  :    16
 total energy-change (2. order) :-0.2370104E-05  (-0.1959098E-08)
 number of electron      16.0000000 magnetization 
 augmentation part        1.0096935 magnetization 

 Broyden mixing:
  rms(total) = 0.12235E-04    rms(broyden)= 0.12235E-04
  rms(prec ) = 0.12775E-04
  weight for this iteration     100.00

 eigenvalues of (default mixing * dielectric matrix)
  average eigenvalue GAMMA=   2.4062
  9.5830  7.3149  5.5070  4.1333  2.8463  2.8463  2.4711  2.2578  1.8282  1.2817
  1.1006  1.1006  0.9420  0.9420  1.0221  1.0221  1.0515  0.8972  0.8972  0.8662
  0.6200

 Free energy of the ion-electron system (eV)
  ---------------------------------------------------
  alpha Z        PSCENC =         0.02122976
  Ewald energy   TEWEN  =       642.01420245
  -Hartree energ DENC   =     -1285.61886182
  -exchange      EXHF   =         0.00000000
  -V(xc)+E(xc)   XCENC  =        63.51984625
  PAW double counting   =      1137.94819802    -1141.63220861
  entropy T*S    EENTRO =        -0.00000000
  eigenvalues    EBANDS =      -209.05031342
  atomic energy  EATOM  =       759.36846174
  Solvation  Ediel_sol  =         0.00000000
  ---------------------------------------------------
  free energy    TOTEN  =       -33.42944564 eV

  energy without entropy =      -33.42944564  energy(sigma->0) =      -33.42944564


--------------------------------------------------------------------------------------------------------




--------------------------------------- Iteration      1(  27)  ---------------------------------------


    POTLOK:  cpu time   23.7456: real time   23.7803
    SETDIJ:  cpu time    0.0594: real time    0.0594
     EDDAV:  cpu time   13.4883: real time   13.5094
       DOS:  cpu time    0.0023: real time    0.0023
    CHARGE:  cpu time    3.4878: real time    3.4928
    MIXING:  cpu time    1.2272: real time    1.2293
    --------------------------------------------
      LOOP:  cpu time   42.0106: real time   42.0736

 eigenvalue-minimisations  :    24
 total energy-change (2. order) :-0.8611742E-06  (-0.1213945E-08)
 number of electron      16.0000000 magnetization 
 augmentation part        1.0096947 magnetization 

 Broyden mixing:
  rms(total) = 0.42888E-05    rms(broyden)= 0.42888E-05
  rms(prec ) = 0.46000E-05
  weight for this iteration     100.00

 eigenvalues of (default mixing * dielectric matrix)
  average eigenvalue GAMMA=   2.3883
  9.6290  7.4288  5.6784  4.2653  2.9586  2.9586  2.5123  1.9724  1.9724  1.3569
  1.3569  1.1597  1.1597  0.9414  0.9414  1.0427  1.0427  0.9292  0.9292  0.8707
  0.8707  0.5657

 Free energy of the ion-electron system (eV)
  ---------------------------------------------------
  alpha Z        PSCENC =         0.02122976
  Ewald energy   TEWEN  =       642.01420245
  -Hartree energ DENC   =     -1285.61846331
  -exchange      EXHF   =         0.00000000
  -V(xc)+E(xc)   XCENC  =        63.51982738
  PAW double counting   =      1137.94997004    -1141.63397818
  entropy T*S    EENTRO =        -0.00000000
  eigenvalues    EBANDS =      -209.05069636
  atomic energy  EATOM  =       759.36846174
  Solvation  Ediel_sol  =         0.00000000
  ---------------------------------------------------
  free energy    TOTEN  =       -33.42944650 eV

  energy without entropy =      -33.42944650  energy(sigma->0) =      -33.42944650


--------------------------------------------------------------------------------------------------------




--------------------------------------- Iteration      1(  28)  ---------------------------------------


    POTLOK:  cpu time   23.7922: real time   23.8266
    SETDIJ:  cpu time    0.0568: real time    0.0569
     EDDAV:  cpu time   10.5063: real time   10.5227
       DOS:  cpu time    0.0048: real time    0.0048
    CHARGE:  cpu time    3.4434: real time    3.4484
    MIXING:  cpu time    1.3263: real time    1.3286
    --------------------------------------------
      LOOP:  cpu time   39.1298: real time   39.1880

 eigenvalue-minimisations  :    16
 total energy-change (2. order) :-0.4416765E-06  (-0.8076828E-09)
 number of electron      16.0000000 magnetization 
 augmentation part        1.0096948 magnetization 

 Broyden mixing:
  rms(total) = 0.39992E-05    rms(broyden)= 0.39992E-05
  rms(prec ) = 0.41751E-05
  weight for this iteration     100.00

 eigenvalues of (default mixing * dielectric matrix)
  average eigenvalue GAMMA=   2.3950
  9.5992  7.7095  5.8084  4.5162  3.1284  2.5784  2.5784  2.4055  2.4055  1.7889
  1.2324  1.1220  1.1220  0.9410  0.9410  1.0502  1.0502  1.0403  0.9059  0.9059
  0.8488  0.8488  0.5585

 Free energy of the ion-electron system (eV)
  ---------------------------------------------------
  alpha Z        PSCENC =         0.02122976
  Ewald energy   TEWEN  =       642.01420245
  -Hartree energ DENC   =     -1285.61833700
  -exchange      EXHF   =         0.00000000
  -V(xc)+E(xc)   XCENC  =        63.51982122
  PAW double counting   =      1137.95003267    -1141.63404080
  entropy T*S    EENTRO =        -0.00000000
  eigenvalues    EBANDS =      -209.05081697
  atomic energy  EATOM  =       759.36846174
  Solvation  Ediel_sol  =         0.00000000
  ---------------------------------------------------
  free energy    TOTEN  =       -33.42944694 eV

  energy without entropy =      -33.42944694  energy(sigma->0) =      -33.42944694


--------------------------------------------------------------------------------------------------------




--------------------------------------- Iteration      1(  29)  ---------------------------------------


    POTLOK:  cpu time   23.7451: real time   23.7800
    SETDIJ:  cpu time    0.0595: real time    0.0596
     EDDAV:  cpu time   13.5343: real time   13.5559
       DOS:  cpu time    0.0043: real time    0.0043
    CHARGE:  cpu time    3.4886: real time    3.4938
    MIXING:  cpu time    1.3369: real time    1.3392
    --------------------------------------------
      LOOP:  cpu time   42.1688: real time   42.2328

 eigenvalue-minimisations  :    24
 total energy-change (2. order) :-0.3559423E-06  (-0.5715481E-09)
 number of electron      16.0000000 magnetization 
 augmentation part        1.0096952 magnetization 

 Broyden mixing:
  rms(total) = 0.34519E-05    rms(broyden)= 0.34519E-05
  rms(prec ) = 0.35890E-05
  weight for this iteration     100.00

 eigenvalues of (default mixing * dielectric matrix)
  average eigenvalue GAMMA=   2.4013
  9.6367  7.8791  6.0576  4.7030  3.5871  2.6352  2.6352  2.4068  1.9356  1.9356
  1.6039  1.2765  1.1454  1.1454  0.9417  0.9417  1.0267  1.0267  1.0602  0.9240
  0.8935  0.8935  0.7946  0.5456

 Free energy of the ion-electron system (eV)
  ---------------------------------------------------
  alpha Z        PSCENC =         0.02122976
  Ewald energy   TEWEN  =       642.01420245
  -Hartree energ DENC   =     -1285.61830565
  -exchange      EXHF   =         0.00000000
  -V(xc)+E(xc)   XCENC  =        63.51981924
  PAW double counting   =      1137.94754447    -1141.63155195
  entropy T*S    EENTRO =        -0.00000000
  eigenvalues    EBANDS =      -209.05084736
  atomic energy  EATOM  =       759.36846174
  Solvation  Ediel_sol  =         0.00000000
  ---------------------------------------------------
  free energy    TOTEN  =       -33.42944729 eV

  energy without entropy =      -33.42944729  energy(sigma->0) =      -33.42944729


--------------------------------------------------------------------------------------------------------




--------------------------------------- Iteration      1(  30)  ---------------------------------------


    POTLOK:  cpu time   23.6858: real time   23.7227
    SETDIJ:  cpu time    0.0534: real time    0.0534
     EDDAV:  cpu time   10.4823: real time   10.4986
       DOS:  cpu time    0.0033: real time    0.0033
    CHARGE:  cpu time    3.4680: real time    3.4732
    MIXING:  cpu time    1.4259: real time    1.4283
    --------------------------------------------
      LOOP:  cpu time   39.1187: real time   39.1795

 eigenvalue-minimisations  :    16
 total energy-change (2. order) :-0.1781677E-06  (-0.4810765E-09)
 number of electron      16.0000000 magnetization 
 augmentation part        1.0096947 magnetization 

 Broyden mixing:
  rms(total) = 0.96314E-06    rms(broyden)= 0.96313E-06
  rms(prec ) = 0.10467E-05
  weight for this iteration     100.00

 eigenvalues of (default mixing * dielectric matrix)
  average eigenvalue GAMMA=   2.3863
  9.6625  7.9824  6.1879  4.7995  3.7483  2.5171  2.5171  2.6002  2.4565  1.6834
  1.6834  1.6315  1.1302  1.1302  0.9419  0.9419  1.0153  1.0153  1.0930  1.0243
  0.8849  0.8849  0.8682  0.7155  0.5410

 Free energy of the ion-electron system (eV)
  ---------------------------------------------------
  alpha Z        PSCENC =         0.02122976
  Ewald energy   TEWEN  =       642.01420245
  -Hartree energ DENC   =     -1285.61841017
  -exchange      EXHF   =         0.00000000
  -V(xc)+E(xc)   XCENC  =        63.51982460
  PAW double counting   =      1137.94718047    -1141.63118892
  entropy T*S    EENTRO =        -0.00000000
  eigenvalues    EBANDS =      -209.05074740
  atomic energy  EATOM  =       759.36846174
  Solvation  Ediel_sol  =         0.00000000
  ---------------------------------------------------
  free energy    TOTEN  =       -33.42944747 eV

  energy without entropy =      -33.42944747  energy(sigma->0) =      -33.42944747


--------------------------------------------------------------------------------------------------------




--------------------------------------- Iteration      1(  31)  ---------------------------------------


    POTLOK:  cpu time   23.7477: real time   23.7825
    SETDIJ:  cpu time    0.0636: real time    0.0637
     EDDAV:  cpu time   13.5067: real time   13.5281
       DOS:  cpu time    0.0052: real time    0.0052
    --------------------------------------------
      LOOP:  cpu time   37.3232: real time   37.3794

 eigenvalue-minimisations  :    24
 total energy-change (2. order) :-0.9462292E-07  (-0.3740599E-09)
 number of electron      16.0000000 magnetization 
 augmentation part        1.0096947 magnetization 

 Free energy of the ion-electron system (eV)
  ---------------------------------------------------
  alpha Z        PSCENC =         0.02122976
  Ewald energy   TEWEN  =       642.01420245
  -Hartree energ DENC   =     -1285.61841874
  -exchange      EXHF   =         0.00000000
  -V(xc)+E(xc)   XCENC  =        63.51982525
  PAW double counting   =      1137.94746609    -1141.63147436
  entropy T*S    EENTRO =        -0.00000000
  eigenvalues    EBANDS =      -209.05073976
  atomic energy  EATOM  =       759.36846174
  Solvation  Ediel_sol  =         0.00000000
  ---------------------------------------------------
  free energy    TOTEN  =       -33.42944757 eV

  energy without entropy =      -33.42944757  energy(sigma->0) =      -33.42944757


--------------------------------------------------------------------------------------------------------




 average (electrostatic) potential at core
  the test charge radii are     0.5201  0.7089  0.7215
  (the norm of the test charge is              1.0000)
       1 -42.2984       2 -42.0110       3 -42.2970       4 -45.5519       5 -45.5481
       6 -71.4446       7 -81.4654
 
 
 
 E-fermi :  -4.9888     XC(G=0):  -0.0332     alpha+bet : -0.0070


 k-point     1 :       0.0000    0.0000    0.0000
  band No.  band energies     occupation 
      1     -26.3500      2.00000
      2     -20.1074      2.00000
      3     -14.0102      2.00000
      4     -12.0620      2.00000
      5     -10.2901      2.00000
      6      -8.5637      2.00000
      7      -8.1051      2.00000
      8      -5.0367      2.00000
      9      -1.2858      0.00000
     10      -0.0664      0.00000
     11      -0.0018      0.00000
     12       0.0273      0.00000


--------------------------------------------------------------------------------------------------------


 soft charge-density along one line, spin component            1
         0         1         2         3         4         5         6         7         8         9
 total charge-density along one line
 
 pseudopotential strength for first ion, spin component:            1
 -2.347  -4.048  -0.004   0.011   0.006
 -4.048  -6.894  -0.009   0.022   0.011
 -0.004  -0.009  -0.330  -0.008  -0.004
  0.011   0.022  -0.008  -0.314   0.010
  0.006   0.011  -0.004   0.010  -0.328
 total augmentation occupancy for first ion, spin component:            1
  3.616  -0.669   0.196  -0.508  -0.248
 -0.669   0.155  -0.036   0.096   0.044
  0.196  -0.036   0.030  -0.018  -0.015
 -0.508   0.096  -0.018   0.082   0.024
 -0.248   0.044  -0.015   0.024   0.035


------------------------ aborting loop because EDIFF is reached ----------------------------------------



 DIPCOR: dipole corrections for dipol
 direction  1 min pos   579, direction  2 min pos   559, direction  3 min pos   467,
 dipolmoment           0.106435     -0.730546     -0.229875 electrons x Angstroem
 Tr[quadrupol]         6.921258

 energy correction for charged system         0.000000 eV
 dipol+quadrupol energy correction            0.000421 eV
 added-field ion interaction          0.000000 eV  (added to PSCEN)

 
  *************** adding dipol energy to TOTEN NOW **************** 
    CHARGE:  cpu time    3.4353: real time    3.4405
    FORLOC:  cpu time    1.3022: real time    1.3040
    FORNL :  cpu time    0.8175: real time    0.8187
    STRESS:  cpu time   10.4799: real time   10.4967
    FORCOR:  cpu time   22.8955: real time   22.9279
    FORHAR:  cpu time    6.9987: real time    7.0092
    MIXING:  cpu time    1.5055: real time    1.5081
    OFIELD:  cpu time    0.0000: real time    0.0000

  FORCE on cell =-STRESS in cart. coord.  units (eV):
  Direction    XX          YY          ZZ          XY          YZ          ZX
  --------------------------------------------------------------------------------------
  Alpha Z     0.02123     0.02123     0.02123
  Ewald     128.33892   462.92382    50.75147    28.65412   -31.73766    88.23959
  Hartree   341.63244   617.13317   326.85281    14.21545    -7.87998    16.16469
  E(xc)     -67.60246   -67.20046   -67.88005     0.05889    -0.09199     0.32439
  Local    -627.66549 -1238.63233  -557.07365   -38.91049    31.77747   -79.21728
  n-local   -53.08178   -54.41175   -54.06341     0.28156    -0.60056     0.97393
  augment     7.91561     8.06733     9.01016    -0.12068     0.27517    -1.35233
  Kinetic   271.43332   277.56957   292.95302    -3.93471     8.06046   -24.63393
  Fock        0.00000     0.00000     0.00000     0.00000     0.00000     0.00000
  -------------------------------------------------------------------------------------
  Total       0.99178     5.47058     0.57158     0.24415    -0.19707     0.49907
  in kB       0.03706     0.20443     0.02136     0.00912    -0.00736     0.01865
  external pressure =        0.09 kB  Pullay stress =        0.00 kB


 VOLUME and BASIS-vectors are now :
 -----------------------------------------------------------------------------
  energy-cutoff  :     1600.00
  volume of cell :    42875.00
      direct lattice vectors                 reciprocal lattice vectors
    35.000000000  0.000000000  0.000000000     0.028571429  0.000000000  0.000000000
     0.000000000 35.000000000  0.000000000     0.000000000  0.028571429  0.000000000
     0.000000000  0.000000000 35.000000000     0.000000000  0.000000000  0.028571429

  length of vectors
    35.000000000 35.000000000 35.000000000     0.028571429  0.028571429  0.028571429


 FORCES acting on ions
    electron-ion (+dipol)            ewald-force                    non-local-force                 convergence-correction
 -----------------------------------------------------------------------------------------------
   -.324E+02 0.360E+02 -.626E+02   0.356E+02 -.387E+02 0.690E+02   -.308E+01 0.240E+01 -.609E+01   0.239E-06 -.529E-06 0.237E-06
   -.297E+01 -.281E+02 0.184E+01   0.331E+01 0.351E+02 -.191E+01   -.326E+00 -.728E+01 0.733E-02   0.121E-06 -.134E-07 -.209E-06
   0.726E+02 0.314E+02 0.138E+01   -.799E+02 -.336E+02 -.136E+01   0.697E+01 0.196E+01 0.256E-01   -.382E-06 -.498E-06 -.116E-06
   -.660E+02 -.603E+02 -.419E+02   0.726E+02 0.654E+02 0.460E+02   -.608E+01 -.482E+01 -.388E+01   0.236E-06 0.163E-06 0.214E-06
   0.578E+02 -.668E+02 0.442E+02   -.636E+02 0.726E+02 -.487E+02   0.538E+01 -.543E+01 0.409E+01   -.302E-06 0.183E-06 -.118E-06
   -.214E+02 0.104E+03 0.417E+02   0.350E+02 -.111E+03 -.646E+02   -.134E+02 0.626E+01 0.225E+02   0.125E-05 -.346E-05 -.232E-05
   -.260E+00 -.557E+02 -.449E+00   -.298E+01 0.105E+02 0.145E+01   0.325E+01 0.466E+02 -.943E+00   -.670E-06 0.751E-06 0.735E-06
 -----------------------------------------------------------------------------------------------
   0.728E+01 -.397E+02 -.157E+02   0.533E-14 0.711E-14 0.151E-13   -.728E+01 0.397E+02 0.157E+02   0.490E-06 -.340E-05 -.158E-05
 
 
 POSITION                                       TOTAL-FORCE (eV/Angst)
 -----------------------------------------------------------------------------------
      0.36010      0.02459      0.72875         0.117063     -0.288007      0.332275
     34.98243      1.36087     34.88400         0.012222     -0.230733     -0.061447
     33.97356      0.08603     34.88402        -0.367178     -0.250240      0.043927
      0.67595      3.41624      0.32603         0.493077      0.261356      0.306027
     34.43237      3.48340     34.46116        -0.439117      0.308726     -0.351600
     34.95053      0.34950     34.86212         0.169145     -1.306120     -0.328075
      0.01395      2.86014     34.90563         0.014788      1.505018      0.058894
 -----------------------------------------------------------------------------------
    total drift:                                0.000049      0.000030      0.000035


--------------------------------------------------------------------------------------------------------



  FREE ENERGIE OF THE ION-ELECTRON SYSTEM (eV)
  ---------------------------------------------------
  free  energy   TOTEN  =       -33.42902701 eV

  energy  without entropy=      -33.42902701  energy(sigma->0) =      -33.42902701
 


--------------------------------------------------------------------------------------------------------


    POTLOK:  cpu time   23.9268: real time   23.9619


--------------------------------------------------------------------------------------------------------


 writing wavefunctions
     LOOP+:  cpu time 2068.6087: real time 2076.0179
    4ORBIT:  cpu time    0.0000: real time    0.0000

 total amount of memory used by VASP MPI-rank0  3965023. kBytes
=======================================================================

   base      :      30000. kBytes
   nonl-proj :     236786. kBytes
   fftplans  :    1335190. kBytes
   grid      :    2325657. kBytes
   one-center:          3. kBytes
   wavefun   :      37387. kBytes
 
  
  
 General timing and accounting informations for this job:
 ========================================================
  
                  Total CPU time used (sec):     2906.133
                            User time (sec):     2812.586
                          System time (sec):       93.547
                         Elapsed time (sec):     2923.238
  
                   Maximum memory used (kb):     4711540.
                   Average memory used (kb):           0.
  
                          Minor page faults:     58087424
                          Major page faults:          125
                 Voluntary context switches:         5322
