 vasp.6.1.2 22Jul20 (build Jan  6 2021 09:55:43) gamma-only                      
 executed on             LinuxPGI date 2021.03.08  23:50:09
 running on   32 total cores
 distrk:  each k-point on   32 cores,    1 groups
 distr:  one band on NCORE=   8 cores,    4 groups


--------------------------------------------------------------------------------------------------------


 INCAR:
 POTCAR:    PAW_PBE H 15Jun2001                   
 POTCAR:    PAW_PBE O 08Apr2002                   
 POTCAR:    PAW_PBE H 15Jun2001                   
   VRHFIN =H: ultrasoft test                                                                        
   LEXCH  = PE                                                                                      
   EATOM  =    12.4884 eV,    0.9179 Ry                                                             
                                                                                                    
   TITEL  = PAW_PBE H 15Jun2001                                                                     
   LULTRA =        F    use ultrasoft PP ?                                                          
   IUNSCR =        0    unscreen: 0-lin 1-nonlin 2-no                                               
   RPACOR =    0.000    partial core radius                                                         
   POMASS =    1.000; ZVAL   =    1.000    mass and valenz                                          
   RCORE  =    1.100    outmost cutoff radius                                                       
   RWIGS  =    0.700; RWIGS  =    0.370    wigner-seitz radius (au A)                               
   ENMAX  =  250.000; ENMIN  =  200.000 eV                                                          
   RCLOC  =    0.701    cutoff for local pot                                                        
   LCOR   =        T    correct aug charges                                                         
   LPAW   =        T    paw PP                                                                      
   EAUG   =  400.000                                                                                
   RMAX   =    1.123    core radius for proj-oper                                                   
   RAUG   =    1.200    factor for augmentation sphere                                              
   RDEP   =    1.112    radius for radial grids                                                     
   RDEPT  =    0.926    core radius for aug-charge                                                  
                                                                                                    
   Atomic configuration                                                                             
    2 entries                                                                                       
     n  l   j            E        occ.                                                              
     1  0  0.50        -6.4927   1.0000                                                             
     2  1  0.50        -3.4015   0.0000                                                             
   Description                                                                                      
     l       E           TYP  RCUT    TYP  RCUT                                                     
     0     -6.4927494     23  1.100                                                                 
     0      6.8029130     23  1.100                                                                 
     1     -4.0817478     23  1.100                                                                 
  local pseudopotential read in
  atomic valenz-charges read in
  non local Contribution for L=            0  read in
    real space projection operators read in
  non local Contribution for L=            0  read in
    real space projection operators read in
  non local Contribution for L=            1  read in
    real space projection operators read in
    PAW grid and wavefunctions read in
 
   number of l-projection  operators is LMAX  =            3
   number of lm-projection operators is LMMAX =            5
 
 POTCAR:    PAW_PBE O 08Apr2002                   
   VRHFIN =O: s2p4                                                                                  
   LEXCH  = PE                                                                                      
   EATOM  =   432.3788 eV,   31.7789 Ry                                                             
                                                                                                    
   TITEL  = PAW_PBE O 08Apr2002                                                                     
   LULTRA =        F    use ultrasoft PP ?                                                          
   IUNSCR =        1    unscreen: 0-lin 1-nonlin 2-no                                               
   RPACOR =    1.200    partial core radius                                                         
   POMASS =   16.000; ZVAL   =    6.000    mass and valenz                                          
   RCORE  =    1.520    outmost cutoff radius                                                       
   RWIGS  =    1.550; RWIGS  =    0.820    wigner-seitz radius (au A)                               
   ENMAX  =  400.000; ENMIN  =  300.000 eV                                                          
   ICORE  =        2    local potential                                                             
   LCOR   =        T    correct aug charges                                                         
   LPAW   =        T    paw PP                                                                      
   EAUG   =  605.392                                                                                
   DEXC   =    0.000                                                                                
   RMAX   =    1.553    core radius for proj-oper                                                   
   RAUG   =    1.300    factor for augmentation sphere                                              
   RDEP   =    1.550    radius for radial grids                                                     
   RDEPT  =    1.329    core radius for aug-charge                                                  
                                                                                                    
   Atomic configuration                                                                             
    4 entries                                                                                       
     n  l   j            E        occ.                                                              
     1  0  0.50      -514.6923   2.0000                                                             
     2  0  0.50       -23.9615   2.0000                                                             
     2  1  0.50        -9.0305   4.0000                                                             
     3  2  1.50        -9.5241   0.0000                                                             
   Description                                                                                      
     l       E           TYP  RCUT    TYP  RCUT                                                     
     0    -23.9615318     23  1.200                                                                 
     0     -9.5240782     23  1.200                                                                 
     1     -9.0304911     23  1.520                                                                 
     1      8.1634956     23  1.520                                                                 
     2     -9.5240782      7  1.500                                                                 
  local pseudopotential read in
  partial core-charges read in
  partial kinetic energy density read in
  kinetic energy density of atom read in
  atomic valenz-charges read in
  non local Contribution for L=            0  read in
    real space projection operators read in
  non local Contribution for L=            0  read in
    real space projection operators read in
  non local Contribution for L=            1  read in
    real space projection operators read in
  non local Contribution for L=            1  read in
    real space projection operators read in
    PAW grid and wavefunctions read in
 
   number of l-projection  operators is LMAX  =            4
   number of lm-projection operators is LMMAX =            8
 
  PAW_PBE H 15Jun2001                   :
 energy of atom  1       EATOM=  -12.4884
 kinetic energy error for atom=    0.0000 (will be added to EATOM!!)
  PAW_PBE O 08Apr2002                   :
 energy of atom  2       EATOM= -432.3788
 kinetic energy error for atom=    0.0005 (will be added to EATOM!!)
 
 
 POSCAR:  H  O
  positions in cartesian coordinates
  No initial velocities read in
 exchange correlation table for  LEXCH =        8
   RHO(1)=    0.500       N(1)  =     2000
   RHO(2)=  100.500       N(2)  =     4000
 


--------------------------------------------------------------------------------------------------------


 ion  position               nearest neighbor table
   1  0.001  0.018  0.978-   5 0.96
   2  1.000  0.018  0.022-   5 0.96
   3  0.001  0.168  0.978-   6 0.96
   4  0.000  0.170  0.021-   6 0.96
   5  0.000  0.035  0.000-   1 0.96   2 0.96
   6  0.000  0.152  0.000-   4 0.96   3 0.96
 
  LATTYP: Found a simple cubic cell.
 ALAT       =    35.0000000000
  
  Lattice vectors:
  
 A1 = (  35.0000000000,   0.0000000000,   0.0000000000)
 A2 = (   0.0000000000,  35.0000000000,   0.0000000000)
 A3 = (   0.0000000000,   0.0000000000,  35.0000000000)


Analysis of symmetry for initial positions (statically):
=====================================================================
 Subroutine PRICEL returns:
 Original cell was already a primitive cell.
 

 Routine SETGRP: Setting up the symmetry group for a 
 simple cubic supercell.


 Subroutine GETGRP returns: Found  1 space group operations
 (whereof  1 operations were pure point group operations)
 out of a pool of 48 trial point group operations.


The static configuration has the point symmetry C_1 .


Analysis of symmetry for dynamics (positions and initial velocities):
=====================================================================
 Subroutine PRICEL returns:
 Original cell was already a primitive cell.
 

 Routine SETGRP: Setting up the symmetry group for a 
 simple cubic supercell.


 Subroutine GETGRP returns: Found  1 space group operations
 (whereof  1 operations were pure point group operations)
 out of a pool of 48 trial point group operations.


The dynamic configuration has the point symmetry C_1 .


 Subroutine INISYM returns: Found  1 space group operations
 (whereof  1 operations are pure point group operations),
 and found     1 'primitive' translations


----------------------------------------------------------------------------------------

                                     Primitive cell                                     

  volume of cell :   42875.0000

  direct lattice vectors                    reciprocal lattice vectors
    35.000000000  0.000000000  0.000000000     0.028571429  0.000000000  0.000000000
     0.000000000 35.000000000  0.000000000     0.000000000  0.028571429  0.000000000
     0.000000000  0.000000000 35.000000000     0.000000000  0.000000000  0.028571429

  length of vectors
    35.000000000 35.000000000 35.000000000     0.028571429  0.028571429  0.028571429

  position of ions in fractional coordinates (direct lattice)
     0.000503079  0.018298976  0.978247097
     0.999617776  0.018046666  0.021558586
     0.000848682  0.168039356  0.977571084
     0.000390051  0.170093529  0.020841195
     0.000000000  0.035063029  0.000000000
     0.000000000  0.152205886  0.000000000

  ion indices of the primitive-cell ions
   primitive index   ion index
                 1           1
                 2           2
                 3           3
                 4           4
                 5           5
                 6           6

----------------------------------------------------------------------------------------

 
 
 KPOINTS: automatic mesh                          

Automatic generation of k-mesh.
Space group operators:
 irot       det(A)        alpha          n_x          n_y          n_z        tau_x        tau_y        tau_z
    1     1.000000     0.000000     1.000000     0.000000     0.000000     0.000000     0.000000     0.000000
 
 Subroutine IBZKPT returns following result:
 ===========================================
 
 Found      1 irreducible k-points:
 
 Following reciprocal coordinates:
            Coordinates               Weight
  0.000000  0.000000  0.000000      1.000000
 
 Following cartesian coordinates:
            Coordinates               Weight
  0.000000  0.000000  0.000000      1.000000
 


--------------------------------------------------------------------------------------------------------




 Dimension of arrays:
   k-points           NKPTS =      1   k-points in BZ     NKDIM =      1   number of bands    NBANDS=     12
   number of dos      NEDOS =    301   number of ions     NIONS =      6
   non local maximal  LDIM  =      4   non local SUM 2l+1 LMDIM =      8
   total plane-waves  NPLWV = ******
   max r-space proj   IRMAX =      1   max aug-charges    IRDMAX=  33660
   dimension x,y,z NGX =   480 NGY =  480 NGZ =  480
   dimension x,y,z NGXF=   960 NGYF=  960 NGZF=  960
   support grid    NGXF=   960 NGYF=  960 NGZF=  960
   ions per type =               4   2
   NGX,Y,Z   is equivalent  to a cutoff of  22.80, 22.80, 22.80 a.u.
   NGXF,Y,Z  is equivalent  to a cutoff of  45.60, 45.60, 45.60 a.u.

 SYSTEM =  C                                       
 POSCAR =   H  O                                   

 Startparameter for this run:
   NWRITE =      2    write-flag & timer
   PREC   = acc       normal or accurate (medium, high low for compatibility)
   ISTART =      0    job   : 0-new  1-cont  2-samecut
   ICHARG =      2    charge: 1-file 2-atom 10-const
   ISPIN  =      1    spin polarized calculation?
   LNONCOLLINEAR =      F non collinear calculations
   LSORBIT =      F    spin-orbit coupling
   INIWAV =      1    electr: 0-lowe 1-rand  2-diag
   LASPH  =      T    aspherical Exc in radial PAW
   METAGGA=      F    non-selfconsistent MetaGGA calc.

 Electronic Relaxation 1
   ENCUT  = 1600.0 eV 117.60 Ry   10.84 a.u. 114.15114.15114.15*2*pi/ulx,y,z
   ENINI  = 1600.0     initial cutoff
   ENAUG  =  605.4 eV  augmentation charge cutoff
   NELM   =     60;   NELMIN=  2; NELMDL= -5     # of ELM steps 
   EDIFF  = 0.1E-06   stopping-criterion for ELM
   LREAL  =      F    real-space projection
   NLSPLINE    = F    spline interpolate recip. space projectors
   LCOMPAT=      F    compatible to vasp.4.4
   GGA_COMPAT  = T    GGA compatible to vasp.4.4-vasp.4.6
   LMAXPAW     = -100 max onsite density
   LMAXMIX     =    2 max onsite mixed and CHGCAR
   VOSKOWN=      0    Vosko Wilk Nusair interpolation
   ROPT   =    0.00000   0.00000
 Ionic relaxation
   EDIFFG = 0.1E-05   stopping-criterion for IOM
   NSW    =      0    number of steps for IOM
   NBLOCK =      1;   KBLOCK =      1    inner block; outer block 
   IBRION =     -1    ionic relax: 0-MD 1-quasi-New 2-CG
   NFREE  =      0    steps in history (QN), initial steepest desc. (CG)
   ISIF   =      2    stress and relaxation
   IWAVPR =     10    prediction:  0-non 1-charg 2-wave 3-comb
   ISYM   =      2    0-nonsym 1-usesym 2-fastsym
   LCORR  =      T    Harris-Foulkes like correction to forces

   POTIM  = 0.5000    time-step for ionic-motion
   TEIN   =    0.0    initial temperature
   TEBEG  =    0.0;   TEEND  =   0.0 temperature during run
   SMASS  =  -3.00    Nose mass-parameter (am)
   estimated Nose-frequenzy (Omega)   =  0.10E-29 period in steps = 0.13E+47 mass=  -0.280E-25a.u.
   SCALEE = 1.0000    scale energy and forces
   NPACO  =    256;   APACO  = 16.0  distance and # of slots for P.C.
   PSTRESS=    0.0 pullay stress

  Mass of Ions in am
   POMASS =   1.00 16.00
  Ionic Valenz
   ZVAL   =   1.00  6.00
  Atomic Wigner-Seitz radii
   RWIGS  =  -1.00 -1.00
  virtual crystal weights 
   VCA    =   1.00  1.00
   NELECT =      16.0000    total number of electrons
   NUPDOWN=      -1.0000    fix difference up-down

 DOS related values:
   EMIN   =  10.00;   EMAX   =-10.00  energy-range for DOS
   EFERMI =   0.00
   ISMEAR =     0;   SIGMA  =   0.01  broadening in eV -4-tet -1-fermi 0-gaus

 Electronic relaxation 2 (details)
   IALGO  =     38    algorithm
   LDIAG  =      T    sub-space diagonalisation (order eigenvalues)
   LSUBROT=      F    optimize rotation matrix (better conditioning)
   TURBO    =      0    0=normal 1=particle mesh
   IRESTART =      0    0=no restart 2=restart with 2 vectors
   NREBOOT  =      0    no. of reboots
   NMIN     =      0    reboot dimension
   EREF     =   0.00    reference energy to select bands
   IMIX   =      4    mixing-type and parameters
     AMIX     =   0.40;   BMIX     =  1.00
     AMIX_MAG =   1.60;   BMIX_MAG =  1.00
     AMIN     =   0.10
     WC   =   100.;   INIMIX=   1;  MIXPRE=   1;  MAXMIX= -45

 Intra band minimization:
   WEIMIN = 0.0000     energy-eigenvalue tresh-hold
   EBREAK =  0.21E-08  absolut break condition
   DEPER  =   0.30     relativ break condition  

   TIME   =   0.40     timestep for ELM

  volume/ion in A,a.u.               =    7145.83     48222.46
  Fermi-wavevector in a.u.,A,eV,Ry     =   0.117864  0.222730  0.189010  0.013892
  Thomas-Fermi vector in A             =   0.732055
 
 Write flags
   LWAVE        =      T    write WAVECAR
   LDOWNSAMPLE  =      F    k-point downsampling of WAVECAR
   LCHARG       =      T    write CHGCAR
   LVTOT        =      F    write LOCPOT, total local potential
   LVHAR        =      F    write LOCPOT, Hartree potential only
   LELF         =      F    write electronic localiz. function (ELF)
   LORBIT       =      0    0 simple, 1 ext, 2 COOP (PROOUT), +10 PAW based schemes


 Dipole corrections
   LMONO  =      F    monopole corrections only (constant potential shift)
   LDIPOL =      F    correct potential (dipole corrections)
   IDIPOL =      4    1-x, 2-y, 3-z, 4-all directions 
   EPSILON=  1.0000000 bulk dielectric constant

 Exchange correlation treatment:
   GGA     =    --    GGA type
   LEXCH   =     8    internal setting for exchange type
   VOSKOWN=      0    Vosko Wilk Nusair interpolation
   LHFCALC =     F    Hartree Fock is set to
   LHFONE  =     F    Hartree Fock one center treatment
   AEXX    =    0.0000 exact exchange contribution

 Linear response parameters
   LEPSILON=     F    determine dielectric tensor
   LRPA    =     F    only Hartree local field effects (RPA)
   LNABLA  =     F    use nabla operator in PAW spheres
   LVEL    =     F    velocity operator in full k-point grid
   LINTERFAST=   F  fast interpolation
   KINTER  =     0    interpolate to denser k-point grid
   CSHIFT  =0.1000    complex shift for real part using Kramers Kronig
   OMEGAMAX=  -1.0    maximum frequency
   DEG_THRESHOLD= 0.2000000E-02 threshold for treating states as degnerate
   RTIME   =   -0.100 relaxation time in fs
  (WPLASMAI=    0.000 imaginary part of plasma frequency in eV, 0.658/RTIME)
   DFIELD  = 0.0000000 0.0000000 0.0000000 field for delta impulse in time
 
 Orbital magnetization related:
   ORBITALMAG=     F  switch on orbital magnetization
   LCHIMAG   =     F  perturbation theory with respect to B field
   DQ        =  0.001000  dq finite difference perturbation B field
   LLRAUG    =     F  two centre corrections for induced B field



--------------------------------------------------------------------------------------------------------


 Static calculation
 charge density and potential will be updated during run
 non-spin polarized calculation
 Variant of blocked Davidson
 Davidson routine will perform the subspace rotation
 perform sub-space diagonalisation
    after iterative eigenvector-optimisation
 modified Broyden-mixing scheme, WC =      100.0
 initial mixing is a Kerker type mixing with AMIX =  0.4000 and BMIX =      1.0000
 Hartree-type preconditioning will be used
 using additional bands             4
 reciprocal scheme for non local part
 use partial core corrections
 calculate Harris-corrections to forces 
   (improved forces if not selfconsistent)
 use gradient corrections 
 use of overlap-Matrix (Vanderbilt PP)
 Gauss-broadening in eV      SIGMA  =   0.01


--------------------------------------------------------------------------------------------------------


  energy-cutoff  :     1600.00
  volume of cell :    42875.00
      direct lattice vectors                 reciprocal lattice vectors
    35.000000000  0.000000000  0.000000000     0.028571429  0.000000000  0.000000000
     0.000000000 35.000000000  0.000000000     0.000000000  0.028571429  0.000000000
     0.000000000  0.000000000 35.000000000     0.000000000  0.000000000  0.028571429

  length of vectors
    35.000000000 35.000000000 35.000000000     0.028571429  0.028571429  0.028571429


 
 k-points in units of 2pi/SCALE and weight: automatic mesh                          
   0.00000000  0.00000000  0.00000000       1.000
 
 k-points in reciprocal lattice and weights: automatic mesh                          
   0.00000000  0.00000000  0.00000000       1.000
 
 position of ions in fractional coordinates (direct lattice) 
   0.00050308  0.01829898  0.97824710
   0.99961778  0.01804667  0.02155859
   0.00084868  0.16803936  0.97757108
   0.00039005  0.17009353  0.02084119
   0.00000000  0.03506303  0.00000000
   0.00000000  0.15220589  0.00000000
 
 position of ions in cartesian coordinates  (Angst):
   0.01760775  0.64046416 34.23864840
  34.98662216  0.63163330  0.75455051
   0.02970387  5.88137746 34.21498793
   0.01365177  5.95327352  0.72944182
   0.00000000  1.22720600  0.00000000
   0.00000000  5.32720600  0.00000000
 


--------------------------------------------------------------------------------------------------------


 use parallel FFT for orbitals z direction half grid
 k-point   1 :   0.0000 0.0000 0.0000  plane waves: 3115599

 maximum and minimum number of plane-waves per node :    389462   389421

 maximum number of plane-waves:   3115599
 maximum index in each direction: 
   IXMAX=  114   IYMAX=  114   IZMAX=  114
   IXMIN= -114   IYMIN= -114   IZMIN=    0


 parallel 3D FFT for wavefunctions:
    minimum data exchange during FFTs selected (reduces bandwidth)
 parallel 3D FFT for charge:
    minimum data exchange during FFTs selected (reduces bandwidth)


 total amount of memory used by VASP MPI-rank0  3455162. kBytes
=======================================================================

   base      :      30000. kBytes
   nonl-proj :      87230. kBytes
   fftplans  :    1215227. kBytes
   grid      :    2104012. kBytes
   one-center:          1. kBytes
   wavefun   :      18692. kBytes
 
     INWAV:  cpu time    0.0000: real time    0.0000
 Broyden mixing: mesh for mixing (old mesh)
   NGX =229   NGY =229   NGZ =229
  (NGX  =960   NGY  =960   NGZ  =960)
  gives a total of ****** points

 initial charge density was supplied:
 charge density of overlapping atoms calculated
 number of electron      16.0000000 magnetization 
 keeping initial charge density in first step


--------------------------------------------------------------------------------------------------------


 Maximum index for augmentation-charges          1230 (set IRDMAX)


--------------------------------------------------------------------------------------------------------


 First call to EWALD:  gamma=   0.051
 Maximum number of real-space cells 3x 3x 3
 Maximum number of reciprocal cells 3x 3x 3

    FEWALD:  cpu time    0.0008: real time    0.0008


--------------------------------------- Iteration      1(   1)  ---------------------------------------


    POTLOK:  cpu time   23.2261: real time   23.2569
    SETDIJ:  cpu time    0.0722: real time    0.0744
     EDDAV:  cpu time   11.4595: real time   12.7621
       DOS:  cpu time    0.0027: real time    0.0026
    --------------------------------------------
      LOOP:  cpu time   34.7605: real time   36.0961

 eigenvalue-minimisations  :    40
 total energy-change (2. order) : 0.1456777E+03  (-0.3144718E+03)
 number of electron      16.0000000 magnetization 
 augmentation part       16.0000000 magnetization 

 Free energy of the ion-electron system (eV)
  ---------------------------------------------------
  alpha Z        PSCENC =         0.02092140
  Ewald energy   TEWEN  =       439.85247860
  -Hartree energ DENC   =     -1155.23109021
  -exchange      EXHF   =         0.00000000
  -V(xc)+E(xc)   XCENC  =        64.44867658
  PAW double counting   =       701.63506352     -705.26791599
  entropy T*S    EENTRO =        -0.00000000
  eigenvalues    EBANDS =      -114.49055789
  atomic energy  EATOM  =       914.71016949
  Solvation  Ediel_sol  =         0.00000000
  ---------------------------------------------------
  free energy    TOTEN  =       145.67774551 eV

  energy without entropy =      145.67774551  energy(sigma->0) =      145.67774551


--------------------------------------------------------------------------------------------------------




--------------------------------------- Iteration      1(   2)  ---------------------------------------


     EDDAV:  cpu time    9.7641: real time    9.7792
       DOS:  cpu time    0.0042: real time    0.0042
    --------------------------------------------
      LOOP:  cpu time    9.7683: real time    9.7833

 eigenvalue-minimisations  :    32
 total energy-change (2. order) :-0.7831619E+02  (-0.6890329E+02)
 number of electron      16.0000000 magnetization 
 augmentation part       16.0000000 magnetization 

 Free energy of the ion-electron system (eV)
  ---------------------------------------------------
  alpha Z        PSCENC =         0.02092140
  Ewald energy   TEWEN  =       439.85247860
  -Hartree energ DENC   =     -1155.23109021
  -exchange      EXHF   =         0.00000000
  -V(xc)+E(xc)   XCENC  =        64.44867658
  PAW double counting   =       701.63506352     -705.26791599
  entropy T*S    EENTRO =        -0.00000000
  eigenvalues    EBANDS =      -192.80674959
  atomic energy  EATOM  =       914.71016949
  Solvation  Ediel_sol  =         0.00000000
  ---------------------------------------------------
  free energy    TOTEN  =        67.36155382 eV

  energy without entropy =       67.36155382  energy(sigma->0) =       67.36155382


--------------------------------------------------------------------------------------------------------




--------------------------------------- Iteration      1(   3)  ---------------------------------------


     EDDAV:  cpu time    8.8225: real time    8.8360
       DOS:  cpu time    0.0052: real time    0.0053
    --------------------------------------------
      LOOP:  cpu time    8.8277: real time    8.8412

 eigenvalue-minimisations  :    28
 total energy-change (2. order) :-0.6112380E+02  (-0.5146359E+02)
 number of electron      16.0000000 magnetization 
 augmentation part       16.0000000 magnetization 

 Free energy of the ion-electron system (eV)
  ---------------------------------------------------
  alpha Z        PSCENC =         0.02092140
  Ewald energy   TEWEN  =       439.85247860
  -Hartree energ DENC   =     -1155.23109021
  -exchange      EXHF   =         0.00000000
  -V(xc)+E(xc)   XCENC  =        64.44867658
  PAW double counting   =       701.63506352     -705.26791599
  entropy T*S    EENTRO =        -0.00000000
  eigenvalues    EBANDS =      -253.93054869
  atomic energy  EATOM  =       914.71016949
  Solvation  Ediel_sol  =         0.00000000
  ---------------------------------------------------
  free energy    TOTEN  =         6.23775471 eV

  energy without entropy =        6.23775471  energy(sigma->0) =        6.23775471


--------------------------------------------------------------------------------------------------------




--------------------------------------- Iteration      1(   4)  ---------------------------------------


     EDDAV:  cpu time    8.9183: real time    8.9323
       DOS:  cpu time    0.0077: real time    0.0077
    --------------------------------------------
      LOOP:  cpu time    8.9260: real time    8.9400

 eigenvalue-minimisations  :    28
 total energy-change (2. order) :-0.3563233E+02  (-0.3558114E+02)
 number of electron      16.0000000 magnetization 
 augmentation part       16.0000000 magnetization 

 Free energy of the ion-electron system (eV)
  ---------------------------------------------------
  alpha Z        PSCENC =         0.02092140
  Ewald energy   TEWEN  =       439.85247860
  -Hartree energ DENC   =     -1155.23109021
  -exchange      EXHF   =         0.00000000
  -V(xc)+E(xc)   XCENC  =        64.44867658
  PAW double counting   =       701.63506352     -705.26791599
  entropy T*S    EENTRO =        -0.00000000
  eigenvalues    EBANDS =      -289.56287556
  atomic energy  EATOM  =       914.71016949
  Solvation  Ediel_sol  =         0.00000000
  ---------------------------------------------------
  free energy    TOTEN  =       -29.39457216 eV

  energy without entropy =      -29.39457216  energy(sigma->0) =      -29.39457216


--------------------------------------------------------------------------------------------------------




--------------------------------------- Iteration      1(   5)  ---------------------------------------


     EDDAV:  cpu time    9.8719: real time    9.8869
       DOS:  cpu time    0.0058: real time    0.0058
    CHARGE:  cpu time    2.9813: real time    2.9852
    MIXING:  cpu time    0.7017: real time    0.7025
    --------------------------------------------
      LOOP:  cpu time   13.5608: real time   13.5803

 eigenvalue-minimisations  :    32
 total energy-change (2. order) :-0.3259777E+01  (-0.3259461E+01)
 number of electron      15.9999999 magnetization 
 augmentation part        1.6752679 magnetization 

 Broyden mixing:
  rms(total) = 0.11249E+01    rms(broyden)= 0.11249E+01
  rms(prec ) = 0.11617E+01
  weight for this iteration     100.00

 Free energy of the ion-electron system (eV)
  ---------------------------------------------------
  alpha Z        PSCENC =         0.02092140
  Ewald energy   TEWEN  =       439.85247860
  -Hartree energ DENC   =     -1155.23109021
  -exchange      EXHF   =         0.00000000
  -V(xc)+E(xc)   XCENC  =        64.44867658
  PAW double counting   =       701.63506352     -705.26791599
  entropy T*S    EENTRO =        -0.00000000
  eigenvalues    EBANDS =      -292.82265223
  atomic energy  EATOM  =       914.71016949
  Solvation  Ediel_sol  =         0.00000000
  ---------------------------------------------------
  free energy    TOTEN  =       -32.65434883 eV

  energy without entropy =      -32.65434883  energy(sigma->0) =      -32.65434883


--------------------------------------------------------------------------------------------------------




--------------------------------------- Iteration      1(   6)  ---------------------------------------


    POTLOK:  cpu time   22.9406: real time   22.9711
    SETDIJ:  cpu time    0.0577: real time    0.0577
     EDDAV:  cpu time    8.8359: real time    8.8520
       DOS:  cpu time    0.0048: real time    0.0048
    CHARGE:  cpu time    2.9378: real time    2.9418
    MIXING:  cpu time    0.4633: real time    0.4720
    --------------------------------------------
      LOOP:  cpu time   35.2400: real time   35.2994

 eigenvalue-minimisations  :    28
 total energy-change (2. order) : 0.3829704E+01  (-0.1589296E+01)
 number of electron      15.9999999 magnetization 
 augmentation part        1.4135440 magnetization 

 Broyden mixing:
  rms(total) = 0.45179E+00    rms(broyden)= 0.45179E+00
  rms(prec ) = 0.46062E+00
  weight for this iteration     100.00

 eigenvalues of (default mixing * dielectric matrix)
  average eigenvalue GAMMA=   0.9509
  0.9509

 Free energy of the ion-electron system (eV)
  ---------------------------------------------------
  alpha Z        PSCENC =         0.02092140
  Ewald energy   TEWEN  =       439.85247860
  -Hartree energ DENC   =     -1203.87440503
  -exchange      EXHF   =         0.00000000
  -V(xc)+E(xc)   XCENC  =        67.11561252
  PAW double counting   =       891.58066629     -895.93122964
  entropy T*S    EENTRO =        -0.00000000
  eigenvalues    EBANDS =      -242.29885863
  atomic energy  EATOM  =       914.71016949
  Solvation  Ediel_sol  =         0.00000000
  ---------------------------------------------------
  free energy    TOTEN  =       -28.82464499 eV

  energy without entropy =      -28.82464499  energy(sigma->0) =      -28.82464499


--------------------------------------------------------------------------------------------------------




--------------------------------------- Iteration      1(   7)  ---------------------------------------


    POTLOK:  cpu time   22.9506: real time   22.9811
    SETDIJ:  cpu time    0.0669: real time    0.0669
     EDDAV:  cpu time   10.5831: real time   10.5994
       DOS:  cpu time    0.0037: real time    0.0037
    CHARGE:  cpu time    2.9158: real time    2.9196
    MIXING:  cpu time    0.4908: real time    0.4915
    --------------------------------------------
      LOOP:  cpu time   37.0109: real time   37.0623

 eigenvalue-minimisations  :    36
 total energy-change (2. order) : 0.2206336E+00  (-0.5226994E-01)
 number of electron      15.9999999 magnetization 
 augmentation part        1.3955310 magnetization 

 Broyden mixing:
  rms(total) = 0.29723E+00    rms(broyden)= 0.29723E+00
  rms(prec ) = 0.30290E+00
  weight for this iteration     100.00

 eigenvalues of (default mixing * dielectric matrix)
  average eigenvalue GAMMA=   1.7275
  1.0989  2.3562

 Free energy of the ion-electron system (eV)
  ---------------------------------------------------
  alpha Z        PSCENC =         0.02092140
  Ewald energy   TEWEN  =       439.85247860
  -Hartree energ DENC   =     -1212.79717748
  -exchange      EXHF   =         0.00000000
  -V(xc)+E(xc)   XCENC  =        67.56622527
  PAW double counting   =       982.20191022     -986.49129655
  entropy T*S    EENTRO =        -0.00000000
  eigenvalues    EBANDS =      -233.66724239
  atomic energy  EATOM  =       914.71016949
  Solvation  Ediel_sol  =         0.00000000
  ---------------------------------------------------
  free energy    TOTEN  =       -28.60401143 eV

  energy without entropy =      -28.60401143  energy(sigma->0) =      -28.60401143


--------------------------------------------------------------------------------------------------------




--------------------------------------- Iteration      1(   8)  ---------------------------------------


    POTLOK:  cpu time   22.9093: real time   22.9397
    SETDIJ:  cpu time    0.0744: real time    0.0745
     EDDAV:  cpu time    8.7757: real time    8.7949
       DOS:  cpu time    0.0071: real time    0.0071
    CHARGE:  cpu time    2.9388: real time    2.9427
    MIXING:  cpu time    0.4978: real time    0.4986
    --------------------------------------------
      LOOP:  cpu time   35.2031: real time   35.2573

 eigenvalue-minimisations  :    28
 total energy-change (2. order) : 0.1966469E+00  (-0.1439124E-01)
 number of electron      15.9999999 magnetization 
 augmentation part        1.4043391 magnetization 

 Broyden mixing:
  rms(total) = 0.44676E-01    rms(broyden)= 0.44676E-01
  rms(prec ) = 0.50440E-01
  weight for this iteration     100.00

 eigenvalues of (default mixing * dielectric matrix)
  average eigenvalue GAMMA=   1.4708
  2.4117  1.0004  1.0004

 Free energy of the ion-electron system (eV)
  ---------------------------------------------------
  alpha Z        PSCENC =         0.02092140
  Ewald energy   TEWEN  =       439.85247860
  -Hartree energ DENC   =     -1222.50757224
  -exchange      EXHF   =         0.00000000
  -V(xc)+E(xc)   XCENC  =        68.06364652
  PAW double counting   =      1113.44642896    -1117.62747622
  entropy T*S    EENTRO =        -0.00000000
  eigenvalues    EBANDS =      -224.36596107
  atomic energy  EATOM  =       914.71016949
  Solvation  Ediel_sol  =         0.00000000
  ---------------------------------------------------
  free energy    TOTEN  =       -28.40736454 eV

  energy without entropy =      -28.40736454  energy(sigma->0) =      -28.40736454


--------------------------------------------------------------------------------------------------------




--------------------------------------- Iteration      1(   9)  ---------------------------------------


    POTLOK:  cpu time   22.9781: real time   23.0085
    SETDIJ:  cpu time    0.0758: real time    0.0758
     EDDAV:  cpu time    8.7671: real time    8.7807
       DOS:  cpu time    0.0045: real time    0.0045
    CHARGE:  cpu time    2.9108: real time    2.9145
    MIXING:  cpu time    0.6772: real time    0.6780
    --------------------------------------------
      LOOP:  cpu time   35.4134: real time   35.4620

 eigenvalue-minimisations  :    28
 total energy-change (2. order) : 0.9011372E-02  (-0.3688479E-02)
 number of electron      15.9999999 magnetization 
 augmentation part        1.3910647 magnetization 

 Broyden mixing:
  rms(total) = 0.23211E-01    rms(broyden)= 0.23211E-01
  rms(prec ) = 0.28786E-01
  weight for this iteration     100.00

 eigenvalues of (default mixing * dielectric matrix)
  average eigenvalue GAMMA=   1.8202
  0.9979  0.9979  2.6424  2.6424

 Free energy of the ion-electron system (eV)
  ---------------------------------------------------
  alpha Z        PSCENC =         0.02092140
  Ewald energy   TEWEN  =       439.85247860
  -Hartree energ DENC   =     -1225.34584909
  -exchange      EXHF   =         0.00000000
  -V(xc)+E(xc)   XCENC  =        68.18523244
  PAW double counting   =      1115.70129272    -1119.90522523
  entropy T*S    EENTRO =        -0.00000000
  eigenvalues    EBANDS =      -221.61737352
  atomic energy  EATOM  =       914.71016949
  Solvation  Ediel_sol  =         0.00000000
  ---------------------------------------------------
  free energy    TOTEN  =       -28.39835317 eV

  energy without entropy =      -28.39835317  energy(sigma->0) =      -28.39835317


--------------------------------------------------------------------------------------------------------




--------------------------------------- Iteration      1(  10)  ---------------------------------------


    POTLOK:  cpu time   23.0131: real time   23.0437
    SETDIJ:  cpu time    0.0623: real time    0.0624
     EDDAV:  cpu time    7.9258: real time    7.9378
       DOS:  cpu time    0.0055: real time    0.0055
    CHARGE:  cpu time    2.9691: real time    2.9731
    MIXING:  cpu time    0.5155: real time    0.5164
    --------------------------------------------
      LOOP:  cpu time   34.4915: real time   34.5389

 eigenvalue-minimisations  :    24
 total energy-change (2. order) :-0.5603285E-02  (-0.1246173E-02)
 number of electron      15.9999999 magnetization 
 augmentation part        1.3931147 magnetization 

 Broyden mixing:
  rms(total) = 0.14964E-01    rms(broyden)= 0.14964E-01
  rms(prec ) = 0.17486E-01
  weight for this iteration     100.00

 eigenvalues of (default mixing * dielectric matrix)
  average eigenvalue GAMMA=   1.7375
  3.3713  2.4360  1.0479  0.9163  0.9163

 Free energy of the ion-electron system (eV)
  ---------------------------------------------------
  alpha Z        PSCENC =         0.02092140
  Ewald energy   TEWEN  =       439.85247860
  -Hartree energ DENC   =     -1227.66399955
  -exchange      EXHF   =         0.00000000
  -V(xc)+E(xc)   XCENC  =        68.18867420
  PAW double counting   =      1098.79294124    -1102.96591343
  entropy T*S    EENTRO =        -0.00000000
  eigenvalues    EBANDS =      -219.33922842
  atomic energy  EATOM  =       914.71016949
  Solvation  Ediel_sol  =         0.00000000
  ---------------------------------------------------
  free energy    TOTEN  =       -28.40395646 eV

  energy without entropy =      -28.40395646  energy(sigma->0) =      -28.40395646


--------------------------------------------------------------------------------------------------------




--------------------------------------- Iteration      1(  11)  ---------------------------------------


    POTLOK:  cpu time   23.0007: real time   23.0328
    SETDIJ:  cpu time    0.0610: real time    0.0611
     EDDAV:  cpu time    8.8849: real time    8.8987
       DOS:  cpu time    0.0045: real time    0.0045
    CHARGE:  cpu time    2.9220: real time    2.9258
    MIXING:  cpu time    0.6704: real time    0.6714
    --------------------------------------------
      LOOP:  cpu time   35.5436: real time   35.5943

 eigenvalue-minimisations  :    28
 total energy-change (2. order) :-0.2972004E-02  (-0.5961080E-03)
 number of electron      15.9999999 magnetization 
 augmentation part        1.3881851 magnetization 

 Broyden mixing:
  rms(total) = 0.74954E-02    rms(broyden)= 0.74954E-02
  rms(prec ) = 0.99024E-02
  weight for this iteration     100.00

 eigenvalues of (default mixing * dielectric matrix)
  average eigenvalue GAMMA=   2.1474
  4.7811  2.8579  2.3229  0.9621  0.9621  0.9979

 Free energy of the ion-electron system (eV)
  ---------------------------------------------------
  alpha Z        PSCENC =         0.02092140
  Ewald energy   TEWEN  =       439.85247860
  -Hartree energ DENC   =     -1229.17534550
  -exchange      EXHF   =         0.00000000
  -V(xc)+E(xc)   XCENC  =        68.23941577
  PAW double counting   =      1101.78500371    -1105.96563015
  entropy T*S    EENTRO =        -0.00000000
  eigenvalues    EBANDS =      -217.87394179
  atomic energy  EATOM  =       914.71016949
  Solvation  Ediel_sol  =         0.00000000
  ---------------------------------------------------
  free energy    TOTEN  =       -28.40692846 eV

  energy without entropy =      -28.40692846  energy(sigma->0) =      -28.40692846


--------------------------------------------------------------------------------------------------------




--------------------------------------- Iteration      1(  12)  ---------------------------------------


    POTLOK:  cpu time   23.0529: real time   23.0835
    SETDIJ:  cpu time    0.0681: real time    0.0681
     EDDAV:  cpu time    8.9623: real time    8.9760
       DOS:  cpu time    0.0049: real time    0.0049
    CHARGE:  cpu time    2.9768: real time    2.9807
    MIXING:  cpu time    0.5682: real time    0.5690
    --------------------------------------------
      LOOP:  cpu time   35.6330: real time   35.6822

 eigenvalue-minimisations  :    28
 total energy-change (2. order) :-0.1472246E-01  (-0.5119847E-03)
 number of electron      15.9999999 magnetization 
 augmentation part        1.3889062 magnetization 

 Broyden mixing:
  rms(total) = 0.31244E-02    rms(broyden)= 0.31244E-02
  rms(prec ) = 0.40933E-02
  weight for this iteration     100.00

 eigenvalues of (default mixing * dielectric matrix)
  average eigenvalue GAMMA=   2.0752
  4.7804  3.2614  2.4534  1.0117  1.0117  1.0478  0.9600

 Free energy of the ion-electron system (eV)
  ---------------------------------------------------
  alpha Z        PSCENC =         0.02092140
  Ewald energy   TEWEN  =       439.85247860
  -Hartree energ DENC   =     -1230.24554615
  -exchange      EXHF   =         0.00000000
  -V(xc)+E(xc)   XCENC  =        68.22282939
  PAW double counting   =      1101.50262007    -1105.68350770
  entropy T*S    EENTRO =        -0.00000000
  eigenvalues    EBANDS =      -216.80161603
  atomic energy  EATOM  =       914.71016949
  Solvation  Ediel_sol  =         0.00000000
  ---------------------------------------------------
  free energy    TOTEN  =       -28.42165093 eV

  energy without entropy =      -28.42165093  energy(sigma->0) =      -28.42165093


--------------------------------------------------------------------------------------------------------




--------------------------------------- Iteration      1(  13)  ---------------------------------------


    POTLOK:  cpu time   23.0958: real time   23.1263
    SETDIJ:  cpu time    0.0915: real time    0.0915
     EDDAV:  cpu time   11.4383: real time   11.4560
       DOS:  cpu time    0.0023: real time    0.0023
    CHARGE:  cpu time    2.9451: real time    2.9490
    MIXING:  cpu time    0.6580: real time    0.6590
    --------------------------------------------
      LOOP:  cpu time   38.2310: real time   38.2841

 eigenvalue-minimisations  :    40
 total energy-change (2. order) :-0.4532462E-02  (-0.6992639E-04)
 number of electron      15.9999999 magnetization 
 augmentation part        1.3883248 magnetization 

 Broyden mixing:
  rms(total) = 0.27917E-02    rms(broyden)= 0.27917E-02
  rms(prec ) = 0.33648E-02
  weight for this iteration     100.00

 eigenvalues of (default mixing * dielectric matrix)
  average eigenvalue GAMMA=   2.3301
  6.1851  3.2756  2.8554  2.4212  1.0895  0.9769  0.9769  0.8604

 Free energy of the ion-electron system (eV)
  ---------------------------------------------------
  alpha Z        PSCENC =         0.02092140
  Ewald energy   TEWEN  =       439.85247860
  -Hartree energ DENC   =     -1230.43909423
  -exchange      EXHF   =         0.00000000
  -V(xc)+E(xc)   XCENC  =        68.22115223
  PAW double counting   =      1103.20014488    -1107.38129453
  entropy T*S    EENTRO =        -0.00000000
  eigenvalues    EBANDS =      -216.61066124
  atomic energy  EATOM  =       914.71016949
  Solvation  Ediel_sol  =         0.00000000
  ---------------------------------------------------
  free energy    TOTEN  =       -28.42618339 eV

  energy without entropy =      -28.42618339  energy(sigma->0) =      -28.42618339


--------------------------------------------------------------------------------------------------------




--------------------------------------- Iteration      1(  14)  ---------------------------------------


    POTLOK:  cpu time   23.0783: real time   23.1088
    SETDIJ:  cpu time    0.1234: real time    0.1235
     EDDAV:  cpu time    9.7357: real time    9.7542
       DOS:  cpu time    0.0039: real time    0.0039
    CHARGE:  cpu time    2.9963: real time    3.0003
    MIXING:  cpu time    0.7081: real time    0.7091
    --------------------------------------------
      LOOP:  cpu time   36.6458: real time   36.6998

 eigenvalue-minimisations  :    32
 total energy-change (2. order) :-0.4934749E-02  (-0.6928198E-04)
 number of electron      15.9999999 magnetization 
 augmentation part        1.3879692 magnetization 

 Broyden mixing:
  rms(total) = 0.15773E-02    rms(broyden)= 0.15773E-02
  rms(prec ) = 0.17842E-02
  weight for this iteration     100.00

 eigenvalues of (default mixing * dielectric matrix)
  average eigenvalue GAMMA=   2.1563
  6.4114  3.4156  2.6831  2.3379  1.0895  0.9694  0.9694  0.7654  0.7654

 Free energy of the ion-electron system (eV)
  ---------------------------------------------------
  alpha Z        PSCENC =         0.02092140
  Ewald energy   TEWEN  =       439.85247860
  -Hartree energ DENC   =     -1230.75046818
  -exchange      EXHF   =         0.00000000
  -V(xc)+E(xc)   XCENC  =        68.21611347
  PAW double counting   =      1102.17160721    -1106.34998849
  entropy T*S    EENTRO =        -0.00000000
  eigenvalues    EBANDS =      -216.30195163
  atomic energy  EATOM  =       914.71016949
  Solvation  Ediel_sol  =         0.00000000
  ---------------------------------------------------
  free energy    TOTEN  =       -28.43111814 eV

  energy without entropy =      -28.43111814  energy(sigma->0) =      -28.43111814


--------------------------------------------------------------------------------------------------------




--------------------------------------- Iteration      1(  15)  ---------------------------------------


    POTLOK:  cpu time   23.0546: real time   23.0852
    SETDIJ:  cpu time    0.0670: real time    0.0671
     EDDAV:  cpu time   11.4657: real time   11.4834
       DOS:  cpu time    0.0066: real time    0.0066
    CHARGE:  cpu time    2.9803: real time    2.9842
    MIXING:  cpu time    0.7588: real time    0.7599
    --------------------------------------------
      LOOP:  cpu time   38.3330: real time   38.3864

 eigenvalue-minimisations  :    40
 total energy-change (2. order) :-0.3485603E-03  (-0.1529299E-05)
 number of electron      15.9999999 magnetization 
 augmentation part        1.3878517 magnetization 

 Broyden mixing:
  rms(total) = 0.11404E-02    rms(broyden)= 0.11404E-02
  rms(prec ) = 0.13628E-02
  weight for this iteration     100.00

 eigenvalues of (default mixing * dielectric matrix)
  average eigenvalue GAMMA=   2.2891
  7.3706  3.8913  2.8294  2.4542  1.2714  1.2714  0.9594  0.9594  1.0317  0.8526

 Free energy of the ion-electron system (eV)
  ---------------------------------------------------
  alpha Z        PSCENC =         0.02092140
  Ewald energy   TEWEN  =       439.85247860
  -Hartree energ DENC   =     -1230.76644489
  -exchange      EXHF   =         0.00000000
  -V(xc)+E(xc)   XCENC  =        68.21643513
  PAW double counting   =      1102.33119577    -1106.51003182
  entropy T*S    EENTRO =        -0.00000000
  eigenvalues    EBANDS =      -216.28619038
  atomic energy  EATOM  =       914.71016949
  Solvation  Ediel_sol  =         0.00000000
  ---------------------------------------------------
  free energy    TOTEN  =       -28.43146670 eV

  energy without entropy =      -28.43146670  energy(sigma->0) =      -28.43146670


--------------------------------------------------------------------------------------------------------




--------------------------------------- Iteration      1(  16)  ---------------------------------------


    POTLOK:  cpu time   23.0138: real time   23.0440
    SETDIJ:  cpu time    0.0712: real time    0.0713
     EDDAV:  cpu time    8.0136: real time    8.0294
       DOS:  cpu time    0.0047: real time    0.0047
    CHARGE:  cpu time    2.9561: real time    2.9601
    MIXING:  cpu time    0.6978: real time    0.6988
    --------------------------------------------
      LOOP:  cpu time   34.7571: real time   34.8083

 eigenvalue-minimisations  :    24
 total energy-change (2. order) :-0.1525627E-02  (-0.1040731E-04)
 number of electron      15.9999999 magnetization 
 augmentation part        1.3880873 magnetization 

 Broyden mixing:
  rms(total) = 0.59078E-03    rms(broyden)= 0.59078E-03
  rms(prec ) = 0.70215E-03
  weight for this iteration     100.00

 eigenvalues of (default mixing * dielectric matrix)
  average eigenvalue GAMMA=   2.2146
  7.5591  3.9896  2.6243  2.3452  1.9190  1.1859  0.9941  0.9941  0.8809  0.9340
  0.9340

 Free energy of the ion-electron system (eV)
  ---------------------------------------------------
  alpha Z        PSCENC =         0.02092140
  Ewald energy   TEWEN  =       439.85247860
  -Hartree energ DENC   =     -1230.77059383
  -exchange      EXHF   =         0.00000000
  -V(xc)+E(xc)   XCENC  =        68.21232206
  PAW double counting   =      1101.93312317    -1106.11126437
  entropy T*S    EENTRO =        -0.00000000
  eigenvalues    EBANDS =      -216.28014885
  atomic energy  EATOM  =       914.71016949
  Solvation  Ediel_sol  =         0.00000000
  ---------------------------------------------------
  free energy    TOTEN  =       -28.43299232 eV

  energy without entropy =      -28.43299232  energy(sigma->0) =      -28.43299232


--------------------------------------------------------------------------------------------------------




--------------------------------------- Iteration      1(  17)  ---------------------------------------


    POTLOK:  cpu time   23.1969: real time   23.2278
    SETDIJ:  cpu time    0.0914: real time    0.0914
     EDDAV:  cpu time   11.6454: real time   11.6627
       DOS:  cpu time    0.0031: real time    0.0031
    CHARGE:  cpu time    3.0354: real time    3.0395
    MIXING:  cpu time    0.7596: real time    0.7608
    --------------------------------------------
      LOOP:  cpu time   38.7318: real time   38.7854

 eigenvalue-minimisations  :    40
 total energy-change (2. order) :-0.3842861E-03  (-0.9126718E-06)
 number of electron      15.9999999 magnetization 
 augmentation part        1.3880403 magnetization 

 Broyden mixing:
  rms(total) = 0.34616E-03    rms(broyden)= 0.34616E-03
  rms(prec ) = 0.44769E-03
  weight for this iteration     100.00

 eigenvalues of (default mixing * dielectric matrix)
  average eigenvalue GAMMA=   2.3711
  8.2572  4.8260  2.8844  2.8844  2.3656  1.2464  1.2464  0.9652  0.9652  1.0328
  0.9261  0.8533

 Free energy of the ion-electron system (eV)
  ---------------------------------------------------
  alpha Z        PSCENC =         0.02092140
  Ewald energy   TEWEN  =       439.85247860
  -Hartree energ DENC   =     -1230.77927003
  -exchange      EXHF   =         0.00000000
  -V(xc)+E(xc)   XCENC  =        68.21222077
  PAW double counting   =      1102.04397122    -1106.22241716
  entropy T*S    EENTRO =        -0.00000000
  eigenvalues    EBANDS =      -216.27145091
  atomic energy  EATOM  =       914.71016949
  Solvation  Ediel_sol  =         0.00000000
  ---------------------------------------------------
  free energy    TOTEN  =       -28.43337661 eV

  energy without entropy =      -28.43337661  energy(sigma->0) =      -28.43337661


--------------------------------------------------------------------------------------------------------




--------------------------------------- Iteration      1(  18)  ---------------------------------------


    POTLOK:  cpu time   23.0077: real time   23.0381
    SETDIJ:  cpu time    0.1103: real time    0.1103
     EDDAV:  cpu time    9.6522: real time    9.6669
       DOS:  cpu time    0.0072: real time    0.0072
    CHARGE:  cpu time    2.9877: real time    2.9919
    MIXING:  cpu time    0.7735: real time    0.7746
    --------------------------------------------
      LOOP:  cpu time   36.5386: real time   36.5891

 eigenvalue-minimisations  :    32
 total energy-change (2. order) :-0.5524462E-03  (-0.2157888E-05)
 number of electron      15.9999999 magnetization 
 augmentation part        1.3880395 magnetization 

 Broyden mixing:
  rms(total) = 0.25407E-03    rms(broyden)= 0.25407E-03
  rms(prec ) = 0.28783E-03
  weight for this iteration     100.00

 eigenvalues of (default mixing * dielectric matrix)
  average eigenvalue GAMMA=   2.2788
  8.3312  5.1034  2.9867  2.6278  2.3901  1.2246  1.2246  0.9628  0.9628  0.8503
  1.0066  0.9764  0.9764

 Free energy of the ion-electron system (eV)
  ---------------------------------------------------
  alpha Z        PSCENC =         0.02092140
  Ewald energy   TEWEN  =       439.85247860
  -Hartree energ DENC   =     -1230.79607235
  -exchange      EXHF   =         0.00000000
  -V(xc)+E(xc)   XCENC  =        68.21148424
  PAW double counting   =      1101.94482259    -1106.12325856
  entropy T*S    EENTRO =        -0.00000000
  eigenvalues    EBANDS =      -216.25447448
  atomic energy  EATOM  =       914.71016949
  Solvation  Ediel_sol  =         0.00000000
  ---------------------------------------------------
  free energy    TOTEN  =       -28.43392906 eV

  energy without entropy =      -28.43392906  energy(sigma->0) =      -28.43392906


--------------------------------------------------------------------------------------------------------




--------------------------------------- Iteration      1(  19)  ---------------------------------------


    POTLOK:  cpu time   22.9771: real time   23.0075
    SETDIJ:  cpu time    0.0784: real time    0.0784
     EDDAV:  cpu time   11.5274: real time   11.5451
       DOS:  cpu time    0.0041: real time    0.0041
    CHARGE:  cpu time    2.9518: real time    2.9556
    MIXING:  cpu time    1.0763: real time    1.0776
    --------------------------------------------
      LOOP:  cpu time   38.6151: real time   38.6683

 eigenvalue-minimisations  :    40
 total energy-change (2. order) :-0.6363303E-04  (-0.4851434E-07)
 number of electron      15.9999999 magnetization 
 augmentation part        1.3880429 magnetization 

 Broyden mixing:
  rms(total) = 0.14859E-03    rms(broyden)= 0.14859E-03
  rms(prec ) = 0.18609E-03
  weight for this iteration     100.00

 eigenvalues of (default mixing * dielectric matrix)
  average eigenvalue GAMMA=   2.4286
  8.9348  5.7043  3.7457  2.8307  2.4428  1.9785  1.2736  1.2736  1.1382  0.9722
  0.9722  0.9429  0.9429  0.8478

 Free energy of the ion-electron system (eV)
  ---------------------------------------------------
  alpha Z        PSCENC =         0.02092140
  Ewald energy   TEWEN  =       439.85247860
  -Hartree energ DENC   =     -1230.79740782
  -exchange      EXHF   =         0.00000000
  -V(xc)+E(xc)   XCENC  =        68.21133370
  PAW double counting   =      1101.96849930    -1106.14689249
  entropy T*S    EENTRO =        -0.00000000
  eigenvalues    EBANDS =      -216.25309488
  atomic energy  EATOM  =       914.71016949
  Solvation  Ediel_sol  =         0.00000000
  ---------------------------------------------------
  free energy    TOTEN  =       -28.43399269 eV

  energy without entropy =      -28.43399269  energy(sigma->0) =      -28.43399269


--------------------------------------------------------------------------------------------------------




--------------------------------------- Iteration      1(  20)  ---------------------------------------


    POTLOK:  cpu time   22.9508: real time   22.9810
    SETDIJ:  cpu time    0.1372: real time    0.1374
     EDDAV:  cpu time    7.9658: real time    7.9779
       DOS:  cpu time    0.0024: real time    0.0024
    CHARGE:  cpu time    2.9862: real time    2.9901
    MIXING:  cpu time    1.0210: real time    1.0224
    --------------------------------------------
      LOOP:  cpu time   35.0634: real time   35.1112

 eigenvalue-minimisations  :    24
 total energy-change (2. order) :-0.2025717E-03  (-0.2818966E-06)
 number of electron      15.9999999 magnetization 
 augmentation part        1.3880429 magnetization 

 Broyden mixing:
  rms(total) = 0.86685E-04    rms(broyden)= 0.86685E-04
  rms(prec ) = 0.97790E-04
  weight for this iteration     100.00

 eigenvalues of (default mixing * dielectric matrix)
  average eigenvalue GAMMA=   2.3935
  9.0659  5.9915  3.9883  2.8169  2.5454  2.2812  1.2132  1.2132  1.0198  1.0198
  0.9676  0.9676  0.9821  0.9821  0.8482

 Free energy of the ion-electron system (eV)
  ---------------------------------------------------
  alpha Z        PSCENC =         0.02092140
  Ewald energy   TEWEN  =       439.85247860
  -Hartree energ DENC   =     -1230.80554993
  -exchange      EXHF   =         0.00000000
  -V(xc)+E(xc)   XCENC  =        68.21100906
  PAW double counting   =      1102.00900261    -1106.18745239
  entropy T*S    EENTRO =        -0.00000000
  eigenvalues    EBANDS =      -216.24477411
  atomic energy  EATOM  =       914.71016949
  Solvation  Ediel_sol  =         0.00000000
  ---------------------------------------------------
  free energy    TOTEN  =       -28.43419526 eV

  energy without entropy =      -28.43419526  energy(sigma->0) =      -28.43419526


--------------------------------------------------------------------------------------------------------




--------------------------------------- Iteration      1(  21)  ---------------------------------------


    POTLOK:  cpu time   22.9473: real time   22.9778
    SETDIJ:  cpu time    0.0661: real time    0.0661
     EDDAV:  cpu time    9.7876: real time    9.8025
       DOS:  cpu time    0.0045: real time    0.0045
    CHARGE:  cpu time    2.9274: real time    2.9312
    MIXING:  cpu time    0.9359: real time    0.9373
    --------------------------------------------
      LOOP:  cpu time   36.6689: real time   36.7194

 eigenvalue-minimisations  :    32
 total energy-change (2. order) :-0.3285524E-04  (-0.2251500E-07)
 number of electron      15.9999999 magnetization 
 augmentation part        1.3880533 magnetization 

 Broyden mixing:
  rms(total) = 0.73596E-04    rms(broyden)= 0.73596E-04
  rms(prec ) = 0.80511E-04
  weight for this iteration     100.00

 eigenvalues of (default mixing * dielectric matrix)
  average eigenvalue GAMMA=   2.4916
  9.2386  6.4081  4.4375  3.0322  3.0322  2.4408  1.9178  1.2742  1.2742  1.1135
  0.9739  0.9739  1.0233  0.9369  0.9369  0.8514

 Free energy of the ion-electron system (eV)
  ---------------------------------------------------
  alpha Z        PSCENC =         0.02092140
  Ewald energy   TEWEN  =       439.85247860
  -Hartree energ DENC   =     -1230.80615988
  -exchange      EXHF   =         0.00000000
  -V(xc)+E(xc)   XCENC  =        68.21093710
  PAW double counting   =      1102.00920897    -1106.18758285
  entropy T*S    EENTRO =        -0.00000000
  eigenvalues    EBANDS =      -216.24420095
  atomic energy  EATOM  =       914.71016949
  Solvation  Ediel_sol  =         0.00000000
  ---------------------------------------------------
  free energy    TOTEN  =       -28.43422812 eV

  energy without entropy =      -28.43422812  energy(sigma->0) =      -28.43422812


--------------------------------------------------------------------------------------------------------




--------------------------------------- Iteration      1(  22)  ---------------------------------------


    POTLOK:  cpu time   22.8591: real time   22.8896
    SETDIJ:  cpu time    0.0859: real time    0.0859
     EDDAV:  cpu time    7.9524: real time    7.9646
       DOS:  cpu time    0.0032: real time    0.0032
    CHARGE:  cpu time    2.9893: real time    2.9934
    MIXING:  cpu time    0.9384: real time    0.9398
    --------------------------------------------
      LOOP:  cpu time   34.8283: real time   34.8766

 eigenvalue-minimisations  :    24
 total energy-change (2. order) :-0.4121024E-04  (-0.5048710E-07)
 number of electron      15.9999999 magnetization 
 augmentation part        1.3880280 magnetization 

 Broyden mixing:
  rms(total) = 0.95212E-04    rms(broyden)= 0.95212E-04
  rms(prec ) = 0.98186E-04
  weight for this iteration     100.00

 eigenvalues of (default mixing * dielectric matrix)
  average eigenvalue GAMMA=   2.4650
  9.3747  6.6794  4.7773  3.3956  2.7427  2.5366  2.2136  1.2268  1.2268  1.0057
  1.0057  0.9617  0.9617  1.0662  0.9939  0.8879  0.8486

 Free energy of the ion-electron system (eV)
  ---------------------------------------------------
  alpha Z        PSCENC =         0.02092140
  Ewald energy   TEWEN  =       439.85247860
  -Hartree energ DENC   =     -1230.81135593
  -exchange      EXHF   =         0.00000000
  -V(xc)+E(xc)   XCENC  =        68.21112970
  PAW double counting   =      1101.99358275    -1106.17192290
  entropy T*S    EENTRO =        -0.00000000
  eigenvalues    EBANDS =      -216.23927245
  atomic energy  EATOM  =       914.71016949
  Solvation  Ediel_sol  =         0.00000000
  ---------------------------------------------------
  free energy    TOTEN  =       -28.43426933 eV

  energy without entropy =      -28.43426933  energy(sigma->0) =      -28.43426933


--------------------------------------------------------------------------------------------------------




--------------------------------------- Iteration      1(  23)  ---------------------------------------


    POTLOK:  cpu time   22.8887: real time   22.9190
    SETDIJ:  cpu time    0.0598: real time    0.0599
     EDDAV:  cpu time    8.0199: real time    8.0322
       DOS:  cpu time    0.0072: real time    0.0072
    CHARGE:  cpu time    2.9615: real time    2.9655
    MIXING:  cpu time    1.0231: real time    1.0246
    --------------------------------------------
      LOOP:  cpu time   34.9602: real time   35.0083

 eigenvalue-minimisations  :    24
 total energy-change (2. order) :-0.5903552E-05  (-0.5766108E-08)
 number of electron      15.9999999 magnetization 
 augmentation part        1.3880364 magnetization 

 Broyden mixing:
  rms(total) = 0.47661E-04    rms(broyden)= 0.47661E-04
  rms(prec ) = 0.49370E-04
  weight for this iteration     100.00

 eigenvalues of (default mixing * dielectric matrix)
  average eigenvalue GAMMA=   2.4167
  9.4145  6.7739  4.8294  3.4759  2.6980  2.5224  2.2425  1.2398  1.2398  1.2036
  1.2036  1.0807  0.9723  0.9723  0.9315  0.9315  0.8527  0.9170

 Free energy of the ion-electron system (eV)
  ---------------------------------------------------
  alpha Z        PSCENC =         0.02092140
  Ewald energy   TEWEN  =       439.85247860
  -Hartree energ DENC   =     -1230.81038653
  -exchange      EXHF   =         0.00000000
  -V(xc)+E(xc)   XCENC  =        68.21106872
  PAW double counting   =      1101.98901864    -1106.16735804
  entropy T*S    EENTRO =        -0.00000000
  eigenvalues    EBANDS =      -216.24018752
  atomic energy  EATOM  =       914.71016949
  Solvation  Ediel_sol  =         0.00000000
  ---------------------------------------------------
  free energy    TOTEN  =       -28.43427523 eV

  energy without entropy =      -28.43427523  energy(sigma->0) =      -28.43427523


--------------------------------------------------------------------------------------------------------




--------------------------------------- Iteration      1(  24)  ---------------------------------------


    POTLOK:  cpu time   22.9158: real time   22.9460
    SETDIJ:  cpu time    0.0668: real time    0.0668
     EDDAV:  cpu time    6.2734: real time    6.2829
       DOS:  cpu time    0.0022: real time    0.0022
    CHARGE:  cpu time    3.1466: real time    3.1507
    MIXING:  cpu time    1.0255: real time    1.0271
    --------------------------------------------
      LOOP:  cpu time   33.4303: real time   33.4757

 eigenvalue-minimisations  :    16
 total energy-change (2. order) :-0.4351223E-05  (-0.1056023E-07)
 number of electron      15.9999999 magnetization 
 augmentation part        1.3880415 magnetization 

 Broyden mixing:
  rms(total) = 0.24522E-04    rms(broyden)= 0.24522E-04
  rms(prec ) = 0.25694E-04
  weight for this iteration     100.00

 eigenvalues of (default mixing * dielectric matrix)
  average eigenvalue GAMMA=   2.3705
  9.4826  6.8320  4.9555  3.5135  2.5318  2.5318  2.3134  1.7130  1.2505  1.2505
  1.1887  0.9448  0.9448  1.0002  1.0002  0.9327  0.9327  0.8606  0.8606

 Free energy of the ion-electron system (eV)
  ---------------------------------------------------
  alpha Z        PSCENC =         0.02092140
  Ewald energy   TEWEN  =       439.85247860
  -Hartree energ DENC   =     -1230.80955663
  -exchange      EXHF   =         0.00000000
  -V(xc)+E(xc)   XCENC  =        68.21101746
  PAW double counting   =      1101.99316433    -1106.17152154
  entropy T*S    EENTRO =        -0.00000000
  eigenvalues    EBANDS =      -216.24095270
  atomic energy  EATOM  =       914.71016949
  Solvation  Ediel_sol  =         0.00000000
  ---------------------------------------------------
  free energy    TOTEN  =       -28.43427958 eV

  energy without entropy =      -28.43427958  energy(sigma->0) =      -28.43427958


--------------------------------------------------------------------------------------------------------




--------------------------------------- Iteration      1(  25)  ---------------------------------------


    POTLOK:  cpu time   22.9131: real time   22.9432
    SETDIJ:  cpu time    0.0680: real time    0.0680
     EDDAV:  cpu time    6.2380: real time    6.2475
       DOS:  cpu time    0.0050: real time    0.0050
    CHARGE:  cpu time    2.9687: real time    2.9726
    MIXING:  cpu time    1.1226: real time    1.1244
    --------------------------------------------
      LOOP:  cpu time   33.3155: real time   33.3608

 eigenvalue-minimisations  :    16
 total energy-change (2. order) :-0.2844327E-05  (-0.2907631E-08)
 number of electron      15.9999999 magnetization 
 augmentation part        1.3880414 magnetization 

 Broyden mixing:
  rms(total) = 0.35005E-04    rms(broyden)= 0.35005E-04
  rms(prec ) = 0.35975E-04
  weight for this iteration     100.00

 eigenvalues of (default mixing * dielectric matrix)
  average eigenvalue GAMMA=   2.4258
  9.5758  7.1588  5.2782  4.0771  2.9323  2.9323  2.5115  2.1958  1.2074  1.2074
  0.9380  0.9380  1.0579  1.0579  0.9836  0.9836  0.9138  0.9138  0.8580  0.7946

 Free energy of the ion-electron system (eV)
  ---------------------------------------------------
  alpha Z        PSCENC =         0.02092140
  Ewald energy   TEWEN  =       439.85247860
  -Hartree energ DENC   =     -1230.80962597
  -exchange      EXHF   =         0.00000000
  -V(xc)+E(xc)   XCENC  =        68.21100695
  PAW double counting   =      1101.99588726    -1106.17425934
  entropy T*S    EENTRO =        -0.00000000
  eigenvalues    EBANDS =      -216.24086082
  atomic energy  EATOM  =       914.71016949
  Solvation  Ediel_sol  =         0.00000000
  ---------------------------------------------------
  free energy    TOTEN  =       -28.43428243 eV

  energy without entropy =      -28.43428243  energy(sigma->0) =      -28.43428243


--------------------------------------------------------------------------------------------------------




--------------------------------------- Iteration      1(  26)  ---------------------------------------


    POTLOK:  cpu time   22.8817: real time   22.9120
    SETDIJ:  cpu time    0.0565: real time    0.0565
     EDDAV:  cpu time    6.2359: real time    6.2452
       DOS:  cpu time    0.0056: real time    0.0056
    CHARGE:  cpu time    3.0122: real time    3.0163
    MIXING:  cpu time    1.1066: real time    1.1083
    --------------------------------------------
      LOOP:  cpu time   33.2985: real time   33.3440

 eigenvalue-minimisations  :    16
 total energy-change (2. order) :-0.2543293E-05  (-0.2220210E-08)
 number of electron      15.9999999 magnetization 
 augmentation part        1.3880438 magnetization 

 Broyden mixing:
  rms(total) = 0.36771E-04    rms(broyden)= 0.36771E-04
  rms(prec ) = 0.37670E-04
  weight for this iteration     100.00

 eigenvalues of (default mixing * dielectric matrix)
  average eigenvalue GAMMA=   2.3872
  9.6010  7.3233  5.4658  4.1693  3.0398  2.7127  2.5505  2.1974  1.2239  1.2239
  1.1404  1.1404  1.0445  1.0445  0.9817  0.9817  0.9194  0.9194  0.8554  0.7977
  0.7977

 Free energy of the ion-electron system (eV)
  ---------------------------------------------------
  alpha Z        PSCENC =         0.02092140
  Ewald energy   TEWEN  =       439.85247860
  -Hartree energ DENC   =     -1230.80916579
  -exchange      EXHF   =         0.00000000
  -V(xc)+E(xc)   XCENC  =        68.21097674
  PAW double counting   =      1101.99634556    -1106.17472138
  entropy T*S    EENTRO =        -0.00000000
  eigenvalues    EBANDS =      -216.24128959
  atomic energy  EATOM  =       914.71016949
  Solvation  Ediel_sol  =         0.00000000
  ---------------------------------------------------
  free energy    TOTEN  =       -28.43428497 eV

  energy without entropy =      -28.43428497  energy(sigma->0) =      -28.43428497


--------------------------------------------------------------------------------------------------------




--------------------------------------- Iteration      1(  27)  ---------------------------------------


    POTLOK:  cpu time   22.8929: real time   22.9264
    SETDIJ:  cpu time    0.0674: real time    0.0674
     EDDAV:  cpu time    8.0644: real time    8.0786
       DOS:  cpu time    0.0059: real time    0.0059
    CHARGE:  cpu time    2.9682: real time    2.9723
    MIXING:  cpu time    1.2096: real time    1.2115
    --------------------------------------------
      LOOP:  cpu time   35.2084: real time   35.2620

 eigenvalue-minimisations  :    24
 total energy-change (2. order) :-0.5269483E-06  (-0.1858536E-08)
 number of electron      15.9999999 magnetization 
 augmentation part        1.3880437 magnetization 

 Broyden mixing:
  rms(total) = 0.13506E-04    rms(broyden)= 0.13506E-04
  rms(prec ) = 0.13937E-04
  weight for this iteration     100.00

 eigenvalues of (default mixing * dielectric matrix)
  average eigenvalue GAMMA=   2.3522
  9.6019  7.4243  5.5532  4.2053  3.1422  2.6233  2.6233  2.2160  1.2674  1.2674
  1.2645  1.2645  0.9226  0.9226  0.9767  0.9767  1.0644  1.0295  0.8959  0.8959
  0.8550  0.7563

 Free energy of the ion-electron system (eV)
  ---------------------------------------------------
  alpha Z        PSCENC =         0.02092140
  Ewald energy   TEWEN  =       439.85247860
  -Hartree energ DENC   =     -1230.80953881
  -exchange      EXHF   =         0.00000000
  -V(xc)+E(xc)   XCENC  =        68.21099577
  PAW double counting   =      1101.99558575    -1106.17395686
  entropy T*S    EENTRO =        -0.00000000
  eigenvalues    EBANDS =      -216.24094084
  atomic energy  EATOM  =       914.71016949
  Solvation  Ediel_sol  =         0.00000000
  ---------------------------------------------------
  free energy    TOTEN  =       -28.43428550 eV

  energy without entropy =      -28.43428550  energy(sigma->0) =      -28.43428550


--------------------------------------------------------------------------------------------------------




--------------------------------------- Iteration      1(  28)  ---------------------------------------


    POTLOK:  cpu time   22.8690: real time   22.8994
    SETDIJ:  cpu time    0.0721: real time    0.0721
     EDDAV:  cpu time    6.2931: real time    6.3027
       DOS:  cpu time    0.0045: real time    0.0045
    CHARGE:  cpu time    3.0453: real time    3.0494
    MIXING:  cpu time    1.2512: real time    1.2530
    --------------------------------------------
      LOOP:  cpu time   33.5351: real time   33.5810

 eigenvalue-minimisations  :    16
 total energy-change (2. order) :-0.5457832E-06  (-0.2582331E-08)
 number of electron      15.9999999 magnetization 
 augmentation part        1.3880409 magnetization 

 Broyden mixing:
  rms(total) = 0.14010E-04    rms(broyden)= 0.14010E-04
  rms(prec ) = 0.14333E-04
  weight for this iteration     100.00

 eigenvalues of (default mixing * dielectric matrix)
  average eigenvalue GAMMA=   2.3789
  9.6355  7.6191  5.8277  4.4194  3.4800  2.7676  2.6110  2.2608  1.7390  1.2660
  1.2660  1.2833  1.2833  1.2057  1.0327  0.9823  0.9823  0.9226  0.9226  0.8561
  0.8173  0.8173  0.7165

 Free energy of the ion-electron system (eV)
  ---------------------------------------------------
  alpha Z        PSCENC =         0.02092140
  Ewald energy   TEWEN  =       439.85247860
  -Hartree energ DENC   =     -1230.80997115
  -exchange      EXHF   =         0.00000000
  -V(xc)+E(xc)   XCENC  =        68.21101829
  PAW double counting   =      1101.99611746    -1106.17449157
  entropy T*S    EENTRO =        -0.00000000
  eigenvalues    EBANDS =      -216.24052857
  atomic energy  EATOM  =       914.71016949
  Solvation  Ediel_sol  =         0.00000000
  ---------------------------------------------------
  free energy    TOTEN  =       -28.43428604 eV

  energy without entropy =      -28.43428604  energy(sigma->0) =      -28.43428604


--------------------------------------------------------------------------------------------------------




--------------------------------------- Iteration      1(  29)  ---------------------------------------


    POTLOK:  cpu time   22.8539: real time   22.8892
    SETDIJ:  cpu time    0.0701: real time    0.0701
     EDDAV:  cpu time    6.2615: real time    6.2717
       DOS:  cpu time    0.0044: real time    0.0044
    CHARGE:  cpu time    3.0010: real time    3.0052
    MIXING:  cpu time    1.3154: real time    1.3174
    --------------------------------------------
      LOOP:  cpu time   33.5063: real time   33.5580

 eigenvalue-minimisations  :    16
 total energy-change (2. order) :-0.4700487E-06  (-0.1122109E-08)
 number of electron      15.9999999 magnetization 
 augmentation part        1.3880408 magnetization 

 Broyden mixing:
  rms(total) = 0.11485E-04    rms(broyden)= 0.11485E-04
  rms(prec ) = 0.11757E-04
  weight for this iteration     100.00

 eigenvalues of (default mixing * dielectric matrix)
  average eigenvalue GAMMA=   2.3387
  9.6618  7.7129  5.9067  4.5035  3.4407  2.7311  2.4138  2.4138  2.2302  1.2790
  1.2790  1.3196  1.3196  1.1199  1.0297  0.9912  0.9912  0.9122  0.9122  0.8590
  0.8267  0.8267  0.7238  0.7238

 Free energy of the ion-electron system (eV)
  ---------------------------------------------------
  alpha Z        PSCENC =         0.02092140
  Ewald energy   TEWEN  =       439.85247860
  -Hartree energ DENC   =     -1230.81004178
  -exchange      EXHF   =         0.00000000
  -V(xc)+E(xc)   XCENC  =        68.21102169
  PAW double counting   =      1101.99656412    -1106.17493939
  entropy T*S    EENTRO =        -0.00000000
  eigenvalues    EBANDS =      -216.24046065
  atomic energy  EATOM  =       914.71016949
  Solvation  Ediel_sol  =         0.00000000
  ---------------------------------------------------
  free energy    TOTEN  =       -28.43428651 eV

  energy without entropy =      -28.43428651  energy(sigma->0) =      -28.43428651


--------------------------------------------------------------------------------------------------------




--------------------------------------- Iteration      1(  30)  ---------------------------------------


    POTLOK:  cpu time   22.8262: real time   22.8565
    SETDIJ:  cpu time    0.0684: real time    0.0684
     EDDAV:  cpu time    8.0225: real time    8.0351
       DOS:  cpu time    0.0043: real time    0.0043
    CHARGE:  cpu time    3.0404: real time    3.0444
    MIXING:  cpu time    1.3657: real time    1.3678
    --------------------------------------------
      LOOP:  cpu time   35.3274: real time   35.3766

 eigenvalue-minimisations  :    24
 total energy-change (2. order) :-0.1158319E-06  (-0.8591883E-09)
 number of electron      15.9999999 magnetization 
 augmentation part        1.3880411 magnetization 

 Broyden mixing:
  rms(total) = 0.40539E-05    rms(broyden)= 0.40539E-05
  rms(prec ) = 0.41887E-05
  weight for this iteration     100.00

 eigenvalues of (default mixing * dielectric matrix)
  average eigenvalue GAMMA=   2.3256
  9.6650  7.7905  5.9436  4.5915  3.4250  2.7710  2.4873  2.4873  2.3366  1.4947
  1.4947  1.2730  1.2730  0.9948  0.9948  1.0807  0.9895  0.9895  0.9955  0.9214
  0.9214  0.8531  0.8219  0.8219  0.7228

 Free energy of the ion-electron system (eV)
  ---------------------------------------------------
  alpha Z        PSCENC =         0.02092140
  Ewald energy   TEWEN  =       439.85247860
  -Hartree energ DENC   =     -1230.80994969
  -exchange      EXHF   =         0.00000000
  -V(xc)+E(xc)   XCENC  =        68.21101703
  PAW double counting   =      1101.99588369    -1106.17425711
  entropy T*S    EENTRO =        -0.00000000
  eigenvalues    EBANDS =      -216.24055005
  atomic energy  EATOM  =       914.71016949
  Solvation  Ediel_sol  =         0.00000000
  ---------------------------------------------------
  free energy    TOTEN  =       -28.43428663 eV

  energy without entropy =      -28.43428663  energy(sigma->0) =      -28.43428663


--------------------------------------------------------------------------------------------------------




--------------------------------------- Iteration      1(  31)  ---------------------------------------


    POTLOK:  cpu time   22.9413: real time   22.9927
    SETDIJ:  cpu time    0.1165: real time    0.1165
     EDDAV:  cpu time    6.2642: real time    6.2776
       DOS:  cpu time    0.0027: real time    0.0027
    --------------------------------------------
      LOOP:  cpu time   29.3246: real time   29.3894

 eigenvalue-minimisations  :    16
 total energy-change (2. order) :-0.9092673E-07  (-0.7465619E-09)
 number of electron      15.9999999 magnetization 
 augmentation part        1.3880411 magnetization 

 Free energy of the ion-electron system (eV)
  ---------------------------------------------------
  alpha Z        PSCENC =         0.02092140
  Ewald energy   TEWEN  =       439.85247860
  -Hartree energ DENC   =     -1230.80989939
  -exchange      EXHF   =         0.00000000
  -V(xc)+E(xc)   XCENC  =        68.21101462
  PAW double counting   =      1101.99563163    -1106.17400296
  entropy T*S    EENTRO =        -0.00000000
  eigenvalues    EBANDS =      -216.24060012
  atomic energy  EATOM  =       914.71016949
  Solvation  Ediel_sol  =         0.00000000
  ---------------------------------------------------
  free energy    TOTEN  =       -28.43428672 eV

  energy without entropy =      -28.43428672  energy(sigma->0) =      -28.43428672


--------------------------------------------------------------------------------------------------------




 average (electrostatic) potential at core
  the test charge radii are     0.5201  0.7215
  (the norm of the test charge is              1.0000)
       1 -44.5482       2 -44.5472       3 -44.5468       4 -44.5475       5 -80.3193
       6 -80.3188
 
 
 
 E-fermi :  -6.8560     XC(G=0):  -0.0348     alpha+bet : -0.0061


 k-point     1 :       0.0000    0.0000    0.0000
  band No.  band energies     occupation 
      1     -25.1601      2.00000
      2     -25.1583      2.00000
      3     -12.9150      2.00000
      4     -12.9119      2.00000
      5      -9.0577      2.00000
      6      -8.9698      2.00000
      7      -6.9821      2.00000
      8      -6.9655      2.00000
      9      -0.9016      0.00000
     10      -0.6761      0.00000
     11      -0.0018      0.00000
     12       0.1014      0.00000


--------------------------------------------------------------------------------------------------------


 soft charge-density along one line, spin component            1
         0         1         2         3         4         5         6         7         8         9
 total charge-density along one line
 
 pseudopotential strength for first ion, spin component:            1
 -2.377  -4.105  -0.010  -0.014   0.000
 -4.105  -7.002  -0.019  -0.027   0.001
 -0.010  -0.019  -0.313   0.015  -0.000
 -0.014  -0.027   0.015  -0.303  -0.000
  0.000   0.001  -0.000  -0.000  -0.325
 total augmentation occupancy for first ion, spin component:            1
  3.786  -0.789   0.449   0.601  -0.014
 -0.789   0.220  -0.094  -0.117   0.003
  0.449  -0.094   0.074   0.059  -0.001
  0.601  -0.117   0.059   0.105  -0.001
 -0.014   0.003  -0.001  -0.001   0.044


------------------------ aborting loop because EDIFF is reached ----------------------------------------



 DIPCOR: dipole corrections for dipol
 direction  1 min pos   591, direction  2 min pos   597, direction  3 min pos   524,
 dipolmoment          -0.015128      0.000679      0.019485 electrons x Angstroem
 Tr[quadrupol]         2.875077

 energy correction for charged system         0.000000 eV
 dipol+quadrupol energy correction            0.000000 eV
 added-field ion interaction          0.000000 eV  (added to PSCEN)

 
  *************** adding dipol energy to TOTEN NOW **************** 
    CHARGE:  cpu time    2.9098: real time    2.9138
    FORLOC:  cpu time    1.0104: real time    1.0115
    FORNL :  cpu time    0.2761: real time    0.2765
    STRESS:  cpu time    4.2167: real time    4.2229
    FORCOR:  cpu time   22.2972: real time   22.3252
    FORHAR:  cpu time    6.5310: real time    6.5402
    MIXING:  cpu time    1.4206: real time    1.4228
    OFIELD:  cpu time    0.0000: real time    0.0000

  FORCE on cell =-STRESS in cart. coord.  units (eV):
  Direction    XX          YY          ZZ          XY          YZ          ZX
  --------------------------------------------------------------------------------------
  Alpha Z     0.02092     0.02092     0.02092
  Ewald     -50.09040   295.52030   194.42204     2.38134     1.94116    -3.91406
  Hartree   320.78396   546.33909   363.68668     0.52346     0.19495    -0.68715
  E(xc)     -73.01789   -72.42487   -72.03766     0.00968     0.00803    -0.01574
  Local    -489.32040 -1018.47074  -704.09744    -2.22058    -1.49277     3.43670
  n-local   -61.89975   -62.43900   -60.74242    -0.00860     0.03502    -0.01753
  augment    16.35881    13.49938    11.55230    -0.04661    -0.04105     0.07712
  Kinetic   337.16354   298.71732   268.58042    -0.62831    -0.62639     1.09855
  Fock        0.00000     0.00000     0.00000     0.00000     0.00000     0.00000
  -------------------------------------------------------------------------------------
  Total      -0.00120     0.76241     1.38483     0.01038     0.01894    -0.02210
  in kB      -0.00004     0.02849     0.05175     0.00039     0.00071    -0.00083
  external pressure =        0.03 kB  Pullay stress =        0.00 kB


 VOLUME and BASIS-vectors are now :
 -----------------------------------------------------------------------------
  energy-cutoff  :     1600.00
  volume of cell :    42875.00
      direct lattice vectors                 reciprocal lattice vectors
    35.000000000  0.000000000  0.000000000     0.028571429  0.000000000  0.000000000
     0.000000000 35.000000000  0.000000000     0.000000000  0.028571429  0.000000000
     0.000000000  0.000000000 35.000000000     0.000000000  0.000000000  0.028571429

  length of vectors
    35.000000000 35.000000000 35.000000000     0.028571429  0.028571429  0.028571429


 FORCES acting on ions
    electron-ion (+dipol)            ewald-force                    non-local-force                 convergence-correction
 -----------------------------------------------------------------------------------------------
   -.168E+01 0.564E+02 0.736E+02   0.185E+01 -.617E+02 -.810E+02   -.161E+00 0.503E+01 0.701E+01   -.438E-06 0.152E-04 0.167E-04
   0.131E+01 0.572E+02 -.730E+02   -.145E+01 -.626E+02 0.804E+02   0.125E+00 0.511E+01 -.695E+01   0.245E-06 0.152E-04 -.165E-04
   -.271E+01 -.534E+02 0.757E+02   0.298E+01 0.583E+02 -.834E+02   -.260E+00 -.473E+01 0.721E+01   0.455E-06 0.818E-05 -.917E-05
   -.116E+01 -.601E+02 -.707E+02   0.127E+01 0.658E+02 0.779E+02   -.112E+00 -.540E+01 -.673E+01   0.267E-06 0.905E-05 0.834E-05
   0.263E+00 -.262E+02 -.431E+00   -.446E+00 0.769E+02 0.730E+00   0.182E+00 -.501E+02 -.298E+00   -.121E-05 0.308E-04 -.273E-05
   0.238E+01 0.261E+02 -.304E+01   -.422E+01 -.767E+02 0.541E+01   0.182E+01 0.500E+02 -.234E+01   0.217E-05 0.253E-04 -.179E-05
 -----------------------------------------------------------------------------------------------
   -.159E+01 0.685E-01 0.210E+01   -.888E-15 -.142E-13 0.222E-13   0.159E+01 -.687E-01 -.210E+01   0.149E-05 0.104E-03 -.521E-05
 
 
 POSITION                                       TOTAL-FORCE (eV/Angst)
 -----------------------------------------------------------------------------------
      0.01761      0.64046     34.23865         0.010191     -0.272084     -0.458832
     34.98662      0.63163      0.75455        -0.008593     -0.275901      0.456690
      0.02970      5.88138     34.21499         0.015245      0.250176     -0.470563
      0.01365      5.95327      0.72944         0.005621      0.296603      0.443949
      0.00000      1.22721      0.00000        -0.001415      0.519593      0.001037
      0.00000      5.32721      0.00000        -0.021049     -0.518386      0.027720
 -----------------------------------------------------------------------------------
    total drift:                               -0.000002     -0.000049     -0.000000


--------------------------------------------------------------------------------------------------------



  FREE ENERGIE OF THE ION-ELECTRON SYSTEM (eV)
  ---------------------------------------------------
  free  energy   TOTEN  =       -28.43428629 eV

  energy  without entropy=      -28.43428629  energy(sigma->0) =      -28.43428629
 


--------------------------------------------------------------------------------------------------------


    POTLOK:  cpu time   22.9474: real time   22.9804


--------------------------------------------------------------------------------------------------------


 writing wavefunctions
     LOOP+:  cpu time 1811.1445: real time 1814.5674
    4ORBIT:  cpu time    0.0000: real time    0.0000

 total amount of memory used by VASP MPI-rank0  3455162. kBytes
=======================================================================

   base      :      30000. kBytes
   nonl-proj :      87230. kBytes
   fftplans  :    1215227. kBytes
   grid      :    2104012. kBytes
   one-center:          1. kBytes
   wavefun   :      18692. kBytes
 
  
  
 General timing and accounting informations for this job:
 ========================================================
  
                  Total CPU time used (sec):     2632.285
                            User time (sec):     2541.241
                          System time (sec):       91.044
                         Elapsed time (sec):     2640.407
  
                   Maximum memory used (kb):     4298168.
                   Average memory used (kb):           0.
  
                          Minor page faults:     54052374
                          Major page faults:          115
                 Voluntary context switches:         4673
