 vasp.6.1.2 22Jul20 (build Jan  6 2021 09:55:43) gamma-only                      
 executed on             LinuxPGI date 2021.03.08  22:25:47
 running on   32 total cores
 distrk:  each k-point on   32 cores,    1 groups
 distr:  one band on NCORE=   8 cores,    4 groups


--------------------------------------------------------------------------------------------------------


 INCAR:
 POTCAR:    PAW_PBE H 15Jun2001                   
 POTCAR:    PAW_PBE O 08Apr2002                   
 POTCAR:    PAW_PBE H 15Jun2001                   
   VRHFIN =H: ultrasoft test                                                                        
   LEXCH  = PE                                                                                      
   EATOM  =    12.4884 eV,    0.9179 Ry                                                             
                                                                                                    
   TITEL  = PAW_PBE H 15Jun2001                                                                     
   LULTRA =        F    use ultrasoft PP ?                                                          
   IUNSCR =        0    unscreen: 0-lin 1-nonlin 2-no                                               
   RPACOR =    0.000    partial core radius                                                         
   POMASS =    1.000; ZVAL   =    1.000    mass and valenz                                          
   RCORE  =    1.100    outmost cutoff radius                                                       
   RWIGS  =    0.700; RWIGS  =    0.370    wigner-seitz radius (au A)                               
   ENMAX  =  250.000; ENMIN  =  200.000 eV                                                          
   RCLOC  =    0.701    cutoff for local pot                                                        
   LCOR   =        T    correct aug charges                                                         
   LPAW   =        T    paw PP                                                                      
   EAUG   =  400.000                                                                                
   RMAX   =    1.123    core radius for proj-oper                                                   
   RAUG   =    1.200    factor for augmentation sphere                                              
   RDEP   =    1.112    radius for radial grids                                                     
   RDEPT  =    0.926    core radius for aug-charge                                                  
                                                                                                    
   Atomic configuration                                                                             
    2 entries                                                                                       
     n  l   j            E        occ.                                                              
     1  0  0.50        -6.4927   1.0000                                                             
     2  1  0.50        -3.4015   0.0000                                                             
   Description                                                                                      
     l       E           TYP  RCUT    TYP  RCUT                                                     
     0     -6.4927494     23  1.100                                                                 
     0      6.8029130     23  1.100                                                                 
     1     -4.0817478     23  1.100                                                                 
  local pseudopotential read in
  atomic valenz-charges read in
  non local Contribution for L=            0  read in
    real space projection operators read in
  non local Contribution for L=            0  read in
    real space projection operators read in
  non local Contribution for L=            1  read in
    real space projection operators read in
    PAW grid and wavefunctions read in
 
   number of l-projection  operators is LMAX  =            3
   number of lm-projection operators is LMMAX =            5
 
 POTCAR:    PAW_PBE O 08Apr2002                   
   VRHFIN =O: s2p4                                                                                  
   LEXCH  = PE                                                                                      
   EATOM  =   432.3788 eV,   31.7789 Ry                                                             
                                                                                                    
   TITEL  = PAW_PBE O 08Apr2002                                                                     
   LULTRA =        F    use ultrasoft PP ?                                                          
   IUNSCR =        1    unscreen: 0-lin 1-nonlin 2-no                                               
   RPACOR =    1.200    partial core radius                                                         
   POMASS =   16.000; ZVAL   =    6.000    mass and valenz                                          
   RCORE  =    1.520    outmost cutoff radius                                                       
   RWIGS  =    1.550; RWIGS  =    0.820    wigner-seitz radius (au A)                               
   ENMAX  =  400.000; ENMIN  =  300.000 eV                                                          
   ICORE  =        2    local potential                                                             
   LCOR   =        T    correct aug charges                                                         
   LPAW   =        T    paw PP                                                                      
   EAUG   =  605.392                                                                                
   DEXC   =    0.000                                                                                
   RMAX   =    1.553    core radius for proj-oper                                                   
   RAUG   =    1.300    factor for augmentation sphere                                              
   RDEP   =    1.550    radius for radial grids                                                     
   RDEPT  =    1.329    core radius for aug-charge                                                  
                                                                                                    
   Atomic configuration                                                                             
    4 entries                                                                                       
     n  l   j            E        occ.                                                              
     1  0  0.50      -514.6923   2.0000                                                             
     2  0  0.50       -23.9615   2.0000                                                             
     2  1  0.50        -9.0305   4.0000                                                             
     3  2  1.50        -9.5241   0.0000                                                             
   Description                                                                                      
     l       E           TYP  RCUT    TYP  RCUT                                                     
     0    -23.9615318     23  1.200                                                                 
     0     -9.5240782     23  1.200                                                                 
     1     -9.0304911     23  1.520                                                                 
     1      8.1634956     23  1.520                                                                 
     2     -9.5240782      7  1.500                                                                 
  local pseudopotential read in
  partial core-charges read in
  partial kinetic energy density read in
  kinetic energy density of atom read in
  atomic valenz-charges read in
  non local Contribution for L=            0  read in
    real space projection operators read in
  non local Contribution for L=            0  read in
    real space projection operators read in
  non local Contribution for L=            1  read in
    real space projection operators read in
  non local Contribution for L=            1  read in
    real space projection operators read in
    PAW grid and wavefunctions read in
 
   number of l-projection  operators is LMAX  =            4
   number of lm-projection operators is LMMAX =            8
 
  PAW_PBE H 15Jun2001                   :
 energy of atom  1       EATOM=  -12.4884
 kinetic energy error for atom=    0.0000 (will be added to EATOM!!)
  PAW_PBE O 08Apr2002                   :
 energy of atom  2       EATOM= -432.3788
 kinetic energy error for atom=    0.0005 (will be added to EATOM!!)
 
 
 POSCAR:  H  O
  positions in cartesian coordinates
  No initial velocities read in
 exchange correlation table for  LEXCH =        8
   RHO(1)=    0.500       N(1)  =     2000
   RHO(2)=  100.500       N(2)  =     4000
 


--------------------------------------------------------------------------------------------------------


 ion  position               nearest neighbor table
   1  0.001  0.018  0.978-   5 0.96
   2  1.000  0.018  0.022-   5 0.96
   3  0.001  0.099  0.978-   6 0.96
   4  0.000  0.102  0.021-   6 0.96
   5  0.000  0.035  0.000-   1 0.96   2 0.96   6 1.70
   6  0.000  0.084  0.000-   4 0.96   3 0.96   5 1.70
 
  LATTYP: Found a simple cubic cell.
 ALAT       =    35.0000000000
  
  Lattice vectors:
  
 A1 = (  35.0000000000,   0.0000000000,   0.0000000000)
 A2 = (   0.0000000000,  35.0000000000,   0.0000000000)
 A3 = (   0.0000000000,   0.0000000000,  35.0000000000)


Analysis of symmetry for initial positions (statically):
=====================================================================
 Subroutine PRICEL returns:
 Original cell was already a primitive cell.
 

 Routine SETGRP: Setting up the symmetry group for a 
 simple cubic supercell.


 Subroutine GETGRP returns: Found  1 space group operations
 (whereof  1 operations were pure point group operations)
 out of a pool of 48 trial point group operations.


The static configuration has the point symmetry C_1 .


Analysis of symmetry for dynamics (positions and initial velocities):
=====================================================================
 Subroutine PRICEL returns:
 Original cell was already a primitive cell.
 

 Routine SETGRP: Setting up the symmetry group for a 
 simple cubic supercell.


 Subroutine GETGRP returns: Found  1 space group operations
 (whereof  1 operations were pure point group operations)
 out of a pool of 48 trial point group operations.


The dynamic configuration has the point symmetry C_1 .


 Subroutine INISYM returns: Found  1 space group operations
 (whereof  1 operations are pure point group operations),
 and found     1 'primitive' translations


----------------------------------------------------------------------------------------

                                     Primitive cell                                     

  volume of cell :   42875.0000

  direct lattice vectors                    reciprocal lattice vectors
    35.000000000  0.000000000  0.000000000     0.028571429  0.000000000  0.000000000
     0.000000000 35.000000000  0.000000000     0.000000000  0.028571429  0.000000000
     0.000000000  0.000000000 35.000000000     0.000000000  0.000000000  0.028571429

  length of vectors
    35.000000000 35.000000000 35.000000000     0.028571429  0.028571429  0.028571429

  position of ions in fractional coordinates (direct lattice)
     0.000503079  0.018298976  0.978247097
     0.999617776  0.018046666  0.021558586
     0.000848682  0.099467927  0.977571084
     0.000390051  0.101522101  0.020841195
     0.000000000  0.035063029  0.000000000
     0.000000000  0.083634457  0.000000000

  ion indices of the primitive-cell ions
   primitive index   ion index
                 1           1
                 2           2
                 3           3
                 4           4
                 5           5
                 6           6

----------------------------------------------------------------------------------------

 
 
 KPOINTS: automatic mesh                          

Automatic generation of k-mesh.
Space group operators:
 irot       det(A)        alpha          n_x          n_y          n_z        tau_x        tau_y        tau_z
    1     1.000000     0.000000     1.000000     0.000000     0.000000     0.000000     0.000000     0.000000
 
 Subroutine IBZKPT returns following result:
 ===========================================
 
 Found      1 irreducible k-points:
 
 Following reciprocal coordinates:
            Coordinates               Weight
  0.000000  0.000000  0.000000      1.000000
 
 Following cartesian coordinates:
            Coordinates               Weight
  0.000000  0.000000  0.000000      1.000000
 


--------------------------------------------------------------------------------------------------------




 Dimension of arrays:
   k-points           NKPTS =      1   k-points in BZ     NKDIM =      1   number of bands    NBANDS=     12
   number of dos      NEDOS =    301   number of ions     NIONS =      6
   non local maximal  LDIM  =      4   non local SUM 2l+1 LMDIM =      8
   total plane-waves  NPLWV = ******
   max r-space proj   IRMAX =      1   max aug-charges    IRDMAX=  33660
   dimension x,y,z NGX =   480 NGY =  480 NGZ =  480
   dimension x,y,z NGXF=   960 NGYF=  960 NGZF=  960
   support grid    NGXF=   960 NGYF=  960 NGZF=  960
   ions per type =               4   2
   NGX,Y,Z   is equivalent  to a cutoff of  22.80, 22.80, 22.80 a.u.
   NGXF,Y,Z  is equivalent  to a cutoff of  45.60, 45.60, 45.60 a.u.

 SYSTEM =  C                                       
 POSCAR =   H  O                                   

 Startparameter for this run:
   NWRITE =      2    write-flag & timer
   PREC   = acc       normal or accurate (medium, high low for compatibility)
   ISTART =      0    job   : 0-new  1-cont  2-samecut
   ICHARG =      2    charge: 1-file 2-atom 10-const
   ISPIN  =      1    spin polarized calculation?
   LNONCOLLINEAR =      F non collinear calculations
   LSORBIT =      F    spin-orbit coupling
   INIWAV =      1    electr: 0-lowe 1-rand  2-diag
   LASPH  =      T    aspherical Exc in radial PAW
   METAGGA=      F    non-selfconsistent MetaGGA calc.

 Electronic Relaxation 1
   ENCUT  = 1600.0 eV 117.60 Ry   10.84 a.u. 114.15114.15114.15*2*pi/ulx,y,z
   ENINI  = 1600.0     initial cutoff
   ENAUG  =  605.4 eV  augmentation charge cutoff
   NELM   =     60;   NELMIN=  2; NELMDL= -5     # of ELM steps 
   EDIFF  = 0.1E-06   stopping-criterion for ELM
   LREAL  =      F    real-space projection
   NLSPLINE    = F    spline interpolate recip. space projectors
   LCOMPAT=      F    compatible to vasp.4.4
   GGA_COMPAT  = T    GGA compatible to vasp.4.4-vasp.4.6
   LMAXPAW     = -100 max onsite density
   LMAXMIX     =    2 max onsite mixed and CHGCAR
   VOSKOWN=      0    Vosko Wilk Nusair interpolation
   ROPT   =    0.00000   0.00000
 Ionic relaxation
   EDIFFG = 0.1E-05   stopping-criterion for IOM
   NSW    =      0    number of steps for IOM
   NBLOCK =      1;   KBLOCK =      1    inner block; outer block 
   IBRION =     -1    ionic relax: 0-MD 1-quasi-New 2-CG
   NFREE  =      0    steps in history (QN), initial steepest desc. (CG)
   ISIF   =      2    stress and relaxation
   IWAVPR =     10    prediction:  0-non 1-charg 2-wave 3-comb
   ISYM   =      2    0-nonsym 1-usesym 2-fastsym
   LCORR  =      T    Harris-Foulkes like correction to forces

   POTIM  = 0.5000    time-step for ionic-motion
   TEIN   =    0.0    initial temperature
   TEBEG  =    0.0;   TEEND  =   0.0 temperature during run
   SMASS  =  -3.00    Nose mass-parameter (am)
   estimated Nose-frequenzy (Omega)   =  0.10E-29 period in steps = 0.13E+47 mass=  -0.280E-25a.u.
   SCALEE = 1.0000    scale energy and forces
   NPACO  =    256;   APACO  = 16.0  distance and # of slots for P.C.
   PSTRESS=    0.0 pullay stress

  Mass of Ions in am
   POMASS =   1.00 16.00
  Ionic Valenz
   ZVAL   =   1.00  6.00
  Atomic Wigner-Seitz radii
   RWIGS  =  -1.00 -1.00
  virtual crystal weights 
   VCA    =   1.00  1.00
   NELECT =      16.0000    total number of electrons
   NUPDOWN=      -1.0000    fix difference up-down

 DOS related values:
   EMIN   =  10.00;   EMAX   =-10.00  energy-range for DOS
   EFERMI =   0.00
   ISMEAR =     0;   SIGMA  =   0.01  broadening in eV -4-tet -1-fermi 0-gaus

 Electronic relaxation 2 (details)
   IALGO  =     38    algorithm
   LDIAG  =      T    sub-space diagonalisation (order eigenvalues)
   LSUBROT=      F    optimize rotation matrix (better conditioning)
   TURBO    =      0    0=normal 1=particle mesh
   IRESTART =      0    0=no restart 2=restart with 2 vectors
   NREBOOT  =      0    no. of reboots
   NMIN     =      0    reboot dimension
   EREF     =   0.00    reference energy to select bands
   IMIX   =      4    mixing-type and parameters
     AMIX     =   0.40;   BMIX     =  1.00
     AMIX_MAG =   1.60;   BMIX_MAG =  1.00
     AMIN     =   0.10
     WC   =   100.;   INIMIX=   1;  MIXPRE=   1;  MAXMIX= -45

 Intra band minimization:
   WEIMIN = 0.0000     energy-eigenvalue tresh-hold
   EBREAK =  0.21E-08  absolut break condition
   DEPER  =   0.30     relativ break condition  

   TIME   =   0.40     timestep for ELM

  volume/ion in A,a.u.               =    7145.83     48222.46
  Fermi-wavevector in a.u.,A,eV,Ry     =   0.117864  0.222730  0.189010  0.013892
  Thomas-Fermi vector in A             =   0.732055
 
 Write flags
   LWAVE        =      T    write WAVECAR
   LDOWNSAMPLE  =      F    k-point downsampling of WAVECAR
   LCHARG       =      T    write CHGCAR
   LVTOT        =      F    write LOCPOT, total local potential
   LVHAR        =      F    write LOCPOT, Hartree potential only
   LELF         =      F    write electronic localiz. function (ELF)
   LORBIT       =      0    0 simple, 1 ext, 2 COOP (PROOUT), +10 PAW based schemes


 Dipole corrections
   LMONO  =      F    monopole corrections only (constant potential shift)
   LDIPOL =      F    correct potential (dipole corrections)
   IDIPOL =      4    1-x, 2-y, 3-z, 4-all directions 
   EPSILON=  1.0000000 bulk dielectric constant

 Exchange correlation treatment:
   GGA     =    --    GGA type
   LEXCH   =     8    internal setting for exchange type
   VOSKOWN=      0    Vosko Wilk Nusair interpolation
   LHFCALC =     F    Hartree Fock is set to
   LHFONE  =     F    Hartree Fock one center treatment
   AEXX    =    0.0000 exact exchange contribution

 Linear response parameters
   LEPSILON=     F    determine dielectric tensor
   LRPA    =     F    only Hartree local field effects (RPA)
   LNABLA  =     F    use nabla operator in PAW spheres
   LVEL    =     F    velocity operator in full k-point grid
   LINTERFAST=   F  fast interpolation
   KINTER  =     0    interpolate to denser k-point grid
   CSHIFT  =0.1000    complex shift for real part using Kramers Kronig
   OMEGAMAX=  -1.0    maximum frequency
   DEG_THRESHOLD= 0.2000000E-02 threshold for treating states as degnerate
   RTIME   =   -0.100 relaxation time in fs
  (WPLASMAI=    0.000 imaginary part of plasma frequency in eV, 0.658/RTIME)
   DFIELD  = 0.0000000 0.0000000 0.0000000 field for delta impulse in time
 
 Orbital magnetization related:
   ORBITALMAG=     F  switch on orbital magnetization
   LCHIMAG   =     F  perturbation theory with respect to B field
   DQ        =  0.001000  dq finite difference perturbation B field
   LLRAUG    =     F  two centre corrections for induced B field



--------------------------------------------------------------------------------------------------------


 Static calculation
 charge density and potential will be updated during run
 non-spin polarized calculation
 Variant of blocked Davidson
 Davidson routine will perform the subspace rotation
 perform sub-space diagonalisation
    after iterative eigenvector-optimisation
 modified Broyden-mixing scheme, WC =      100.0
 initial mixing is a Kerker type mixing with AMIX =  0.4000 and BMIX =      1.0000
 Hartree-type preconditioning will be used
 using additional bands             4
 reciprocal scheme for non local part
 use partial core corrections
 calculate Harris-corrections to forces 
   (improved forces if not selfconsistent)
 use gradient corrections 
 use of overlap-Matrix (Vanderbilt PP)
 Gauss-broadening in eV      SIGMA  =   0.01


--------------------------------------------------------------------------------------------------------


  energy-cutoff  :     1600.00
  volume of cell :    42875.00
      direct lattice vectors                 reciprocal lattice vectors
    35.000000000  0.000000000  0.000000000     0.028571429  0.000000000  0.000000000
     0.000000000 35.000000000  0.000000000     0.000000000  0.028571429  0.000000000
     0.000000000  0.000000000 35.000000000     0.000000000  0.000000000  0.028571429

  length of vectors
    35.000000000 35.000000000 35.000000000     0.028571429  0.028571429  0.028571429


 
 k-points in units of 2pi/SCALE and weight: automatic mesh                          
   0.00000000  0.00000000  0.00000000       1.000
 
 k-points in reciprocal lattice and weights: automatic mesh                          
   0.00000000  0.00000000  0.00000000       1.000
 
 position of ions in fractional coordinates (direct lattice) 
   0.00050308  0.01829898  0.97824710
   0.99961778  0.01804667  0.02155859
   0.00084868  0.09946793  0.97757108
   0.00039005  0.10152210  0.02084119
   0.00000000  0.03506303  0.00000000
   0.00000000  0.08363446  0.00000000
 
 position of ions in cartesian coordinates  (Angst):
   0.01760775  0.64046416 34.23864840
  34.98662216  0.63163330  0.75455051
   0.02970387  3.48137746 34.21498793
   0.01365177  3.55327352  0.72944182
   0.00000000  1.22720600  0.00000000
   0.00000000  2.92720600  0.00000000
 


--------------------------------------------------------------------------------------------------------


 use parallel FFT for orbitals z direction half grid
 k-point   1 :   0.0000 0.0000 0.0000  plane waves: 3115599

 maximum and minimum number of plane-waves per node :    389462   389421

 maximum number of plane-waves:   3115599
 maximum index in each direction: 
   IXMAX=  114   IYMAX=  114   IZMAX=  114
   IXMIN= -114   IYMIN= -114   IZMIN=    0


 parallel 3D FFT for wavefunctions:
    minimum data exchange during FFTs selected (reduces bandwidth)
 parallel 3D FFT for charge:
    minimum data exchange during FFTs selected (reduces bandwidth)


 total amount of memory used by VASP MPI-rank0  3455162. kBytes
=======================================================================

   base      :      30000. kBytes
   nonl-proj :      87230. kBytes
   fftplans  :    1215227. kBytes
   grid      :    2104012. kBytes
   one-center:          1. kBytes
   wavefun   :      18692. kBytes
 
     INWAV:  cpu time    0.0000: real time    0.0000
 Broyden mixing: mesh for mixing (old mesh)
   NGX =229   NGY =229   NGZ =229
  (NGX  =960   NGY  =960   NGZ  =960)
  gives a total of ****** points

 initial charge density was supplied:
 charge density of overlapping atoms calculated
 number of electron      16.0000000 magnetization 
 keeping initial charge density in first step


--------------------------------------------------------------------------------------------------------


 Maximum index for augmentation-charges          1230 (set IRDMAX)


--------------------------------------------------------------------------------------------------------


 First call to EWALD:  gamma=   0.051
 Maximum number of real-space cells 3x 3x 3
 Maximum number of reciprocal cells 3x 3x 3

    FEWALD:  cpu time    0.0011: real time    0.0010


--------------------------------------- Iteration      1(   1)  ---------------------------------------


    POTLOK:  cpu time   23.5768: real time   23.6094
    SETDIJ:  cpu time    0.0561: real time    0.0585
     EDDAV:  cpu time   11.8909: real time   11.9348
       DOS:  cpu time    0.0035: real time    0.0035
    --------------------------------------------
      LOOP:  cpu time   35.5273: real time   35.6063

 eigenvalue-minimisations  :    40
 total energy-change (2. order) : 0.1364592E+03  (-0.3279453E+03)
 number of electron      16.0000000 magnetization 
 augmentation part       16.0000000 magnetization 

 Free energy of the ion-electron system (eV)
  ---------------------------------------------------
  alpha Z        PSCENC =         0.02092140
  Ewald energy   TEWEN  =       696.29103504
  -Hartree energ DENC   =     -1407.87156908
  -exchange      EXHF   =         0.00000000
  -V(xc)+E(xc)   XCENC  =        65.23116287
  PAW double counting   =       701.63506352     -705.26791599
  entropy T*S    EENTRO =        -0.00000000
  eigenvalues    EBANDS =      -128.28962160
  atomic energy  EATOM  =       914.71016949
  Solvation  Ediel_sol  =         0.00000000
  ---------------------------------------------------
  free energy    TOTEN  =       136.45924567 eV

  energy without entropy =      136.45924567  energy(sigma->0) =      136.45924567


--------------------------------------------------------------------------------------------------------




--------------------------------------- Iteration      1(   2)  ---------------------------------------


     EDDAV:  cpu time   10.0539: real time   10.0711
       DOS:  cpu time    0.0054: real time    0.0054
    --------------------------------------------
      LOOP:  cpu time   10.0593: real time   10.0765

 eigenvalue-minimisations  :    32
 total energy-change (2. order) :-0.7263989E+02  (-0.6432925E+02)
 number of electron      16.0000000 magnetization 
 augmentation part       16.0000000 magnetization 

 Free energy of the ion-electron system (eV)
  ---------------------------------------------------
  alpha Z        PSCENC =         0.02092140
  Ewald energy   TEWEN  =       696.29103504
  -Hartree energ DENC   =     -1407.87156908
  -exchange      EXHF   =         0.00000000
  -V(xc)+E(xc)   XCENC  =        65.23116287
  PAW double counting   =       701.63506352     -705.26791599
  entropy T*S    EENTRO =        -0.00000000
  eigenvalues    EBANDS =      -200.92951345
  atomic energy  EATOM  =       914.71016949
  Solvation  Ediel_sol  =         0.00000000
  ---------------------------------------------------
  free energy    TOTEN  =        63.81935381 eV

  energy without entropy =       63.81935381  energy(sigma->0) =       63.81935381


--------------------------------------------------------------------------------------------------------




--------------------------------------- Iteration      1(   3)  ---------------------------------------


     EDDAV:  cpu time   10.0236: real time   10.0396
       DOS:  cpu time    0.0060: real time    0.0060
    --------------------------------------------
      LOOP:  cpu time   10.0296: real time   10.0457

 eigenvalue-minimisations  :    32
 total energy-change (2. order) :-0.4871346E+02  (-0.4720937E+02)
 number of electron      16.0000000 magnetization 
 augmentation part       16.0000000 magnetization 

 Free energy of the ion-electron system (eV)
  ---------------------------------------------------
  alpha Z        PSCENC =         0.02092140
  Ewald energy   TEWEN  =       696.29103504
  -Hartree energ DENC   =     -1407.87156908
  -exchange      EXHF   =         0.00000000
  -V(xc)+E(xc)   XCENC  =        65.23116287
  PAW double counting   =       701.63506352     -705.26791599
  entropy T*S    EENTRO =        -0.00000000
  eigenvalues    EBANDS =      -249.64297540
  atomic energy  EATOM  =       914.71016949
  Solvation  Ediel_sol  =         0.00000000
  ---------------------------------------------------
  free energy    TOTEN  =        15.10589186 eV

  energy without entropy =       15.10589186  energy(sigma->0) =       15.10589186


--------------------------------------------------------------------------------------------------------




--------------------------------------- Iteration      1(   4)  ---------------------------------------


     EDDAV:  cpu time    9.1163: real time    9.1309
       DOS:  cpu time    0.0021: real time    0.0021
    --------------------------------------------
      LOOP:  cpu time    9.1184: real time    9.1330

 eigenvalue-minimisations  :    28
 total energy-change (2. order) :-0.3880347E+02  (-0.2593160E+02)
 number of electron      16.0000000 magnetization 
 augmentation part       16.0000000 magnetization 

 Free energy of the ion-electron system (eV)
  ---------------------------------------------------
  alpha Z        PSCENC =         0.02092140
  Ewald energy   TEWEN  =       696.29103504
  -Hartree energ DENC   =     -1407.87156908
  -exchange      EXHF   =         0.00000000
  -V(xc)+E(xc)   XCENC  =        65.23116287
  PAW double counting   =       701.63506352     -705.26791599
  entropy T*S    EENTRO =        -0.00000000
  eigenvalues    EBANDS =      -288.44644210
  atomic energy  EATOM  =       914.71016949
  Solvation  Ediel_sol  =         0.00000000
  ---------------------------------------------------
  free energy    TOTEN  =       -23.69757483 eV

  energy without entropy =      -23.69757483  energy(sigma->0) =      -23.69757483


--------------------------------------------------------------------------------------------------------




--------------------------------------- Iteration      1(   5)  ---------------------------------------


     EDDAV:  cpu time    8.2387: real time    8.2518
       DOS:  cpu time    0.0041: real time    0.0041
    CHARGE:  cpu time    3.1122: real time    3.1166
    MIXING:  cpu time    0.6136: real time    0.6173
    --------------------------------------------
      LOOP:  cpu time   11.9686: real time   11.9899

 eigenvalue-minimisations  :    24
 total energy-change (2. order) :-0.5881724E+01  (-0.5867275E+01)
 number of electron      15.9999999 magnetization 
 augmentation part        1.6693588 magnetization 

 Broyden mixing:
  rms(total) = 0.12172E+01    rms(broyden)= 0.12172E+01
  rms(prec ) = 0.12566E+01
  weight for this iteration     100.00

 Free energy of the ion-electron system (eV)
  ---------------------------------------------------
  alpha Z        PSCENC =         0.02092140
  Ewald energy   TEWEN  =       696.29103504
  -Hartree energ DENC   =     -1407.87156908
  -exchange      EXHF   =         0.00000000
  -V(xc)+E(xc)   XCENC  =        65.23116287
  PAW double counting   =       701.63506352     -705.26791599
  entropy T*S    EENTRO =        -0.00000000
  eigenvalues    EBANDS =      -294.32816656
  atomic energy  EATOM  =       914.71016949
  Solvation  Ediel_sol  =         0.00000000
  ---------------------------------------------------
  free energy    TOTEN  =       -29.57929929 eV

  energy without entropy =      -29.57929929  energy(sigma->0) =      -29.57929929


--------------------------------------------------------------------------------------------------------




--------------------------------------- Iteration      1(   6)  ---------------------------------------


    POTLOK:  cpu time   23.4016: real time   23.4342
    SETDIJ:  cpu time    0.0476: real time    0.0476
     EDDAV:  cpu time    9.1581: real time    9.1742
       DOS:  cpu time    0.0013: real time    0.0013
    CHARGE:  cpu time    3.0615: real time    3.0658
    MIXING:  cpu time    0.4601: real time    0.4701
    --------------------------------------------
      LOOP:  cpu time   36.1303: real time   36.1933

 eigenvalue-minimisations  :    28
 total energy-change (2. order) : 0.4194757E+01  (-0.1811793E+01)
 number of electron      15.9999999 magnetization 
 augmentation part        1.3616412 magnetization 

 Broyden mixing:
  rms(total) = 0.46743E+00    rms(broyden)= 0.46743E+00
  rms(prec ) = 0.47474E+00
  weight for this iteration     100.00

 eigenvalues of (default mixing * dielectric matrix)
  average eigenvalue GAMMA=   0.9437
  0.9437

 Free energy of the ion-electron system (eV)
  ---------------------------------------------------
  alpha Z        PSCENC =         0.02092140
  Ewald energy   TEWEN  =       696.29103504
  -Hartree energ DENC   =     -1463.44540962
  -exchange      EXHF   =         0.00000000
  -V(xc)+E(xc)   XCENC  =        67.91849352
  PAW double counting   =       901.43916858     -905.73930441
  entropy T*S    EENTRO =        -0.00000000
  eigenvalues    EBANDS =      -236.57961616
  atomic energy  EATOM  =       914.71016949
  Solvation  Ediel_sol  =         0.00000000
  ---------------------------------------------------
  free energy    TOTEN  =       -25.38454216 eV

  energy without entropy =      -25.38454216  energy(sigma->0) =      -25.38454216


--------------------------------------------------------------------------------------------------------




--------------------------------------- Iteration      1(   7)  ---------------------------------------


    POTLOK:  cpu time   23.4400: real time   23.4729
    SETDIJ:  cpu time    0.0475: real time    0.0476
     EDDAV:  cpu time   10.9345: real time   10.9521
       DOS:  cpu time    0.0037: real time    0.0037
    CHARGE:  cpu time    3.0693: real time    3.0738
    MIXING:  cpu time    0.6354: real time    0.6362
    --------------------------------------------
      LOOP:  cpu time   38.1305: real time   38.1862

 eigenvalue-minimisations  :    36
 total energy-change (2. order) : 0.1508413E+00  (-0.8422830E-01)
 number of electron      15.9999999 magnetization 
 augmentation part        1.3452550 magnetization 

 Broyden mixing:
  rms(total) = 0.30229E+00    rms(broyden)= 0.30229E+00
  rms(prec ) = 0.30678E+00
  weight for this iteration     100.00

 eigenvalues of (default mixing * dielectric matrix)
  average eigenvalue GAMMA=   1.6897
  1.0811  2.2983

 Free energy of the ion-electron system (eV)
  ---------------------------------------------------
  alpha Z        PSCENC =         0.02092140
  Ewald energy   TEWEN  =       696.29103504
  -Hartree energ DENC   =     -1471.71600444
  -exchange      EXHF   =         0.00000000
  -V(xc)+E(xc)   XCENC  =        68.29622641
  PAW double counting   =       991.19483773     -995.31914764
  entropy T*S    EENTRO =        -0.00000000
  eigenvalues    EBANDS =      -228.71173881
  atomic energy  EATOM  =       914.71016949
  Solvation  Ediel_sol  =         0.00000000
  ---------------------------------------------------
  free energy    TOTEN  =       -25.23370082 eV

  energy without entropy =      -25.23370082  energy(sigma->0) =      -25.23370082


--------------------------------------------------------------------------------------------------------




--------------------------------------- Iteration      1(   8)  ---------------------------------------


    POTLOK:  cpu time   23.3951: real time   23.4279
    SETDIJ:  cpu time    0.0535: real time    0.0535
     EDDAV:  cpu time   10.0541: real time   10.0702
       DOS:  cpu time    0.0001: real time    0.0001
    CHARGE:  cpu time    3.0203: real time    3.0246
    MIXING:  cpu time    0.7236: real time    0.7245
    --------------------------------------------
      LOOP:  cpu time   37.2468: real time   37.3009

 eigenvalue-minimisations  :    32
 total energy-change (2. order) : 0.1531386E+00  (-0.2972601E-01)
 number of electron      15.9999999 magnetization 
 augmentation part        1.3697428 magnetization 

 Broyden mixing:
  rms(total) = 0.70398E-01    rms(broyden)= 0.70397E-01
  rms(prec ) = 0.74431E-01
  weight for this iteration     100.00

 eigenvalues of (default mixing * dielectric matrix)
  average eigenvalue GAMMA=   1.4353
  2.3864  0.9597  0.9597

 Free energy of the ion-electron system (eV)
  ---------------------------------------------------
  alpha Z        PSCENC =         0.02092140
  Ewald energy   TEWEN  =       696.29103504
  -Hartree energ DENC   =     -1479.63493493
  -exchange      EXHF   =         0.00000000
  -V(xc)+E(xc)   XCENC  =        68.68707209
  PAW double counting   =      1120.24885188    -1124.11643686
  entropy T*S    EENTRO =        -0.00000000
  eigenvalues    EBANDS =      -221.28724029
  atomic energy  EATOM  =       914.71016949
  Solvation  Ediel_sol  =         0.00000000
  ---------------------------------------------------
  free energy    TOTEN  =       -25.08056219 eV

  energy without entropy =      -25.08056219  energy(sigma->0) =      -25.08056219


--------------------------------------------------------------------------------------------------------




--------------------------------------- Iteration      1(   9)  ---------------------------------------


    POTLOK:  cpu time   23.4678: real time   23.5014
    SETDIJ:  cpu time    0.0522: real time    0.0523
     EDDAV:  cpu time   11.9046: real time   11.9258
       DOS:  cpu time    0.0024: real time    0.0024
    CHARGE:  cpu time    3.0872: real time    3.0915
    MIXING:  cpu time    0.6946: real time    0.6955
    --------------------------------------------
      LOOP:  cpu time   39.2089: real time   39.2689

 eigenvalue-minimisations  :    40
 total energy-change (2. order) : 0.1877610E-01  (-0.8327151E-02)
 number of electron      15.9999999 magnetization 
 augmentation part        1.3471742 magnetization 

 Broyden mixing:
  rms(total) = 0.19560E-01    rms(broyden)= 0.19560E-01
  rms(prec ) = 0.22643E-01
  weight for this iteration     100.00

 eigenvalues of (default mixing * dielectric matrix)
  average eigenvalue GAMMA=   1.4351
  2.2578  1.5731  0.9547  0.9547

 Free energy of the ion-electron system (eV)
  ---------------------------------------------------
  alpha Z        PSCENC =         0.02092140
  Ewald energy   TEWEN  =       696.29103504
  -Hartree energ DENC   =     -1483.72349098
  -exchange      EXHF   =         0.00000000
  -V(xc)+E(xc)   XCENC  =        68.85734982
  PAW double counting   =      1128.29148600    -1132.19270687
  entropy T*S    EENTRO =        -0.00000000
  eigenvalues    EBANDS =      -217.31655001
  atomic energy  EATOM  =       914.71016949
  Solvation  Ediel_sol  =         0.00000000
  ---------------------------------------------------
  free energy    TOTEN  =       -25.06178609 eV

  energy without entropy =      -25.06178609  energy(sigma->0) =      -25.06178609


--------------------------------------------------------------------------------------------------------




--------------------------------------- Iteration      1(  10)  ---------------------------------------


    POTLOK:  cpu time   23.4808: real time   23.5156
    SETDIJ:  cpu time    0.0607: real time    0.0607
     EDDAV:  cpu time    9.9893: real time   10.0058
       DOS:  cpu time    0.0040: real time    0.0040
    CHARGE:  cpu time    3.0531: real time    3.0576
    MIXING:  cpu time    0.7268: real time    0.7277
    --------------------------------------------
      LOOP:  cpu time   37.3147: real time   37.3715

 eigenvalue-minimisations  :    32
 total energy-change (2. order) :-0.5662829E-03  (-0.2563363E-03)
 number of electron      15.9999999 magnetization 
 augmentation part        1.3491040 magnetization 

 Broyden mixing:
  rms(total) = 0.94957E-02    rms(broyden)= 0.94957E-02
  rms(prec ) = 0.12450E-01
  weight for this iteration     100.00

 eigenvalues of (default mixing * dielectric matrix)
  average eigenvalue GAMMA=   1.6332
  2.8259  2.5148  0.9272  0.9272  0.9712

 Free energy of the ion-electron system (eV)
  ---------------------------------------------------
  alpha Z        PSCENC =         0.02092140
  Ewald energy   TEWEN  =       696.29103504
  -Hartree energ DENC   =     -1484.81897696
  -exchange      EXHF   =         0.00000000
  -V(xc)+E(xc)   XCENC  =        68.85789233
  PAW double counting   =      1119.92872922    -1123.81123139
  entropy T*S    EENTRO =        -0.00000000
  eigenvalues    EBANDS =      -216.24089151
  atomic energy  EATOM  =       914.71016949
  Solvation  Ediel_sol  =         0.00000000
  ---------------------------------------------------
  free energy    TOTEN  =       -25.06235238 eV

  energy without entropy =      -25.06235238  energy(sigma->0) =      -25.06235238


--------------------------------------------------------------------------------------------------------




--------------------------------------- Iteration      1(  11)  ---------------------------------------


    POTLOK:  cpu time   23.4557: real time   23.4876
    SETDIJ:  cpu time    0.0762: real time    0.0762
     EDDAV:  cpu time   10.9920: real time   11.0098
       DOS:  cpu time    0.0027: real time    0.0027
    CHARGE:  cpu time    2.9965: real time    3.0006
    MIXING:  cpu time    0.8137: real time    0.8163
    --------------------------------------------
      LOOP:  cpu time   38.3369: real time   38.3934

 eigenvalue-minimisations  :    36
 total energy-change (2. order) :-0.1653746E-03  (-0.3214497E-03)
 number of electron      15.9999999 magnetization 
 augmentation part        1.3461709 magnetization 

 Broyden mixing:
  rms(total) = 0.49224E-02    rms(broyden)= 0.49224E-02
  rms(prec ) = 0.66595E-02
  weight for this iteration     100.00

 eigenvalues of (default mixing * dielectric matrix)
  average eigenvalue GAMMA=   1.6770
  3.4004  2.4540  0.9797  0.9797  1.2116  1.0363

 Free energy of the ion-electron system (eV)
  ---------------------------------------------------
  alpha Z        PSCENC =         0.02092140
  Ewald energy   TEWEN  =       696.29103504
  -Hartree energ DENC   =     -1486.74453076
  -exchange      EXHF   =         0.00000000
  -V(xc)+E(xc)   XCENC  =        68.89894131
  PAW double counting   =      1117.97836274    -1121.85506315
  entropy T*S    EENTRO =        -0.00000000
  eigenvalues    EBANDS =      -214.36235383
  atomic energy  EATOM  =       914.71016949
  Solvation  Ediel_sol  =         0.00000000
  ---------------------------------------------------
  free energy    TOTEN  =       -25.06251775 eV

  energy without entropy =      -25.06251775  energy(sigma->0) =      -25.06251775


--------------------------------------------------------------------------------------------------------




--------------------------------------- Iteration      1(  12)  ---------------------------------------


    POTLOK:  cpu time   23.6173: real time   23.6501
    SETDIJ:  cpu time    0.0486: real time    0.0487
     EDDAV:  cpu time   10.9456: real time   10.9633
       DOS:  cpu time    0.0025: real time    0.0025
    CHARGE:  cpu time    3.0318: real time    3.0363
    MIXING:  cpu time    0.6184: real time    0.6194
    --------------------------------------------
      LOOP:  cpu time   38.2644: real time   38.3202

 eigenvalue-minimisations  :    36
 total energy-change (2. order) :-0.3177357E-02  (-0.8242515E-04)
 number of electron      15.9999999 magnetization 
 augmentation part        1.3457797 magnetization 

 Broyden mixing:
  rms(total) = 0.32982E-02    rms(broyden)= 0.32982E-02
  rms(prec ) = 0.44269E-02
  weight for this iteration     100.00

 eigenvalues of (default mixing * dielectric matrix)
  average eigenvalue GAMMA=   1.8442
  3.8466  2.7298  2.2744  1.1767  0.9365  0.9365  1.0087

 Free energy of the ion-electron system (eV)
  ---------------------------------------------------
  alpha Z        PSCENC =         0.02092140
  Ewald energy   TEWEN  =       696.29103504
  -Hartree energ DENC   =     -1487.54029508
  -exchange      EXHF   =         0.00000000
  -V(xc)+E(xc)   XCENC  =        68.90769575
  PAW double counting   =      1117.79737972    -1121.67554392
  entropy T*S    EENTRO =        -0.00000000
  eigenvalues    EBANDS =      -213.57705752
  atomic energy  EATOM  =       914.71016949
  Solvation  Ediel_sol  =         0.00000000
  ---------------------------------------------------
  free energy    TOTEN  =       -25.06569511 eV

  energy without entropy =      -25.06569511  energy(sigma->0) =      -25.06569511


--------------------------------------------------------------------------------------------------------




--------------------------------------- Iteration      1(  13)  ---------------------------------------


    POTLOK:  cpu time   23.6312: real time   23.6638
    SETDIJ:  cpu time    0.0496: real time    0.0496
     EDDAV:  cpu time    9.1210: real time    9.1356
       DOS:  cpu time    0.0027: real time    0.0027
    CHARGE:  cpu time    3.0981: real time    3.1025
    MIXING:  cpu time    0.7997: real time    0.8009
    --------------------------------------------
      LOOP:  cpu time   36.7022: real time   36.7550

 eigenvalue-minimisations  :    28
 total energy-change (2. order) :-0.4351676E-02  (-0.8269702E-04)
 number of electron      15.9999999 magnetization 
 augmentation part        1.3461200 magnetization 

 Broyden mixing:
  rms(total) = 0.14932E-02    rms(broyden)= 0.14932E-02
  rms(prec ) = 0.21616E-02
  weight for this iteration     100.00

 eigenvalues of (default mixing * dielectric matrix)
  average eigenvalue GAMMA=   1.9513
  5.0706  2.9552  2.4454  1.1719  1.1719  0.9415  0.9415  0.9121

 Free energy of the ion-electron system (eV)
  ---------------------------------------------------
  alpha Z        PSCENC =         0.02092140
  Ewald energy   TEWEN  =       696.29103504
  -Hartree energ DENC   =     -1488.05982465
  -exchange      EXHF   =         0.00000000
  -V(xc)+E(xc)   XCENC  =        68.90636085
  PAW double counting   =      1118.31395790    -1122.19538496
  entropy T*S    EENTRO =        -0.00000000
  eigenvalues    EBANDS =      -213.05728186
  atomic energy  EATOM  =       914.71016949
  Solvation  Ediel_sol  =         0.00000000
  ---------------------------------------------------
  free energy    TOTEN  =       -25.07004679 eV

  energy without entropy =      -25.07004679  energy(sigma->0) =      -25.07004679


--------------------------------------------------------------------------------------------------------




--------------------------------------- Iteration      1(  14)  ---------------------------------------


    POTLOK:  cpu time   23.5773: real time   23.6098
    SETDIJ:  cpu time    0.0485: real time    0.0485
     EDDAV:  cpu time   10.9357: real time   10.9544
       DOS:  cpu time    0.0002: real time    0.0002
    CHARGE:  cpu time    2.9902: real time    2.9943
    MIXING:  cpu time    0.8712: real time    0.8724
    --------------------------------------------
      LOOP:  cpu time   38.4230: real time   38.4797

 eigenvalue-minimisations  :    36
 total energy-change (2. order) :-0.1686735E-02  (-0.4066371E-04)
 number of electron      15.9999999 magnetization 
 augmentation part        1.3456417 magnetization 

 Broyden mixing:
  rms(total) = 0.13333E-02    rms(broyden)= 0.13333E-02
  rms(prec ) = 0.16693E-02
  weight for this iteration     100.00

 eigenvalues of (default mixing * dielectric matrix)
  average eigenvalue GAMMA=   1.9626
  5.5293  3.0316  2.3252  1.5019  1.5019  0.9285  0.9285  0.9582  0.9582

 Free energy of the ion-electron system (eV)
  ---------------------------------------------------
  alpha Z        PSCENC =         0.02092140
  Ewald energy   TEWEN  =       696.29103504
  -Hartree energ DENC   =     -1488.37049604
  -exchange      EXHF   =         0.00000000
  -V(xc)+E(xc)   XCENC  =        68.90921243
  PAW double counting   =      1118.59548411    -1122.47723057
  entropy T*S    EENTRO =        -0.00000000
  eigenvalues    EBANDS =      -212.75082939
  atomic energy  EATOM  =       914.71016949
  Solvation  Ediel_sol  =         0.00000000
  ---------------------------------------------------
  free energy    TOTEN  =       -25.07173352 eV

  energy without entropy =      -25.07173352  energy(sigma->0) =      -25.07173352


--------------------------------------------------------------------------------------------------------




--------------------------------------- Iteration      1(  15)  ---------------------------------------


    POTLOK:  cpu time   23.5634: real time   23.5962
    SETDIJ:  cpu time    0.0519: real time    0.0519
     EDDAV:  cpu time   10.0100: real time   10.0261
       DOS:  cpu time    0.0053: real time    0.0053
    CHARGE:  cpu time    3.0722: real time    3.0766
    MIXING:  cpu time    0.6839: real time    0.6850
    --------------------------------------------
      LOOP:  cpu time   37.3867: real time   37.4411

 eigenvalue-minimisations  :    32
 total energy-change (2. order) :-0.2000392E-02  (-0.1919432E-04)
 number of electron      15.9999999 magnetization 
 augmentation part        1.3458996 magnetization 

 Broyden mixing:
  rms(total) = 0.94109E-03    rms(broyden)= 0.94109E-03
  rms(prec ) = 0.11285E-02
  weight for this iteration     100.00

 eigenvalues of (default mixing * dielectric matrix)
  average eigenvalue GAMMA=   2.1470
  6.5065  3.9727  2.6138  2.4000  1.0677  0.9250  0.9250  0.9055  1.0769  1.0769

 Free energy of the ion-electron system (eV)
  ---------------------------------------------------
  alpha Z        PSCENC =         0.02092140
  Ewald energy   TEWEN  =       696.29103504
  -Hartree energ DENC   =     -1488.39166436
  -exchange      EXHF   =         0.00000000
  -V(xc)+E(xc)   XCENC  =        68.90371668
  PAW double counting   =      1117.92627702    -1121.80561157
  entropy T*S    EENTRO =        -0.00000000
  eigenvalues    EBANDS =      -212.72857762
  atomic energy  EATOM  =       914.71016949
  Solvation  Ediel_sol  =         0.00000000
  ---------------------------------------------------
  free energy    TOTEN  =       -25.07373391 eV

  energy without entropy =      -25.07373391  energy(sigma->0) =      -25.07373391


--------------------------------------------------------------------------------------------------------




--------------------------------------- Iteration      1(  16)  ---------------------------------------


    POTLOK:  cpu time   23.6194: real time   23.6525
    SETDIJ:  cpu time    0.0475: real time    0.0475
     EDDAV:  cpu time   10.9779: real time   10.9958
       DOS:  cpu time    0.0010: real time    0.0010
    CHARGE:  cpu time    3.0734: real time    3.0776
    MIXING:  cpu time    0.8780: real time    0.8792
    --------------------------------------------
      LOOP:  cpu time   38.5972: real time   38.6537

 eigenvalue-minimisations  :    36
 total energy-change (2. order) :-0.1301446E-02  (-0.1615658E-04)
 number of electron      15.9999999 magnetization 
 augmentation part        1.3455862 magnetization 

 Broyden mixing:
  rms(total) = 0.51503E-03    rms(broyden)= 0.51503E-03
  rms(prec ) = 0.61172E-03
  weight for this iteration     100.00

 eigenvalues of (default mixing * dielectric matrix)
  average eigenvalue GAMMA=   2.2127
  6.9807  4.4287  2.5708  2.5708  1.8354  1.0899  1.0899  0.9430  0.9430  0.9439
  0.9439

 Free energy of the ion-electron system (eV)
  ---------------------------------------------------
  alpha Z        PSCENC =         0.02092140
  Ewald energy   TEWEN  =       696.29103504
  -Hartree energ DENC   =     -1488.46543151
  -exchange      EXHF   =         0.00000000
  -V(xc)+E(xc)   XCENC  =        68.90372060
  PAW double counting   =      1118.07246802    -1121.95115777
  entropy T*S    EENTRO =        -0.00000000
  eigenvalues    EBANDS =      -212.65676063
  atomic energy  EATOM  =       914.71016949
  Solvation  Ediel_sol  =         0.00000000
  ---------------------------------------------------
  free energy    TOTEN  =       -25.07503536 eV

  energy without entropy =      -25.07503536  energy(sigma->0) =      -25.07503536


--------------------------------------------------------------------------------------------------------




--------------------------------------- Iteration      1(  17)  ---------------------------------------


    POTLOK:  cpu time   23.5092: real time   23.5423
    SETDIJ:  cpu time    0.0510: real time    0.0511
     EDDAV:  cpu time   11.7596: real time   11.7788
       DOS:  cpu time    0.0032: real time    0.0032
    CHARGE:  cpu time    3.0992: real time    3.1036
    MIXING:  cpu time    0.8103: real time    0.8116
    --------------------------------------------
      LOOP:  cpu time   39.2325: real time   39.2906

 eigenvalue-minimisations  :    40
 total energy-change (2. order) :-0.6347501E-03  (-0.4627540E-05)
 number of electron      15.9999999 magnetization 
 augmentation part        1.3457295 magnetization 

 Broyden mixing:
  rms(total) = 0.24247E-03    rms(broyden)= 0.24247E-03
  rms(prec ) = 0.29371E-03
  weight for this iteration     100.00

 eigenvalues of (default mixing * dielectric matrix)
  average eigenvalue GAMMA=   2.2974
  7.7379  4.9746  3.0604  2.4671  2.4671  1.0874  1.0874  0.9577  0.9497  0.9497
  0.9148  0.9148

 Free energy of the ion-electron system (eV)
  ---------------------------------------------------
  alpha Z        PSCENC =         0.02092140
  Ewald energy   TEWEN  =       696.29103504
  -Hartree energ DENC   =     -1488.44173333
  -exchange      EXHF   =         0.00000000
  -V(xc)+E(xc)   XCENC  =        68.90128483
  PAW double counting   =      1117.91765990    -1121.79666811
  entropy T*S    EENTRO =        -0.00000000
  eigenvalues    EBANDS =      -212.67833933
  atomic energy  EATOM  =       914.71016949
  Solvation  Ediel_sol  =         0.00000000
  ---------------------------------------------------
  free energy    TOTEN  =       -25.07567011 eV

  energy without entropy =      -25.07567011  energy(sigma->0) =      -25.07567011


--------------------------------------------------------------------------------------------------------




--------------------------------------- Iteration      1(  18)  ---------------------------------------


    POTLOK:  cpu time   23.4661: real time   23.5005
    SETDIJ:  cpu time    0.0498: real time    0.0498
     EDDAV:  cpu time   10.1065: real time   10.1257
       DOS:  cpu time    0.0017: real time    0.0017
    CHARGE:  cpu time    3.0414: real time    3.0457
    MIXING:  cpu time    0.8384: real time    0.8397
    --------------------------------------------
      LOOP:  cpu time   37.5038: real time   37.5631

 eigenvalue-minimisations  :    32
 total energy-change (2. order) :-0.2347483E-03  (-0.9579773E-06)
 number of electron      15.9999999 magnetization 
 augmentation part        1.3457203 magnetization 

 Broyden mixing:
  rms(total) = 0.11271E-03    rms(broyden)= 0.11271E-03
  rms(prec ) = 0.14707E-03
  weight for this iteration     100.00

 eigenvalues of (default mixing * dielectric matrix)
  average eigenvalue GAMMA=   2.3581
  8.1263  5.4006  3.2017  2.5339  2.5339  1.9385  1.0811  1.0811  0.9354  0.9354
  0.9131  0.9873  0.9873

 Free energy of the ion-electron system (eV)
  ---------------------------------------------------
  alpha Z        PSCENC =         0.02092140
  Ewald energy   TEWEN  =       696.29103504
  -Hartree energ DENC   =     -1488.45448004
  -exchange      EXHF   =         0.00000000
  -V(xc)+E(xc)   XCENC  =        68.90118901
  PAW double counting   =      1118.00059660    -1121.87991557
  entropy T*S    EENTRO =        -0.00000000
  eigenvalues    EBANDS =      -212.66542079
  atomic energy  EATOM  =       914.71016949
  Solvation  Ediel_sol  =         0.00000000
  ---------------------------------------------------
  free energy    TOTEN  =       -25.07590486 eV

  energy without entropy =      -25.07590486  energy(sigma->0) =      -25.07590486


--------------------------------------------------------------------------------------------------------




--------------------------------------- Iteration      1(  19)  ---------------------------------------


    POTLOK:  cpu time   23.4634: real time   23.4961
    SETDIJ:  cpu time    0.0494: real time    0.0494
     EDDAV:  cpu time   11.8823: real time   11.9068
       DOS:  cpu time    0.0004: real time    0.0004
    CHARGE:  cpu time    3.0651: real time    3.0693
    MIXING:  cpu time    0.8365: real time    0.8380
    --------------------------------------------
      LOOP:  cpu time   39.2971: real time   39.3599

 eigenvalue-minimisations  :    40
 total energy-change (2. order) :-0.1391804E-03  (-0.2787217E-06)
 number of electron      15.9999999 magnetization 
 augmentation part        1.3457089 magnetization 

 Broyden mixing:
  rms(total) = 0.56974E-04    rms(broyden)= 0.56974E-04
  rms(prec ) = 0.74847E-04
  weight for this iteration     100.00

 eigenvalues of (default mixing * dielectric matrix)
  average eigenvalue GAMMA=   2.4047
  8.5621  5.7564  3.7915  2.6157  2.4295  2.4295  1.0879  1.0879  0.9337  0.9337
  1.1117  1.0102  1.0102  0.9065

 Free energy of the ion-electron system (eV)
  ---------------------------------------------------
  alpha Z        PSCENC =         0.02092140
  Ewald energy   TEWEN  =       696.29103504
  -Hartree energ DENC   =     -1488.45750584
  -exchange      EXHF   =         0.00000000
  -V(xc)+E(xc)   XCENC  =        68.90095940
  PAW double counting   =      1118.02882708    -1121.90826137
  entropy T*S    EENTRO =        -0.00000000
  eigenvalues    EBANDS =      -212.66218924
  atomic energy  EATOM  =       914.71016949
  Solvation  Ediel_sol  =         0.00000000
  ---------------------------------------------------
  free energy    TOTEN  =       -25.07604404 eV

  energy without entropy =      -25.07604404  energy(sigma->0) =      -25.07604404


--------------------------------------------------------------------------------------------------------




--------------------------------------- Iteration      1(  20)  ---------------------------------------


    POTLOK:  cpu time   23.4274: real time   23.4599
    SETDIJ:  cpu time    0.0478: real time    0.0478
     EDDAV:  cpu time   10.0939: real time   10.1104
       DOS:  cpu time    0.0069: real time    0.0069
    CHARGE:  cpu time    3.0534: real time    3.0578
    MIXING:  cpu time    1.0091: real time    1.0107
    --------------------------------------------
      LOOP:  cpu time   37.6386: real time   37.6934

 eigenvalue-minimisations  :    32
 total energy-change (2. order) :-0.5513662E-04  (-0.9461860E-07)
 number of electron      15.9999999 magnetization 
 augmentation part        1.3457180 magnetization 

 Broyden mixing:
  rms(total) = 0.41811E-04    rms(broyden)= 0.41811E-04
  rms(prec ) = 0.49978E-04
  weight for this iteration     100.00

 eigenvalues of (default mixing * dielectric matrix)
  average eigenvalue GAMMA=   2.4715
  8.8332  6.2634  4.2194  3.0029  2.5116  2.2394  2.0471  1.0920  1.0920  0.9349
  0.9349  1.0235  0.9721  0.9721  0.9344

 Free energy of the ion-electron system (eV)
  ---------------------------------------------------
  alpha Z        PSCENC =         0.02092140
  Ewald energy   TEWEN  =       696.29103504
  -Hartree energ DENC   =     -1488.45908551
  -exchange      EXHF   =         0.00000000
  -V(xc)+E(xc)   XCENC  =        68.90084718
  PAW double counting   =      1118.01777905    -1121.89718515
  entropy T*S    EENTRO =        -0.00000000
  eigenvalues    EBANDS =      -212.66058067
  atomic energy  EATOM  =       914.71016949
  Solvation  Ediel_sol  =         0.00000000
  ---------------------------------------------------
  free energy    TOTEN  =       -25.07609917 eV

  energy without entropy =      -25.07609917  energy(sigma->0) =      -25.07609917


--------------------------------------------------------------------------------------------------------




--------------------------------------- Iteration      1(  21)  ---------------------------------------


    POTLOK:  cpu time   23.4488: real time   23.4812
    SETDIJ:  cpu time    0.0485: real time    0.0485
     EDDAV:  cpu time   11.8616: real time   11.8807
       DOS:  cpu time    0.0013: real time    0.0013
    CHARGE:  cpu time    3.0855: real time    3.0898
    MIXING:  cpu time    1.0417: real time    1.0433
    --------------------------------------------
      LOOP:  cpu time   39.4874: real time   39.5448

 eigenvalue-minimisations  :    40
 total energy-change (2. order) :-0.2855785E-04  (-0.2714888E-07)
 number of electron      15.9999999 magnetization 
 augmentation part        1.3457069 magnetization 

 Broyden mixing:
  rms(total) = 0.21575E-04    rms(broyden)= 0.21575E-04
  rms(prec ) = 0.25648E-04
  weight for this iteration     100.00

 eigenvalues of (default mixing * dielectric matrix)
  average eigenvalue GAMMA=   2.4820
  9.0097  6.4702  4.4862  3.2079  2.5302  2.5302  2.1343  1.4349  1.0886  1.0886
  0.9347  0.9347  0.9977  0.9977  0.9334  0.9334

 Free energy of the ion-electron system (eV)
  ---------------------------------------------------
  alpha Z        PSCENC =         0.02092140
  Ewald energy   TEWEN  =       696.29103504
  -Hartree energ DENC   =     -1488.46144589
  -exchange      EXHF   =         0.00000000
  -V(xc)+E(xc)   XCENC  =        68.90090640
  PAW double counting   =      1118.02287174    -1121.90226696
  entropy T*S    EENTRO =        -0.00000000
  eigenvalues    EBANDS =      -212.65831896
  atomic energy  EATOM  =       914.71016949
  Solvation  Ediel_sol  =         0.00000000
  ---------------------------------------------------
  free energy    TOTEN  =       -25.07612773 eV

  energy without entropy =      -25.07612773  energy(sigma->0) =      -25.07612773


--------------------------------------------------------------------------------------------------------




--------------------------------------- Iteration      1(  22)  ---------------------------------------


    POTLOK:  cpu time   23.3734: real time   23.4072
    SETDIJ:  cpu time    0.0563: real time    0.0563
     EDDAV:  cpu time    8.2436: real time    8.2569
       DOS:  cpu time    0.0036: real time    0.0036
    CHARGE:  cpu time    3.0677: real time    3.0719
    MIXING:  cpu time    1.0317: real time    1.0333
    --------------------------------------------
      LOOP:  cpu time   35.7764: real time   35.8292

 eigenvalue-minimisations  :    24
 total energy-change (2. order) :-0.1035305E-04  (-0.4626262E-08)
 number of electron      15.9999999 magnetization 
 augmentation part        1.3457124 magnetization 

 Broyden mixing:
  rms(total) = 0.10705E-04    rms(broyden)= 0.10705E-04
  rms(prec ) = 0.13185E-04
  weight for this iteration     100.00

 eigenvalues of (default mixing * dielectric matrix)
  average eigenvalue GAMMA=   2.5003
  9.1795  6.7263  4.9009  3.5053  2.7427  2.3933  2.2878  1.8118  1.0896  1.0896
  0.9352  0.9352  1.0645  0.9153  0.9634  0.9634  1.0007

 Free energy of the ion-electron system (eV)
  ---------------------------------------------------
  alpha Z        PSCENC =         0.02092140
  Ewald energy   TEWEN  =       696.29103504
  -Hartree energ DENC   =     -1488.46081245
  -exchange      EXHF   =         0.00000000
  -V(xc)+E(xc)   XCENC  =        68.90084750
  PAW double counting   =      1118.01090754    -1121.89026191
  entropy T*S    EENTRO =        -0.00000000
  eigenvalues    EBANDS =      -212.65894470
  atomic energy  EATOM  =       914.71016949
  Solvation  Ediel_sol  =         0.00000000
  ---------------------------------------------------
  free energy    TOTEN  =       -25.07613808 eV

  energy without entropy =      -25.07613808  energy(sigma->0) =      -25.07613808


--------------------------------------------------------------------------------------------------------




--------------------------------------- Iteration      1(  23)  ---------------------------------------


    POTLOK:  cpu time   23.3290: real time   23.3614
    SETDIJ:  cpu time    0.0499: real time    0.0499
     EDDAV:  cpu time    6.4308: real time    6.4438
       DOS:  cpu time    0.0023: real time    0.0023
    CHARGE:  cpu time    3.0429: real time    3.0474
    MIXING:  cpu time    1.0496: real time    1.0512
    --------------------------------------------
      LOOP:  cpu time   33.9045: real time   33.9561

 eigenvalue-minimisations  :    16
 total energy-change (2. order) :-0.4688284E-05  (-0.3717945E-08)
 number of electron      15.9999999 magnetization 
 augmentation part        1.3457120 magnetization 

 Broyden mixing:
  rms(total) = 0.71219E-05    rms(broyden)= 0.71219E-05
  rms(prec ) = 0.84160E-05
  weight for this iteration     100.00

 eigenvalues of (default mixing * dielectric matrix)
  average eigenvalue GAMMA=   2.5066
  9.2878  6.9432  5.1523  3.7012  2.8615  2.5257  2.3878  2.0541  1.3094  1.0867
  1.0867  0.9348  0.9348  1.0241  1.0241  0.9106  0.9475  0.9475

 Free energy of the ion-electron system (eV)
  ---------------------------------------------------
  alpha Z        PSCENC =         0.02092140
  Ewald energy   TEWEN  =       696.29103504
  -Hartree energ DENC   =     -1488.46140572
  -exchange      EXHF   =         0.00000000
  -V(xc)+E(xc)   XCENC  =        68.90086632
  PAW double counting   =      1118.01437155    -1121.89372821
  entropy T*S    EENTRO =        -0.00000000
  eigenvalues    EBANDS =      -212.65837265
  atomic energy  EATOM  =       914.71016949
  Solvation  Ediel_sol  =         0.00000000
  ---------------------------------------------------
  free energy    TOTEN  =       -25.07614277 eV

  energy without entropy =      -25.07614277  energy(sigma->0) =      -25.07614277


--------------------------------------------------------------------------------------------------------




--------------------------------------- Iteration      1(  24)  ---------------------------------------


    POTLOK:  cpu time   23.3845: real time   23.4172
    SETDIJ:  cpu time    0.0505: real time    0.0506
     EDDAV:  cpu time    8.2579: real time    8.2713
       DOS:  cpu time    0.0013: real time    0.0013
    CHARGE:  cpu time    3.1288: real time    3.1337
    MIXING:  cpu time    1.0890: real time    1.0908
    --------------------------------------------
      LOOP:  cpu time   35.9120: real time   35.9649

 eigenvalue-minimisations  :    24
 total energy-change (2. order) :-0.2286524E-05  (-0.2528152E-08)
 number of electron      15.9999999 magnetization 
 augmentation part        1.3457107 magnetization 

 Broyden mixing:
  rms(total) = 0.40060E-05    rms(broyden)= 0.40060E-05
  rms(prec ) = 0.47929E-05
  weight for this iteration     100.00

 eigenvalues of (default mixing * dielectric matrix)
  average eigenvalue GAMMA=   2.5321
  9.3748  7.2002  5.4745  4.0687  3.0407  2.5660  2.4202  2.1672  1.8243  1.0879
  1.0879  0.9348  0.9348  1.0824  1.0205  1.0205  0.9034  0.9508  0.9508

 Free energy of the ion-electron system (eV)
  ---------------------------------------------------
  alpha Z        PSCENC =         0.02092140
  Ewald energy   TEWEN  =       696.29103504
  -Hartree energ DENC   =     -1488.46167887
  -exchange      EXHF   =         0.00000000
  -V(xc)+E(xc)   XCENC  =        68.90087459
  PAW double counting   =      1118.01567246    -1121.89504476
  entropy T*S    EENTRO =        -0.00000000
  eigenvalues    EBANDS =      -212.65809442
  atomic energy  EATOM  =       914.71016949
  Solvation  Ediel_sol  =         0.00000000
  ---------------------------------------------------
  free energy    TOTEN  =       -25.07614506 eV

  energy without entropy =      -25.07614506  energy(sigma->0) =      -25.07614506


--------------------------------------------------------------------------------------------------------




--------------------------------------- Iteration      1(  25)  ---------------------------------------


    POTLOK:  cpu time   23.3280: real time   23.3602
    SETDIJ:  cpu time    0.0553: real time    0.0553
     EDDAV:  cpu time    6.4622: real time    6.4731
       DOS:  cpu time    0.0040: real time    0.0040
    CHARGE:  cpu time    3.0909: real time    3.0952
    MIXING:  cpu time    1.1342: real time    1.1360
    --------------------------------------------
      LOOP:  cpu time   34.0746: real time   34.1238

 eigenvalue-minimisations  :    16
 total energy-change (2. order) :-0.1146509E-05  (-0.2206047E-08)
 number of electron      15.9999999 magnetization 
 augmentation part        1.3457111 magnetization 

 Broyden mixing:
  rms(total) = 0.31458E-05    rms(broyden)= 0.31458E-05
  rms(prec ) = 0.34950E-05
  weight for this iteration     100.00

 eigenvalues of (default mixing * dielectric matrix)
  average eigenvalue GAMMA=   2.5287
  9.4189  7.3772  5.6996  4.2974  3.1143  2.7803  2.4836  2.1988  2.1148  1.3030
  1.0869  1.0869  0.9347  0.9347  0.9998  0.9998  0.9119  0.9119  0.9601  0.9601

 Free energy of the ion-electron system (eV)
  ---------------------------------------------------
  alpha Z        PSCENC =         0.02092140
  Ewald energy   TEWEN  =       696.29103504
  -Hartree energ DENC   =     -1488.46157160
  -exchange      EXHF   =         0.00000000
  -V(xc)+E(xc)   XCENC  =        68.90086811
  PAW double counting   =      1118.01596135    -1121.89533514
  entropy T*S    EENTRO =        -0.00000000
  eigenvalues    EBANDS =      -212.65819485
  atomic energy  EATOM  =       914.71016949
  Solvation  Ediel_sol  =         0.00000000
  ---------------------------------------------------
  free energy    TOTEN  =       -25.07614621 eV

  energy without entropy =      -25.07614621  energy(sigma->0) =      -25.07614621


--------------------------------------------------------------------------------------------------------




--------------------------------------- Iteration      1(  26)  ---------------------------------------


    POTLOK:  cpu time   23.3991: real time   23.4317
    SETDIJ:  cpu time    0.0515: real time    0.0515
     EDDAV:  cpu time    8.2457: real time    8.2606
       DOS:  cpu time    0.0022: real time    0.0022
    CHARGE:  cpu time    3.1332: real time    3.1378
    MIXING:  cpu time    1.1764: real time    1.1783
    --------------------------------------------
      LOOP:  cpu time   36.0080: real time   36.0620

 eigenvalue-minimisations  :    24
 total energy-change (2. order) :-0.4944961E-06  (-0.1687113E-08)
 number of electron      15.9999999 magnetization 
 augmentation part        1.3457115 magnetization 

 Broyden mixing:
  rms(total) = 0.19173E-05    rms(broyden)= 0.19173E-05
  rms(prec ) = 0.21199E-05
  weight for this iteration     100.00

 eigenvalues of (default mixing * dielectric matrix)
  average eigenvalue GAMMA=   2.5368
  9.5046  7.5128  5.9229  4.4701  3.4534  2.6279  2.6279  2.4114  1.8870  1.8870
  1.0892  1.0892  1.1855  0.9343  0.9343  1.0131  1.0131  0.9636  0.9636  0.9052
  0.8772

 Free energy of the ion-electron system (eV)
  ---------------------------------------------------
  alpha Z        PSCENC =         0.02092140
  Ewald energy   TEWEN  =       696.29103504
  -Hartree energ DENC   =     -1488.46143531
  -exchange      EXHF   =         0.00000000
  -V(xc)+E(xc)   XCENC  =        68.90086196
  PAW double counting   =      1118.01606844    -1121.89544210
  entropy T*S    EENTRO =        -0.00000000
  eigenvalues    EBANDS =      -212.65832562
  atomic energy  EATOM  =       914.71016949
  Solvation  Ediel_sol  =         0.00000000
  ---------------------------------------------------
  free energy    TOTEN  =       -25.07614670 eV

  energy without entropy =      -25.07614670  energy(sigma->0) =      -25.07614670


--------------------------------------------------------------------------------------------------------




--------------------------------------- Iteration      1(  27)  ---------------------------------------


    POTLOK:  cpu time   23.3463: real time   23.3807
    SETDIJ:  cpu time    0.0559: real time    0.0559
     EDDAV:  cpu time    6.4810: real time    6.4913
       DOS:  cpu time    0.0042: real time    0.0042
    CHARGE:  cpu time    3.1250: real time    3.1294
    MIXING:  cpu time    1.2507: real time    1.2526
    --------------------------------------------
      LOOP:  cpu time   34.2630: real time   34.3141

 eigenvalue-minimisations  :    16
 total energy-change (2. order) :-0.2775269E-06  (-0.1452806E-08)
 number of electron      15.9999999 magnetization 
 augmentation part        1.3457119 magnetization 

 Broyden mixing:
  rms(total) = 0.23848E-05    rms(broyden)= 0.23848E-05
  rms(prec ) = 0.24884E-05
  weight for this iteration     100.00

 eigenvalues of (default mixing * dielectric matrix)
  average eigenvalue GAMMA=   2.5044
  9.5186  7.6658  6.0508  4.6172  3.5571  2.7832  2.5132  2.2813  2.1105  1.9012
  1.4233  1.0892  1.0892  0.9346  0.9346  1.0113  1.0113  0.9609  0.9609  0.9027
  0.8906  0.8906

 Free energy of the ion-electron system (eV)
  ---------------------------------------------------
  alpha Z        PSCENC =         0.02092140
  Ewald energy   TEWEN  =       696.29103504
  -Hartree energ DENC   =     -1488.46143146
  -exchange      EXHF   =         0.00000000
  -V(xc)+E(xc)   XCENC  =        68.90086132
  PAW double counting   =      1118.01573978    -1121.89511253
  entropy T*S    EENTRO =        -0.00000000
  eigenvalues    EBANDS =      -212.65833002
  atomic energy  EATOM  =       914.71016949
  Solvation  Ediel_sol  =         0.00000000
  ---------------------------------------------------
  free energy    TOTEN  =       -25.07614698 eV

  energy without entropy =      -25.07614698  energy(sigma->0) =      -25.07614698


--------------------------------------------------------------------------------------------------------




--------------------------------------- Iteration      1(  28)  ---------------------------------------


    POTLOK:  cpu time   23.3429: real time   23.3744
    SETDIJ:  cpu time    0.0541: real time    0.0541
     EDDAV:  cpu time    8.2090: real time    8.2220
       DOS:  cpu time    0.0036: real time    0.0036
    --------------------------------------------
      LOOP:  cpu time   31.6096: real time   31.6541

 eigenvalue-minimisations  :    24
 total energy-change (2. order) :-0.9153223E-07  (-0.1248239E-08)
 number of electron      15.9999999 magnetization 
 augmentation part        1.3457119 magnetization 

 Free energy of the ion-electron system (eV)
  ---------------------------------------------------
  alpha Z        PSCENC =         0.02092140
  Ewald energy   TEWEN  =       696.29103504
  -Hartree energ DENC   =     -1488.46150811
  -exchange      EXHF   =         0.00000000
  -V(xc)+E(xc)   XCENC  =        68.90086536
  PAW double counting   =      1118.01593003    -1121.89530366
  entropy T*S    EENTRO =        -0.00000000
  eigenvalues    EBANDS =      -212.65825662
  atomic energy  EATOM  =       914.71016949
  Solvation  Ediel_sol  =         0.00000000
  ---------------------------------------------------
  free energy    TOTEN  =       -25.07614707 eV

  energy without entropy =      -25.07614707  energy(sigma->0) =      -25.07614707


--------------------------------------------------------------------------------------------------------




 average (electrostatic) potential at core
  the test charge radii are     0.5201  0.7215
  (the norm of the test charge is              1.0000)
       1 -44.1682       2 -44.1679       3 -44.2061       4 -44.1268       5 -80.1087
       6 -80.1072
 
 
 
 E-fermi :  -4.6111     XC(G=0):  -0.0341     alpha+bet : -0.0061


 k-point     1 :       0.0000    0.0000    0.0000
  band No.  band energies     occupation 
      1     -25.8238      2.00000
      2     -24.3966      2.00000
      3     -13.2830      2.00000
      4     -12.2983      2.00000
      5     -12.1196      2.00000
      6      -7.7863      2.00000
      7      -5.9118      2.00000
      8      -4.7097      2.00000
      9      -1.0318      0.00000
     10      -0.1631      0.00000
     11      -0.0008      0.00000
     12       0.0480      0.00000


--------------------------------------------------------------------------------------------------------


 soft charge-density along one line, spin component            1
         0         1         2         3         4         5         6         7         8         9
 total charge-density along one line
 
 pseudopotential strength for first ion, spin component:            1
 -2.372  -4.095  -0.009  -0.014   0.000
 -4.095  -6.984  -0.018  -0.027   0.001
 -0.009  -0.018  -0.316   0.014  -0.000
 -0.014  -0.027   0.014  -0.304  -0.001
  0.000   0.001  -0.000  -0.001  -0.326
 total augmentation occupancy for first ion, spin component:            1
  3.812  -0.803   0.451   0.597  -0.014
 -0.803   0.227  -0.101  -0.120   0.003
  0.451  -0.101   0.080   0.059  -0.001
  0.597  -0.120   0.059   0.100  -0.001
 -0.014   0.003  -0.001  -0.001   0.044


------------------------ aborting loop because EDIFF is reached ----------------------------------------



 DIPCOR: dipole corrections for dipol
 direction  1 min pos   449, direction  2 min pos   509, direction  3 min pos   480,
 dipolmoment          -0.014506      0.000749      0.015221 electrons x Angstroem
 Tr[quadrupol]         5.671582

 energy correction for charged system         0.000000 eV
 dipol+quadrupol energy correction            0.000000 eV
 added-field ion interaction          0.000000 eV  (added to PSCEN)

 
  *************** adding dipol energy to TOTEN NOW **************** 
    CHARGE:  cpu time    3.0093: real time    3.0138
    FORLOC:  cpu time    1.0059: real time    1.0070
    FORNL :  cpu time    0.2766: real time    0.2770
    STRESS:  cpu time    4.2549: real time    4.2610
    FORCOR:  cpu time   22.6317: real time   22.6606
    FORHAR:  cpu time    6.6827: real time    6.6920
    MIXING:  cpu time    1.3035: real time    1.3056
    OFIELD:  cpu time    0.0000: real time    0.0000

  FORCE on cell =-STRESS in cart. coord.  units (eV):
  Direction    XX          YY          ZZ          XY          YZ          ZX
  --------------------------------------------------------------------------------------
  Alpha Z     0.02092     0.02092     0.02092
  Ewald     -49.74874   537.46669   208.57261     2.86502     1.09862    -4.14172
  Hartree   363.24014   712.88675   412.33459     0.83158    -0.05293    -0.78752
  E(xc)     -73.75041   -72.48823   -72.75578     0.01047     0.00848    -0.01595
  Local    -534.38478 -1419.44303  -767.97795    -2.99722    -0.47406     3.74469
  n-local   -61.11132   -62.04725   -60.11164    -0.00781     0.00857    -0.01596
  augment    15.88982    12.55961    11.11955    -0.04722    -0.03407     0.07673
  Kinetic   339.84390   312.36704   271.13361    -0.60970    -0.42221     1.10252
  Fock        0.00000     0.00000     0.00000     0.00000     0.00000     0.00000
  -------------------------------------------------------------------------------------
  Total      -0.00046    21.32250     2.33590     0.04512     0.13238    -0.03722
  in kB      -0.00002     0.79679     0.08729     0.00169     0.00495    -0.00139
  external pressure =        0.29 kB  Pullay stress =        0.00 kB


 VOLUME and BASIS-vectors are now :
 -----------------------------------------------------------------------------
  energy-cutoff  :     1600.00
  volume of cell :    42875.00
      direct lattice vectors                 reciprocal lattice vectors
    35.000000000  0.000000000  0.000000000     0.028571429  0.000000000  0.000000000
     0.000000000 35.000000000  0.000000000     0.000000000  0.028571429  0.000000000
     0.000000000  0.000000000 35.000000000     0.000000000  0.000000000  0.028571429

  length of vectors
    35.000000000 35.000000000 35.000000000     0.028571429  0.028571429  0.028571429


 FORCES acting on ions
    electron-ion (+dipol)            ewald-force                    non-local-force                 convergence-correction
 -----------------------------------------------------------------------------------------------
   -.177E+01 0.680E+02 0.780E+02   0.194E+01 -.741E+02 -.856E+02   -.157E+00 0.484E+01 0.685E+01   0.168E-06 -.189E-05 -.288E-05
   0.140E+01 0.687E+02 -.773E+02   -.154E+01 -.749E+02 0.849E+02   0.121E+00 0.493E+01 -.679E+01   0.618E-07 -.181E-05 0.273E-05
   -.289E+01 -.652E+02 0.804E+02   0.317E+01 0.709E+02 -.882E+02   -.256E+00 -.458E+01 0.704E+01   0.117E-08 -.280E-05 0.252E-05
   -.123E+01 -.714E+02 -.748E+02   0.136E+01 0.779E+02 0.821E+02   -.111E+00 -.517E+01 -.658E+01   0.542E-07 -.305E-05 -.242E-05
   0.536E+00 0.139E+03 -.911E+00   -.681E+00 -.925E+02 0.130E+01   0.138E+00 -.548E+02 -.439E+00   0.118E-05 0.331E-05 0.151E-05
   0.256E+01 -.139E+03 -.282E+01   -.424E+01 0.927E+02 0.548E+01   0.165E+01 0.547E+02 -.256E+01   0.836E-06 -.296E-06 -.163E-05
 -----------------------------------------------------------------------------------------------
   -.139E+01 0.726E-01 0.248E+01   -.888E-15 0.142E-13 0.799E-14   0.139E+01 -.726E-01 -.248E+01   0.230E-05 -.653E-05 -.179E-06
 
 
 POSITION                                       TOTAL-FORCE (eV/Angst)
 -----------------------------------------------------------------------------------
      0.01761      0.64046     34.23865         0.016759     -1.224169     -0.777190
     34.98662      0.63163      0.75455        -0.019749     -1.198924      0.769172
      0.02970      3.48138     34.21499         0.027380      1.096474     -0.790028
      0.01365      3.55327      0.72944         0.016354      1.323958      0.748445
      0.00000      1.22721      0.00000        -0.007465     -8.433447     -0.052986
      0.00000      2.92721      0.00000        -0.033279      8.436108      0.102587
 -----------------------------------------------------------------------------------
    total drift:                               -0.000002     -0.000003      0.000004


--------------------------------------------------------------------------------------------------------



  FREE ENERGIE OF THE ION-ELECTRON SYSTEM (eV)
  ---------------------------------------------------
  free  energy   TOTEN  =       -25.07614676 eV

  energy  without entropy=      -25.07614676  energy(sigma->0) =      -25.07614676
 


--------------------------------------------------------------------------------------------------------


    POTLOK:  cpu time   23.4041: real time   23.4359


--------------------------------------------------------------------------------------------------------


 writing wavefunctions
     LOOP+:  cpu time 1739.4909: real time 1746.9962
    4ORBIT:  cpu time    0.0000: real time    0.0000

 total amount of memory used by VASP MPI-rank0  3455162. kBytes
=======================================================================

   base      :      30000. kBytes
   nonl-proj :      87230. kBytes
   fftplans  :    1215227. kBytes
   grid      :    2104012. kBytes
   one-center:          1. kBytes
   wavefun   :      18692. kBytes
 
  
  
 General timing and accounting informations for this job:
 ========================================================
  
                  Total CPU time used (sec):     2557.280
                            User time (sec):     2471.509
                          System time (sec):       85.771
                         Elapsed time (sec):     2575.174
  
                   Maximum memory used (kb):     4263272.
                   Average memory used (kb):           0.
  
                          Minor page faults:     49902727
                          Major page faults:          391
                 Voluntary context switches:        12581
