 vasp.6.1.2 22Jul20 (build Jan  6 2021 09:55:43) gamma-only                      
 executed on             LinuxPGI date 2021.03.08  22:50:40
 running on   32 total cores
 distrk:  each k-point on   32 cores,    1 groups
 distr:  one band on NCORE=   8 cores,    4 groups


--------------------------------------------------------------------------------------------------------


 INCAR:
 POTCAR:    PAW_PBE H 15Jun2001                   
 POTCAR:    PAW_PBE O 08Apr2002                   
 POTCAR:    PAW_PBE H 15Jun2001                   
   VRHFIN =H: ultrasoft test                                                                        
   LEXCH  = PE                                                                                      
   EATOM  =    12.4884 eV,    0.9179 Ry                                                             
                                                                                                    
   TITEL  = PAW_PBE H 15Jun2001                                                                     
   LULTRA =        F    use ultrasoft PP ?                                                          
   IUNSCR =        0    unscreen: 0-lin 1-nonlin 2-no                                               
   RPACOR =    0.000    partial core radius                                                         
   POMASS =    1.000; ZVAL   =    1.000    mass and valenz                                          
   RCORE  =    1.100    outmost cutoff radius                                                       
   RWIGS  =    0.700; RWIGS  =    0.370    wigner-seitz radius (au A)                               
   ENMAX  =  250.000; ENMIN  =  200.000 eV                                                          
   RCLOC  =    0.701    cutoff for local pot                                                        
   LCOR   =        T    correct aug charges                                                         
   LPAW   =        T    paw PP                                                                      
   EAUG   =  400.000                                                                                
   RMAX   =    1.123    core radius for proj-oper                                                   
   RAUG   =    1.200    factor for augmentation sphere                                              
   RDEP   =    1.112    radius for radial grids                                                     
   RDEPT  =    0.926    core radius for aug-charge                                                  
                                                                                                    
   Atomic configuration                                                                             
    2 entries                                                                                       
     n  l   j            E        occ.                                                              
     1  0  0.50        -6.4927   1.0000                                                             
     2  1  0.50        -3.4015   0.0000                                                             
   Description                                                                                      
     l       E           TYP  RCUT    TYP  RCUT                                                     
     0     -6.4927494     23  1.100                                                                 
     0      6.8029130     23  1.100                                                                 
     1     -4.0817478     23  1.100                                                                 
  local pseudopotential read in
  atomic valenz-charges read in
  non local Contribution for L=            0  read in
    real space projection operators read in
  non local Contribution for L=            0  read in
    real space projection operators read in
  non local Contribution for L=            1  read in
    real space projection operators read in
    PAW grid and wavefunctions read in
 
   number of l-projection  operators is LMAX  =            3
   number of lm-projection operators is LMMAX =            5
 
 POTCAR:    PAW_PBE O 08Apr2002                   
   VRHFIN =O: s2p4                                                                                  
   LEXCH  = PE                                                                                      
   EATOM  =   432.3788 eV,   31.7789 Ry                                                             
                                                                                                    
   TITEL  = PAW_PBE O 08Apr2002                                                                     
   LULTRA =        F    use ultrasoft PP ?                                                          
   IUNSCR =        1    unscreen: 0-lin 1-nonlin 2-no                                               
   RPACOR =    1.200    partial core radius                                                         
   POMASS =   16.000; ZVAL   =    6.000    mass and valenz                                          
   RCORE  =    1.520    outmost cutoff radius                                                       
   RWIGS  =    1.550; RWIGS  =    0.820    wigner-seitz radius (au A)                               
   ENMAX  =  400.000; ENMIN  =  300.000 eV                                                          
   ICORE  =        2    local potential                                                             
   LCOR   =        T    correct aug charges                                                         
   LPAW   =        T    paw PP                                                                      
   EAUG   =  605.392                                                                                
   DEXC   =    0.000                                                                                
   RMAX   =    1.553    core radius for proj-oper                                                   
   RAUG   =    1.300    factor for augmentation sphere                                              
   RDEP   =    1.550    radius for radial grids                                                     
   RDEPT  =    1.329    core radius for aug-charge                                                  
                                                                                                    
   Atomic configuration                                                                             
    4 entries                                                                                       
     n  l   j            E        occ.                                                              
     1  0  0.50      -514.6923   2.0000                                                             
     2  0  0.50       -23.9615   2.0000                                                             
     2  1  0.50        -9.0305   4.0000                                                             
     3  2  1.50        -9.5241   0.0000                                                             
   Description                                                                                      
     l       E           TYP  RCUT    TYP  RCUT                                                     
     0    -23.9615318     23  1.200                                                                 
     0     -9.5240782     23  1.200                                                                 
     1     -9.0304911     23  1.520                                                                 
     1      8.1634956     23  1.520                                                                 
     2     -9.5240782      7  1.500                                                                 
  local pseudopotential read in
  partial core-charges read in
  partial kinetic energy density read in
  kinetic energy density of atom read in
  atomic valenz-charges read in
  non local Contribution for L=            0  read in
    real space projection operators read in
  non local Contribution for L=            0  read in
    real space projection operators read in
  non local Contribution for L=            1  read in
    real space projection operators read in
  non local Contribution for L=            1  read in
    real space projection operators read in
    PAW grid and wavefunctions read in
 
   number of l-projection  operators is LMAX  =            4
   number of lm-projection operators is LMMAX =            8
 
  PAW_PBE H 15Jun2001                   :
 energy of atom  1       EATOM=  -12.4884
 kinetic energy error for atom=    0.0000 (will be added to EATOM!!)
  PAW_PBE O 08Apr2002                   :
 energy of atom  2       EATOM= -432.3788
 kinetic energy error for atom=    0.0005 (will be added to EATOM!!)
 
 
 POSCAR:  H  O
  positions in cartesian coordinates
  No initial velocities read in
 exchange correlation table for  LEXCH =        8
   RHO(1)=    0.500       N(1)  =     2000
   RHO(2)=  100.500       N(2)  =     4000
 


--------------------------------------------------------------------------------------------------------


 ion  position               nearest neighbor table
   1  0.001  0.018  0.978-   5 0.96
   2  1.000  0.018  0.022-   5 0.96
   3  0.001  0.119  0.978-   6 0.96
   4  0.000  0.122  0.021-   6 0.96
   5  0.000  0.035  0.000-   1 0.96   2 0.96
   6  0.000  0.104  0.000-   4 0.96   3 0.96
 
  LATTYP: Found a simple cubic cell.
 ALAT       =    35.0000000000
  
  Lattice vectors:
  
 A1 = (  35.0000000000,   0.0000000000,   0.0000000000)
 A2 = (   0.0000000000,  35.0000000000,   0.0000000000)
 A3 = (   0.0000000000,   0.0000000000,  35.0000000000)


Analysis of symmetry for initial positions (statically):
=====================================================================
 Subroutine PRICEL returns:
 Original cell was already a primitive cell.
 

 Routine SETGRP: Setting up the symmetry group for a 
 simple cubic supercell.


 Subroutine GETGRP returns: Found  1 space group operations
 (whereof  1 operations were pure point group operations)
 out of a pool of 48 trial point group operations.


The static configuration has the point symmetry C_1 .


Analysis of symmetry for dynamics (positions and initial velocities):
=====================================================================
 Subroutine PRICEL returns:
 Original cell was already a primitive cell.
 

 Routine SETGRP: Setting up the symmetry group for a 
 simple cubic supercell.


 Subroutine GETGRP returns: Found  1 space group operations
 (whereof  1 operations were pure point group operations)
 out of a pool of 48 trial point group operations.


The dynamic configuration has the point symmetry C_1 .


 Subroutine INISYM returns: Found  1 space group operations
 (whereof  1 operations are pure point group operations),
 and found     1 'primitive' translations


----------------------------------------------------------------------------------------

                                     Primitive cell                                     

  volume of cell :   42875.0000

  direct lattice vectors                    reciprocal lattice vectors
    35.000000000  0.000000000  0.000000000     0.028571429  0.000000000  0.000000000
     0.000000000 35.000000000  0.000000000     0.000000000  0.028571429  0.000000000
     0.000000000  0.000000000 35.000000000     0.000000000  0.000000000  0.028571429

  length of vectors
    35.000000000 35.000000000 35.000000000     0.028571429  0.028571429  0.028571429

  position of ions in fractional coordinates (direct lattice)
     0.000503079  0.018298976  0.978247097
     0.999617776  0.018046666  0.021558586
     0.000848682  0.119467927  0.977571084
     0.000390051  0.121522101  0.020841195
     0.000000000  0.035063029  0.000000000
     0.000000000  0.103634457  0.000000000

  ion indices of the primitive-cell ions
   primitive index   ion index
                 1           1
                 2           2
                 3           3
                 4           4
                 5           5
                 6           6

----------------------------------------------------------------------------------------

 
 
 KPOINTS: automatic mesh                          

Automatic generation of k-mesh.
Space group operators:
 irot       det(A)        alpha          n_x          n_y          n_z        tau_x        tau_y        tau_z
    1     1.000000     0.000000     1.000000     0.000000     0.000000     0.000000     0.000000     0.000000
 
 Subroutine IBZKPT returns following result:
 ===========================================
 
 Found      1 irreducible k-points:
 
 Following reciprocal coordinates:
            Coordinates               Weight
  0.000000  0.000000  0.000000      1.000000
 
 Following cartesian coordinates:
            Coordinates               Weight
  0.000000  0.000000  0.000000      1.000000
 


--------------------------------------------------------------------------------------------------------




 Dimension of arrays:
   k-points           NKPTS =      1   k-points in BZ     NKDIM =      1   number of bands    NBANDS=     12
   number of dos      NEDOS =    301   number of ions     NIONS =      6
   non local maximal  LDIM  =      4   non local SUM 2l+1 LMDIM =      8
   total plane-waves  NPLWV = ******
   max r-space proj   IRMAX =      1   max aug-charges    IRDMAX=  33660
   dimension x,y,z NGX =   480 NGY =  480 NGZ =  480
   dimension x,y,z NGXF=   960 NGYF=  960 NGZF=  960
   support grid    NGXF=   960 NGYF=  960 NGZF=  960
   ions per type =               4   2
   NGX,Y,Z   is equivalent  to a cutoff of  22.80, 22.80, 22.80 a.u.
   NGXF,Y,Z  is equivalent  to a cutoff of  45.60, 45.60, 45.60 a.u.

 SYSTEM =  C                                       
 POSCAR =   H  O                                   

 Startparameter for this run:
   NWRITE =      2    write-flag & timer
   PREC   = acc       normal or accurate (medium, high low for compatibility)
   ISTART =      0    job   : 0-new  1-cont  2-samecut
   ICHARG =      2    charge: 1-file 2-atom 10-const
   ISPIN  =      1    spin polarized calculation?
   LNONCOLLINEAR =      F non collinear calculations
   LSORBIT =      F    spin-orbit coupling
   INIWAV =      1    electr: 0-lowe 1-rand  2-diag
   LASPH  =      T    aspherical Exc in radial PAW
   METAGGA=      F    non-selfconsistent MetaGGA calc.

 Electronic Relaxation 1
   ENCUT  = 1600.0 eV 117.60 Ry   10.84 a.u. 114.15114.15114.15*2*pi/ulx,y,z
   ENINI  = 1600.0     initial cutoff
   ENAUG  =  605.4 eV  augmentation charge cutoff
   NELM   =     60;   NELMIN=  2; NELMDL= -5     # of ELM steps 
   EDIFF  = 0.1E-06   stopping-criterion for ELM
   LREAL  =      F    real-space projection
   NLSPLINE    = F    spline interpolate recip. space projectors
   LCOMPAT=      F    compatible to vasp.4.4
   GGA_COMPAT  = T    GGA compatible to vasp.4.4-vasp.4.6
   LMAXPAW     = -100 max onsite density
   LMAXMIX     =    2 max onsite mixed and CHGCAR
   VOSKOWN=      0    Vosko Wilk Nusair interpolation
   ROPT   =    0.00000   0.00000
 Ionic relaxation
   EDIFFG = 0.1E-05   stopping-criterion for IOM
   NSW    =      0    number of steps for IOM
   NBLOCK =      1;   KBLOCK =      1    inner block; outer block 
   IBRION =     -1    ionic relax: 0-MD 1-quasi-New 2-CG
   NFREE  =      0    steps in history (QN), initial steepest desc. (CG)
   ISIF   =      2    stress and relaxation
   IWAVPR =     10    prediction:  0-non 1-charg 2-wave 3-comb
   ISYM   =      2    0-nonsym 1-usesym 2-fastsym
   LCORR  =      T    Harris-Foulkes like correction to forces

   POTIM  = 0.5000    time-step for ionic-motion
   TEIN   =    0.0    initial temperature
   TEBEG  =    0.0;   TEEND  =   0.0 temperature during run
   SMASS  =  -3.00    Nose mass-parameter (am)
   estimated Nose-frequenzy (Omega)   =  0.10E-29 period in steps = 0.13E+47 mass=  -0.280E-25a.u.
   SCALEE = 1.0000    scale energy and forces
   NPACO  =    256;   APACO  = 16.0  distance and # of slots for P.C.
   PSTRESS=    0.0 pullay stress

  Mass of Ions in am
   POMASS =   1.00 16.00
  Ionic Valenz
   ZVAL   =   1.00  6.00
  Atomic Wigner-Seitz radii
   RWIGS  =  -1.00 -1.00
  virtual crystal weights 
   VCA    =   1.00  1.00
   NELECT =      16.0000    total number of electrons
   NUPDOWN=      -1.0000    fix difference up-down

 DOS related values:
   EMIN   =  10.00;   EMAX   =-10.00  energy-range for DOS
   EFERMI =   0.00
   ISMEAR =     0;   SIGMA  =   0.01  broadening in eV -4-tet -1-fermi 0-gaus

 Electronic relaxation 2 (details)
   IALGO  =     38    algorithm
   LDIAG  =      T    sub-space diagonalisation (order eigenvalues)
   LSUBROT=      F    optimize rotation matrix (better conditioning)
   TURBO    =      0    0=normal 1=particle mesh
   IRESTART =      0    0=no restart 2=restart with 2 vectors
   NREBOOT  =      0    no. of reboots
   NMIN     =      0    reboot dimension
   EREF     =   0.00    reference energy to select bands
   IMIX   =      4    mixing-type and parameters
     AMIX     =   0.40;   BMIX     =  1.00
     AMIX_MAG =   1.60;   BMIX_MAG =  1.00
     AMIN     =   0.10
     WC   =   100.;   INIMIX=   1;  MIXPRE=   1;  MAXMIX= -45

 Intra band minimization:
   WEIMIN = 0.0000     energy-eigenvalue tresh-hold
   EBREAK =  0.21E-08  absolut break condition
   DEPER  =   0.30     relativ break condition  

   TIME   =   0.40     timestep for ELM

  volume/ion in A,a.u.               =    7145.83     48222.46
  Fermi-wavevector in a.u.,A,eV,Ry     =   0.117864  0.222730  0.189010  0.013892
  Thomas-Fermi vector in A             =   0.732055
 
 Write flags
   LWAVE        =      T    write WAVECAR
   LDOWNSAMPLE  =      F    k-point downsampling of WAVECAR
   LCHARG       =      T    write CHGCAR
   LVTOT        =      F    write LOCPOT, total local potential
   LVHAR        =      F    write LOCPOT, Hartree potential only
   LELF         =      F    write electronic localiz. function (ELF)
   LORBIT       =      0    0 simple, 1 ext, 2 COOP (PROOUT), +10 PAW based schemes


 Dipole corrections
   LMONO  =      F    monopole corrections only (constant potential shift)
   LDIPOL =      F    correct potential (dipole corrections)
   IDIPOL =      4    1-x, 2-y, 3-z, 4-all directions 
   EPSILON=  1.0000000 bulk dielectric constant

 Exchange correlation treatment:
   GGA     =    --    GGA type
   LEXCH   =     8    internal setting for exchange type
   VOSKOWN=      0    Vosko Wilk Nusair interpolation
   LHFCALC =     F    Hartree Fock is set to
   LHFONE  =     F    Hartree Fock one center treatment
   AEXX    =    0.0000 exact exchange contribution

 Linear response parameters
   LEPSILON=     F    determine dielectric tensor
   LRPA    =     F    only Hartree local field effects (RPA)
   LNABLA  =     F    use nabla operator in PAW spheres
   LVEL    =     F    velocity operator in full k-point grid
   LINTERFAST=   F  fast interpolation
   KINTER  =     0    interpolate to denser k-point grid
   CSHIFT  =0.1000    complex shift for real part using Kramers Kronig
   OMEGAMAX=  -1.0    maximum frequency
   DEG_THRESHOLD= 0.2000000E-02 threshold for treating states as degnerate
   RTIME   =   -0.100 relaxation time in fs
  (WPLASMAI=    0.000 imaginary part of plasma frequency in eV, 0.658/RTIME)
   DFIELD  = 0.0000000 0.0000000 0.0000000 field for delta impulse in time
 
 Orbital magnetization related:
   ORBITALMAG=     F  switch on orbital magnetization
   LCHIMAG   =     F  perturbation theory with respect to B field
   DQ        =  0.001000  dq finite difference perturbation B field
   LLRAUG    =     F  two centre corrections for induced B field



--------------------------------------------------------------------------------------------------------


 Static calculation
 charge density and potential will be updated during run
 non-spin polarized calculation
 Variant of blocked Davidson
 Davidson routine will perform the subspace rotation
 perform sub-space diagonalisation
    after iterative eigenvector-optimisation
 modified Broyden-mixing scheme, WC =      100.0
 initial mixing is a Kerker type mixing with AMIX =  0.4000 and BMIX =      1.0000
 Hartree-type preconditioning will be used
 using additional bands             4
 reciprocal scheme for non local part
 use partial core corrections
 calculate Harris-corrections to forces 
   (improved forces if not selfconsistent)
 use gradient corrections 
 use of overlap-Matrix (Vanderbilt PP)
 Gauss-broadening in eV      SIGMA  =   0.01


--------------------------------------------------------------------------------------------------------


  energy-cutoff  :     1600.00
  volume of cell :    42875.00
      direct lattice vectors                 reciprocal lattice vectors
    35.000000000  0.000000000  0.000000000     0.028571429  0.000000000  0.000000000
     0.000000000 35.000000000  0.000000000     0.000000000  0.028571429  0.000000000
     0.000000000  0.000000000 35.000000000     0.000000000  0.000000000  0.028571429

  length of vectors
    35.000000000 35.000000000 35.000000000     0.028571429  0.028571429  0.028571429


 
 k-points in units of 2pi/SCALE and weight: automatic mesh                          
   0.00000000  0.00000000  0.00000000       1.000
 
 k-points in reciprocal lattice and weights: automatic mesh                          
   0.00000000  0.00000000  0.00000000       1.000
 
 position of ions in fractional coordinates (direct lattice) 
   0.00050308  0.01829898  0.97824710
   0.99961778  0.01804667  0.02155859
   0.00084868  0.11946793  0.97757108
   0.00039005  0.12152210  0.02084119
   0.00000000  0.03506303  0.00000000
   0.00000000  0.10363446  0.00000000
 
 position of ions in cartesian coordinates  (Angst):
   0.01760775  0.64046416 34.23864840
  34.98662216  0.63163330  0.75455051
   0.02970387  4.18137746 34.21498793
   0.01365177  4.25327352  0.72944182
   0.00000000  1.22720600  0.00000000
   0.00000000  3.62720600  0.00000000
 


--------------------------------------------------------------------------------------------------------


 use parallel FFT for orbitals z direction half grid
 k-point   1 :   0.0000 0.0000 0.0000  plane waves: 3115599

 maximum and minimum number of plane-waves per node :    389462   389421

 maximum number of plane-waves:   3115599
 maximum index in each direction: 
   IXMAX=  114   IYMAX=  114   IZMAX=  114
   IXMIN= -114   IYMIN= -114   IZMIN=    0


 parallel 3D FFT for wavefunctions:
    minimum data exchange during FFTs selected (reduces bandwidth)
 parallel 3D FFT for charge:
    minimum data exchange during FFTs selected (reduces bandwidth)


 total amount of memory used by VASP MPI-rank0  3455162. kBytes
=======================================================================

   base      :      30000. kBytes
   nonl-proj :      87230. kBytes
   fftplans  :    1215227. kBytes
   grid      :    2104012. kBytes
   one-center:          1. kBytes
   wavefun   :      18692. kBytes
 
     INWAV:  cpu time    0.0000: real time    0.0000
 Broyden mixing: mesh for mixing (old mesh)
   NGX =229   NGY =229   NGZ =229
  (NGX  =960   NGY  =960   NGZ  =960)
  gives a total of ****** points

 initial charge density was supplied:
 charge density of overlapping atoms calculated
 number of electron      16.0000000 magnetization 
 keeping initial charge density in first step


--------------------------------------------------------------------------------------------------------


 Maximum index for augmentation-charges          1236 (set IRDMAX)


--------------------------------------------------------------------------------------------------------


 First call to EWALD:  gamma=   0.051
 Maximum number of real-space cells 3x 3x 3
 Maximum number of reciprocal cells 3x 3x 3

    FEWALD:  cpu time    0.0007: real time    0.0007


--------------------------------------- Iteration      1(   1)  ---------------------------------------


    POTLOK:  cpu time   22.1987: real time   22.2355
    SETDIJ:  cpu time    0.0457: real time    0.0468
     EDDAV:  cpu time   12.8329: real time   12.8717
       DOS:  cpu time    0.0233: real time    0.0234
    --------------------------------------------
      LOOP:  cpu time   35.1007: real time   35.1775

 eigenvalue-minimisations  :    40
 total energy-change (2. order) : 0.1394080E+03  (-0.3209915E+03)
 number of electron      16.0000000 magnetization 
 augmentation part       16.0000000 magnetization 

 Free energy of the ion-electron system (eV)
  ---------------------------------------------------
  alpha Z        PSCENC =         0.02092140
  Ewald energy   TEWEN  =       572.88929994
  -Hartree energ DENC   =     -1287.95351125
  -exchange      EXHF   =         0.00000000
  -V(xc)+E(xc)   XCENC  =        64.56494621
  PAW double counting   =       701.63506352     -705.26791599
  entropy T*S    EENTRO =        -0.00000000
  eigenvalues    EBANDS =      -121.19095941
  atomic energy  EATOM  =       914.71016949
  Solvation  Ediel_sol  =         0.00000000
  ---------------------------------------------------
  free energy    TOTEN  =       139.40801391 eV

  energy without entropy =      139.40801391  energy(sigma->0) =      139.40801391


--------------------------------------------------------------------------------------------------------




--------------------------------------- Iteration      1(   2)  ---------------------------------------


     EDDAV:  cpu time   14.8304: real time   14.8510
       DOS:  cpu time    0.0004: real time    0.0004
    --------------------------------------------
      LOOP:  cpu time   14.8309: real time   14.8515

 eigenvalue-minimisations  :    48
 total energy-change (2. order) :-0.1014202E+03  (-0.1012213E+03)
 number of electron      16.0000000 magnetization 
 augmentation part       16.0000000 magnetization 

 Free energy of the ion-electron system (eV)
  ---------------------------------------------------
  alpha Z        PSCENC =         0.02092140
  Ewald energy   TEWEN  =       572.88929994
  -Hartree energ DENC   =     -1287.95351125
  -exchange      EXHF   =         0.00000000
  -V(xc)+E(xc)   XCENC  =        64.56494621
  PAW double counting   =       701.63506352     -705.26791599
  entropy T*S    EENTRO =        -0.00000000
  eigenvalues    EBANDS =      -222.61114990
  atomic energy  EATOM  =       914.71016949
  Solvation  Ediel_sol  =         0.00000000
  ---------------------------------------------------
  free energy    TOTEN  =        37.98782342 eV

  energy without entropy =       37.98782342  energy(sigma->0) =       37.98782342


--------------------------------------------------------------------------------------------------------




--------------------------------------- Iteration      1(   3)  ---------------------------------------


     EDDAV:  cpu time   12.9297: real time   12.9477
       DOS:  cpu time    0.0003: real time    0.0003
    --------------------------------------------
      LOOP:  cpu time   12.9300: real time   12.9480

 eigenvalue-minimisations  :    40
 total energy-change (2. order) :-0.5159153E+02  (-0.4554669E+02)
 number of electron      16.0000000 magnetization 
 augmentation part       16.0000000 magnetization 

 Free energy of the ion-electron system (eV)
  ---------------------------------------------------
  alpha Z        PSCENC =         0.02092140
  Ewald energy   TEWEN  =       572.88929994
  -Hartree energ DENC   =     -1287.95351125
  -exchange      EXHF   =         0.00000000
  -V(xc)+E(xc)   XCENC  =        64.56494621
  PAW double counting   =       701.63506352     -705.26791599
  entropy T*S    EENTRO =        -0.00000000
  eigenvalues    EBANDS =      -274.20267911
  atomic energy  EATOM  =       914.71016949
  Solvation  Ediel_sol  =         0.00000000
  ---------------------------------------------------
  free energy    TOTEN  =       -13.60370579 eV

  energy without entropy =      -13.60370579  energy(sigma->0) =      -13.60370579


--------------------------------------------------------------------------------------------------------




--------------------------------------- Iteration      1(   4)  ---------------------------------------


     EDDAV:  cpu time   10.9878: real time   11.0031
       DOS:  cpu time    0.0088: real time    0.0088
    --------------------------------------------
      LOOP:  cpu time   10.9966: real time   11.0120

 eigenvalue-minimisations  :    32
 total energy-change (2. order) :-0.1758813E+02  (-0.1758072E+02)
 number of electron      16.0000000 magnetization 
 augmentation part       16.0000000 magnetization 

 Free energy of the ion-electron system (eV)
  ---------------------------------------------------
  alpha Z        PSCENC =         0.02092140
  Ewald energy   TEWEN  =       572.88929994
  -Hartree energ DENC   =     -1287.95351125
  -exchange      EXHF   =         0.00000000
  -V(xc)+E(xc)   XCENC  =        64.56494621
  PAW double counting   =       701.63506352     -705.26791599
  entropy T*S    EENTRO =        -0.00000000
  eigenvalues    EBANDS =      -291.79080437
  atomic energy  EATOM  =       914.71016949
  Solvation  Ediel_sol  =         0.00000000
  ---------------------------------------------------
  free energy    TOTEN  =       -31.19183105 eV

  energy without entropy =      -31.19183105  energy(sigma->0) =      -31.19183105


--------------------------------------------------------------------------------------------------------




--------------------------------------- Iteration      1(   5)  ---------------------------------------


     EDDAV:  cpu time   10.9679: real time   10.9902
       DOS:  cpu time    0.0003: real time    0.0003
    CHARGE:  cpu time    3.2563: real time    3.2602
    MIXING:  cpu time    0.5142: real time    0.5148
    --------------------------------------------
      LOOP:  cpu time   14.7387: real time   14.7654

 eigenvalue-minimisations  :    32
 total energy-change (2. order) :-0.1312295E+01  (-0.1312244E+01)
 number of electron      15.9999999 magnetization 
 augmentation part        1.6822253 magnetization 

 Broyden mixing:
  rms(total) = 0.11446E+01    rms(broyden)= 0.11446E+01
  rms(prec ) = 0.11831E+01
  weight for this iteration     100.00

 Free energy of the ion-electron system (eV)
  ---------------------------------------------------
  alpha Z        PSCENC =         0.02092140
  Ewald energy   TEWEN  =       572.88929994
  -Hartree energ DENC   =     -1287.95351125
  -exchange      EXHF   =         0.00000000
  -V(xc)+E(xc)   XCENC  =        64.56494621
  PAW double counting   =       701.63506352     -705.26791599
  entropy T*S    EENTRO =        -0.00000000
  eigenvalues    EBANDS =      -293.10309968
  atomic energy  EATOM  =       914.71016949
  Solvation  Ediel_sol  =         0.00000000
  ---------------------------------------------------
  free energy    TOTEN  =       -32.50412636 eV

  energy without entropy =      -32.50412636  energy(sigma->0) =      -32.50412636


--------------------------------------------------------------------------------------------------------




--------------------------------------- Iteration      1(   6)  ---------------------------------------


    POTLOK:  cpu time   22.0111: real time   22.0377
    SETDIJ:  cpu time    0.0453: real time    0.0453
     EDDAV:  cpu time    8.9454: real time    8.9584
       DOS:  cpu time    0.0011: real time    0.0011
    CHARGE:  cpu time    3.1897: real time    3.1961
    MIXING:  cpu time    0.5085: real time    0.5192
    --------------------------------------------
      LOOP:  cpu time   34.7011: real time   34.7578

 eigenvalue-minimisations  :    24
 total energy-change (2. order) : 0.3997690E+01  (-0.1641012E+01)
 number of electron      15.9999999 magnetization 
 augmentation part        1.4070951 magnetization 

 Broyden mixing:
  rms(total) = 0.45867E+00    rms(broyden)= 0.45867E+00
  rms(prec ) = 0.46771E+00
  weight for this iteration     100.00

 eigenvalues of (default mixing * dielectric matrix)
  average eigenvalue GAMMA=   0.9444
  0.9444

 Free energy of the ion-electron system (eV)
  ---------------------------------------------------
  alpha Z        PSCENC =         0.02092140
  Ewald energy   TEWEN  =       572.88929994
  -Hartree energ DENC   =     -1338.90696893
  -exchange      EXHF   =         0.00000000
  -V(xc)+E(xc)   XCENC  =        67.21728268
  PAW double counting   =       893.35337303     -897.71572387
  entropy T*S    EENTRO =        -0.00000000
  eigenvalues    EBANDS =      -240.07478974
  atomic energy  EATOM  =       914.71016949
  Solvation  Ediel_sol  =         0.00000000
  ---------------------------------------------------
  free energy    TOTEN  =       -28.50643601 eV

  energy without entropy =      -28.50643601  energy(sigma->0) =      -28.50643601


--------------------------------------------------------------------------------------------------------




--------------------------------------- Iteration      1(   7)  ---------------------------------------


    POTLOK:  cpu time   22.0505: real time   22.0775
    SETDIJ:  cpu time    0.0562: real time    0.0562
     EDDAV:  cpu time   11.9286: real time   11.9662
       DOS:  cpu time    0.0131: real time    0.0131
    CHARGE:  cpu time    3.1751: real time    3.1791
    MIXING:  cpu time    0.5329: real time    0.5354
    --------------------------------------------
      LOOP:  cpu time   37.7564: real time   37.8274

 eigenvalue-minimisations  :    36
 total energy-change (2. order) : 0.2312018E+00  (-0.5637955E-01)
 number of electron      15.9999999 magnetization 
 augmentation part        1.3865631 magnetization 

 Broyden mixing:
  rms(total) = 0.30561E+00    rms(broyden)= 0.30561E+00
  rms(prec ) = 0.31130E+00
  weight for this iteration     100.00

 eigenvalues of (default mixing * dielectric matrix)
  average eigenvalue GAMMA=   1.7335
  1.1005  2.3665

 Free energy of the ion-electron system (eV)
  ---------------------------------------------------
  alpha Z        PSCENC =         0.02092140
  Ewald energy   TEWEN  =       572.88929994
  -Hartree energ DENC   =     -1348.48908104
  -exchange      EXHF   =         0.00000000
  -V(xc)+E(xc)   XCENC  =        67.64883794
  PAW double counting   =       983.51562960     -987.79457516
  entropy T*S    EENTRO =        -0.00000000
  eigenvalues    EBANDS =      -230.77643634
  atomic energy  EATOM  =       914.71016949
  Solvation  Ediel_sol  =         0.00000000
  ---------------------------------------------------
  free energy    TOTEN  =       -28.27523418 eV

  energy without entropy =      -28.27523418  energy(sigma->0) =      -28.27523418


--------------------------------------------------------------------------------------------------------




--------------------------------------- Iteration      1(   8)  ---------------------------------------


    POTLOK:  cpu time   21.9987: real time   22.0341
    SETDIJ:  cpu time    0.0444: real time    0.0444
     EDDAV:  cpu time   10.0476: real time   10.0737
       DOS:  cpu time    0.0051: real time    0.0051
    CHARGE:  cpu time    3.2176: real time    3.2216
    MIXING:  cpu time    0.5482: real time    0.5489
    --------------------------------------------
      LOOP:  cpu time   35.8615: real time   35.9277

 eigenvalue-minimisations  :    28
 total energy-change (2. order) : 0.2126959E+00  (-0.1834566E-01)
 number of electron      15.9999999 magnetization 
 augmentation part        1.3975067 magnetization 

 Broyden mixing:
  rms(total) = 0.51709E-01    rms(broyden)= 0.51709E-01
  rms(prec ) = 0.56681E-01
  weight for this iteration     100.00

 eigenvalues of (default mixing * dielectric matrix)
  average eigenvalue GAMMA=   1.4713
  2.4042  1.0049  1.0049

 Free energy of the ion-electron system (eV)
  ---------------------------------------------------
  alpha Z        PSCENC =         0.02092140
  Ewald energy   TEWEN  =       572.88929994
  -Hartree energ DENC   =     -1359.41531516
  -exchange      EXHF   =         0.00000000
  -V(xc)+E(xc)   XCENC  =        68.13574858
  PAW double counting   =      1114.59235809    -1118.71607596
  entropy T*S    EENTRO =        -0.00000000
  eigenvalues    EBANDS =      -220.27964464
  atomic energy  EATOM  =       914.71016949
  Solvation  Ediel_sol  =         0.00000000
  ---------------------------------------------------
  free energy    TOTEN  =       -28.06253826 eV

  energy without entropy =      -28.06253826  energy(sigma->0) =      -28.06253826


--------------------------------------------------------------------------------------------------------




--------------------------------------- Iteration      1(   9)  ---------------------------------------


    POTLOK:  cpu time   22.0668: real time   22.1000
    SETDIJ:  cpu time    0.0453: real time    0.0454
     EDDAV:  cpu time    9.9898: real time   10.0190
       DOS:  cpu time    0.0006: real time    0.0006
    CHARGE:  cpu time    3.1164: real time    3.1202
    MIXING:  cpu time    0.6154: real time    0.6161
    --------------------------------------------
      LOOP:  cpu time   35.8343: real time   35.9012

 eigenvalue-minimisations  :    28
 total energy-change (2. order) : 0.1286735E-01  (-0.4974253E-02)
 number of electron      15.9999999 magnetization 
 augmentation part        1.3816381 magnetization 

 Broyden mixing:
  rms(total) = 0.23771E-01    rms(broyden)= 0.23771E-01
  rms(prec ) = 0.28378E-01
  weight for this iteration     100.00

 eigenvalues of (default mixing * dielectric matrix)
  average eigenvalue GAMMA=   1.8476
  1.0004  1.0004  2.6948  2.6948

 Free energy of the ion-electron system (eV)
  ---------------------------------------------------
  alpha Z        PSCENC =         0.02092140
  Ewald energy   TEWEN  =       572.88929994
  -Hartree energ DENC   =     -1362.77050483
  -exchange      EXHF   =         0.00000000
  -V(xc)+E(xc)   XCENC  =        68.27062284
  PAW double counting   =      1116.53010813    -1120.68071974
  entropy T*S    EENTRO =        -0.00000000
  eigenvalues    EBANDS =      -217.01956815
  atomic energy  EATOM  =       914.71016949
  Solvation  Ediel_sol  =         0.00000000
  ---------------------------------------------------
  free energy    TOTEN  =       -28.04967092 eV

  energy without entropy =      -28.04967092  energy(sigma->0) =      -28.04967092


--------------------------------------------------------------------------------------------------------




--------------------------------------- Iteration      1(  10)  ---------------------------------------


    POTLOK:  cpu time   22.0709: real time   22.0976
    SETDIJ:  cpu time    0.0410: real time    0.0411
     EDDAV:  cpu time    8.9438: real time    8.9561
       DOS:  cpu time    0.0223: real time    0.0224
    CHARGE:  cpu time    3.2191: real time    3.2230
    MIXING:  cpu time    0.6085: real time    0.6093
    --------------------------------------------
      LOOP:  cpu time   34.9057: real time   34.9494

 eigenvalue-minimisations  :    24
 total energy-change (2. order) : 0.1348842E-02  (-0.1202759E-02)
 number of electron      15.9999999 magnetization 
 augmentation part        1.3847525 magnetization 

 Broyden mixing:
  rms(total) = 0.17086E-01    rms(broyden)= 0.17086E-01
  rms(prec ) = 0.19018E-01
  weight for this iteration     100.00

 eigenvalues of (default mixing * dielectric matrix)
  average eigenvalue GAMMA=   1.7381
  3.3368  2.4314  1.0727  0.9248  0.9248

 Free energy of the ion-electron system (eV)
  ---------------------------------------------------
  alpha Z        PSCENC =         0.02092140
  Ewald energy   TEWEN  =       572.88929994
  -Hartree energ DENC   =     -1365.55747479
  -exchange      EXHF   =         0.00000000
  -V(xc)+E(xc)   XCENC  =        68.27915176
  PAW double counting   =      1098.77922299    -1102.89214796
  entropy T*S    EENTRO =        -0.00000000
  eigenvalues    EBANDS =      -214.27746491
  atomic energy  EATOM  =       914.71016949
  Solvation  Ediel_sol  =         0.00000000
  ---------------------------------------------------
  free energy    TOTEN  =       -28.04832207 eV

  energy without entropy =      -28.04832207  energy(sigma->0) =      -28.04832207


--------------------------------------------------------------------------------------------------------




--------------------------------------- Iteration      1(  11)  ---------------------------------------


    POTLOK:  cpu time   22.0823: real time   22.1149
    SETDIJ:  cpu time    0.0435: real time    0.0435
     EDDAV:  cpu time    9.9891: real time   10.0031
       DOS:  cpu time    0.0002: real time    0.0002
    CHARGE:  cpu time    3.2084: real time    3.2124
    MIXING:  cpu time    0.5849: real time    0.5857
    --------------------------------------------
      LOOP:  cpu time   35.9085: real time   35.9598

 eigenvalue-minimisations  :    28
 total energy-change (2. order) :-0.9949711E-03  (-0.7565308E-03)
 number of electron      15.9999999 magnetization 
 augmentation part        1.3788241 magnetization 

 Broyden mixing:
  rms(total) = 0.70147E-02    rms(broyden)= 0.70147E-02
  rms(prec ) = 0.90058E-02
  weight for this iteration     100.00

 eigenvalues of (default mixing * dielectric matrix)
  average eigenvalue GAMMA=   2.1065
  4.5337  2.8454  2.3605  0.9730  0.9730  0.9536

 Free energy of the ion-electron system (eV)
  ---------------------------------------------------
  alpha Z        PSCENC =         0.02092140
  Ewald energy   TEWEN  =       572.88929994
  -Hartree energ DENC   =     -1367.35281958
  -exchange      EXHF   =         0.00000000
  -V(xc)+E(xc)   XCENC  =        68.34165319
  PAW double counting   =      1102.58237201    -1106.70486930
  entropy T*S    EENTRO =        -0.00000000
  eigenvalues    EBANDS =      -212.53604420
  atomic energy  EATOM  =       914.71016949
  Solvation  Ediel_sol  =         0.00000000
  ---------------------------------------------------
  free energy    TOTEN  =       -28.04931704 eV

  energy without entropy =      -28.04931704  energy(sigma->0) =      -28.04931704


--------------------------------------------------------------------------------------------------------




--------------------------------------- Iteration      1(  12)  ---------------------------------------


    POTLOK:  cpu time   22.0966: real time   22.1266
    SETDIJ:  cpu time    0.0420: real time    0.0420
     EDDAV:  cpu time    9.9779: real time    9.9916
       DOS:  cpu time    0.0047: real time    0.0047
    CHARGE:  cpu time    3.1987: real time    3.2027
    MIXING:  cpu time    0.6502: real time    0.6511
    --------------------------------------------
      LOOP:  cpu time   35.9701: real time   36.0186

 eigenvalue-minimisations  :    28
 total energy-change (2. order) :-0.1070536E-01  (-0.4134292E-03)
 number of electron      15.9999999 magnetization 
 augmentation part        1.3794758 magnetization 

 Broyden mixing:
  rms(total) = 0.29340E-02    rms(broyden)= 0.29340E-02
  rms(prec ) = 0.37776E-02
  weight for this iteration     100.00

 eigenvalues of (default mixing * dielectric matrix)
  average eigenvalue GAMMA=   1.9729
  4.2478  3.2051  2.4275  0.9772  0.9772  0.9879  0.9879

 Free energy of the ion-electron system (eV)
  ---------------------------------------------------
  alpha Z        PSCENC =         0.02092140
  Ewald energy   TEWEN  =       572.88929994
  -Hartree energ DENC   =     -1368.62124185
  -exchange      EXHF   =         0.00000000
  -V(xc)+E(xc)   XCENC  =        68.34063396
  PAW double counting   =      1102.35489616    -1106.47996437
  entropy T*S    EENTRO =        -0.00000000
  eigenvalues    EBANDS =      -211.27473714
  atomic energy  EATOM  =       914.71016949
  Solvation  Ediel_sol  =         0.00000000
  ---------------------------------------------------
  free energy    TOTEN  =       -28.06002240 eV

  energy without entropy =      -28.06002240  energy(sigma->0) =      -28.06002240


--------------------------------------------------------------------------------------------------------




--------------------------------------- Iteration      1(  13)  ---------------------------------------


    POTLOK:  cpu time   22.1401: real time   22.1718
    SETDIJ:  cpu time    0.0451: real time    0.0451
     EDDAV:  cpu time   13.0814: real time   13.1139
       DOS:  cpu time    0.0001: real time    0.0001
    CHARGE:  cpu time    3.1634: real time    3.1674
    MIXING:  cpu time    0.6352: real time    0.6360
    --------------------------------------------
      LOOP:  cpu time   39.0654: real time   39.1343

 eigenvalue-minimisations  :    40
 total energy-change (2. order) :-0.4038854E-02  (-0.5902511E-04)
 number of electron      15.9999999 magnetization 
 augmentation part        1.3793758 magnetization 

 Broyden mixing:
  rms(total) = 0.24340E-02    rms(broyden)= 0.24340E-02
  rms(prec ) = 0.30282E-02
  weight for this iteration     100.00

 eigenvalues of (default mixing * dielectric matrix)
  average eigenvalue GAMMA=   2.0977
  5.2137  3.3159  2.4824  1.8132  1.1667  0.9733  0.9733  0.8431

 Free energy of the ion-electron system (eV)
  ---------------------------------------------------
  alpha Z        PSCENC =         0.02092140
  Ewald energy   TEWEN  =       572.88929994
  -Hartree energ DENC   =     -1368.68430889
  -exchange      EXHF   =         0.00000000
  -V(xc)+E(xc)   XCENC  =        68.33488478
  PAW double counting   =      1103.43955638    -1107.56427112
  entropy T*S    EENTRO =        -0.00000000
  eigenvalues    EBANDS =      -211.21031323
  atomic energy  EATOM  =       914.71016949
  Solvation  Ediel_sol  =         0.00000000
  ---------------------------------------------------
  free energy    TOTEN  =       -28.06406126 eV

  energy without entropy =      -28.06406126  energy(sigma->0) =      -28.06406126


--------------------------------------------------------------------------------------------------------




--------------------------------------- Iteration      1(  14)  ---------------------------------------


    POTLOK:  cpu time   22.1378: real time   22.1678
    SETDIJ:  cpu time    0.0460: real time    0.0460
     EDDAV:  cpu time   11.0208: real time   11.0438
       DOS:  cpu time    0.0048: real time    0.0048
    CHARGE:  cpu time    3.1914: real time    3.1953
    MIXING:  cpu time    0.6852: real time    0.6861
    --------------------------------------------
      LOOP:  cpu time   37.0859: real time   37.1439

 eigenvalue-minimisations  :    32
 total energy-change (2. order) :-0.3594213E-02  (-0.4161418E-04)
 number of electron      15.9999999 magnetization 
 augmentation part        1.3790103 magnetization 

 Broyden mixing:
  rms(total) = 0.12803E-02    rms(broyden)= 0.12803E-02
  rms(prec ) = 0.16241E-02
  weight for this iteration     100.00

 eigenvalues of (default mixing * dielectric matrix)
  average eigenvalue GAMMA=   2.0698
  5.6789  3.5381  2.4791  2.0140  0.9934  0.9720  0.9720  0.9904  0.9904

 Free energy of the ion-electron system (eV)
  ---------------------------------------------------
  alpha Z        PSCENC =         0.02092140
  Ewald energy   TEWEN  =       572.88929994
  -Hartree energ DENC   =     -1368.99539647
  -exchange      EXHF   =         0.00000000
  -V(xc)+E(xc)   XCENC  =        68.33320929
  PAW double counting   =      1103.16785780    -1107.29134255
  entropy T*S    EENTRO =        -0.00000000
  eigenvalues    EBANDS =      -210.90237436
  atomic energy  EATOM  =       914.71016949
  Solvation  Ediel_sol  =         0.00000000
  ---------------------------------------------------
  free energy    TOTEN  =       -28.06765547 eV

  energy without entropy =      -28.06765547  energy(sigma->0) =      -28.06765547


--------------------------------------------------------------------------------------------------------




--------------------------------------- Iteration      1(  15)  ---------------------------------------


    POTLOK:  cpu time   22.0927: real time   22.1197
    SETDIJ:  cpu time    0.0506: real time    0.0506
     EDDAV:  cpu time   13.0006: real time   13.0405
       DOS:  cpu time    0.0119: real time    0.0119
    CHARGE:  cpu time    3.1988: real time    3.2027
    MIXING:  cpu time    0.6915: real time    0.6925
    --------------------------------------------
      LOOP:  cpu time   39.0461: real time   39.1178

 eigenvalue-minimisations  :    40
 total energy-change (2. order) :-0.1283137E-02  (-0.5933459E-05)
 number of electron      15.9999999 magnetization 
 augmentation part        1.3789734 magnetization 

 Broyden mixing:
  rms(total) = 0.81733E-03    rms(broyden)= 0.81733E-03
  rms(prec ) = 0.10992E-02
  weight for this iteration     100.00

 eigenvalues of (default mixing * dielectric matrix)
  average eigenvalue GAMMA=   2.1947
  6.7301  3.9016  2.7097  2.3571  1.2684  1.2684  0.9937  0.9641  0.9641  0.7902

 Free energy of the ion-electron system (eV)
  ---------------------------------------------------
  alpha Z        PSCENC =         0.02092140
  Ewald energy   TEWEN  =       572.88929994
  -Hartree energ DENC   =     -1369.03752408
  -exchange      EXHF   =         0.00000000
  -V(xc)+E(xc)   XCENC  =        68.33100692
  PAW double counting   =      1102.94754378    -1107.07048075
  entropy T*S    EENTRO =        -0.00000000
  eigenvalues    EBANDS =      -210.85987531
  atomic energy  EATOM  =       914.71016949
  Solvation  Ediel_sol  =         0.00000000
  ---------------------------------------------------
  free energy    TOTEN  =       -28.06893861 eV

  energy without entropy =      -28.06893861  energy(sigma->0) =      -28.06893861


--------------------------------------------------------------------------------------------------------




--------------------------------------- Iteration      1(  16)  ---------------------------------------


    POTLOK:  cpu time   22.1308: real time   22.1653
    SETDIJ:  cpu time    0.0431: real time    0.0431
     EDDAV:  cpu time   11.8779: real time   11.8947
       DOS:  cpu time    0.0001: real time    0.0001
    CHARGE:  cpu time    3.1826: real time    3.1867
    MIXING:  cpu time    0.7044: real time    0.7054
    --------------------------------------------
      LOOP:  cpu time   37.9390: real time   37.9954

 eigenvalue-minimisations  :    36
 total energy-change (2. order) :-0.1524273E-02  (-0.1130074E-04)
 number of electron      15.9999999 magnetization 
 augmentation part        1.3789077 magnetization 

 Broyden mixing:
  rms(total) = 0.57285E-03    rms(broyden)= 0.57285E-03
  rms(prec ) = 0.70683E-03
  weight for this iteration     100.00

 eigenvalues of (default mixing * dielectric matrix)
  average eigenvalue GAMMA=   2.2659
  7.2679  4.1057  2.9017  2.4445  1.5868  1.5868  1.2012  0.9861  0.9861  0.8790
  0.9793

 Free energy of the ion-electron system (eV)
  ---------------------------------------------------
  alpha Z        PSCENC =         0.02092140
  Ewald energy   TEWEN  =       572.88929994
  -Hartree energ DENC   =     -1369.11247252
  -exchange      EXHF   =         0.00000000
  -V(xc)+E(xc)   XCENC  =        68.32912233
  PAW double counting   =      1102.62762048    -1106.74967562
  entropy T*S    EENTRO =        -0.00000000
  eigenvalues    EBANDS =      -210.78544838
  atomic energy  EATOM  =       914.71016949
  Solvation  Ediel_sol  =         0.00000000
  ---------------------------------------------------
  free energy    TOTEN  =       -28.07046288 eV

  energy without entropy =      -28.07046288  energy(sigma->0) =      -28.07046288


--------------------------------------------------------------------------------------------------------




--------------------------------------- Iteration      1(  17)  ---------------------------------------


    POTLOK:  cpu time   22.0716: real time   22.1010
    SETDIJ:  cpu time    0.0564: real time    0.0564
     EDDAV:  cpu time   13.0173: real time   13.0357
       DOS:  cpu time    0.0157: real time    0.0157
    CHARGE:  cpu time    3.1920: real time    3.1976
    MIXING:  cpu time    0.7483: real time    0.7493
    --------------------------------------------
      LOOP:  cpu time   39.1012: real time   39.1558

 eigenvalue-minimisations  :    40
 total energy-change (2. order) :-0.7778599E-03  (-0.3524159E-05)
 number of electron      15.9999999 magnetization 
 augmentation part        1.3788656 magnetization 

 Broyden mixing:
  rms(total) = 0.52373E-03    rms(broyden)= 0.52373E-03
  rms(prec ) = 0.57672E-03
  weight for this iteration     100.00

 eigenvalues of (default mixing * dielectric matrix)
  average eigenvalue GAMMA=   2.3047
  7.8845  4.7954  3.0209  2.5637  2.2846  1.1557  1.1557  0.9584  0.9584  0.8846
  0.9970  0.9970

 Free energy of the ion-electron system (eV)
  ---------------------------------------------------
  alpha Z        PSCENC =         0.02092140
  Ewald energy   TEWEN  =       572.88929994
  -Hartree energ DENC   =     -1369.13295118
  -exchange      EXHF   =         0.00000000
  -V(xc)+E(xc)   XCENC  =        68.32789794
  PAW double counting   =      1102.45953185    -1106.58163509
  entropy T*S    EENTRO =        -0.00000000
  eigenvalues    EBANDS =      -210.76447509
  atomic energy  EATOM  =       914.71016949
  Solvation  Ediel_sol  =         0.00000000
  ---------------------------------------------------
  free energy    TOTEN  =       -28.07124074 eV

  energy without entropy =      -28.07124074  energy(sigma->0) =      -28.07124074


--------------------------------------------------------------------------------------------------------




--------------------------------------- Iteration      1(  18)  ---------------------------------------


    POTLOK:  cpu time   22.0865: real time   22.1123
    SETDIJ:  cpu time    0.0497: real time    0.0497
     EDDAV:  cpu time   11.0369: real time   11.0521
       DOS:  cpu time    0.0002: real time    0.0002
    CHARGE:  cpu time    3.1217: real time    3.1255
    MIXING:  cpu time    0.8753: real time    0.8764
    --------------------------------------------
      LOOP:  cpu time   37.1703: real time   37.2161

 eigenvalue-minimisations  :    32
 total energy-change (2. order) :-0.2669343E-03  (-0.1054466E-05)
 number of electron      15.9999999 magnetization 
 augmentation part        1.3789745 magnetization 

 Broyden mixing:
  rms(total) = 0.16856E-03    rms(broyden)= 0.16856E-03
  rms(prec ) = 0.21955E-03
  weight for this iteration     100.00

 eigenvalues of (default mixing * dielectric matrix)
  average eigenvalue GAMMA=   2.3355
  8.2118  5.0657  3.2749  2.4854  2.4039  1.5683  1.1610  1.1610  1.2448  0.9767
  0.9767  0.8686  0.9630

 Free energy of the ion-electron system (eV)
  ---------------------------------------------------
  alpha Z        PSCENC =         0.02092140
  Ewald energy   TEWEN  =       572.88929994
  -Hartree energ DENC   =     -1369.12237787
  -exchange      EXHF   =         0.00000000
  -V(xc)+E(xc)   XCENC  =        68.32672453
  PAW double counting   =      1102.43281190    -1106.55469351
  entropy T*S    EENTRO =        -0.00000000
  eigenvalues    EBANDS =      -210.77436355
  atomic energy  EATOM  =       914.71016949
  Solvation  Ediel_sol  =         0.00000000
  ---------------------------------------------------
  free energy    TOTEN  =       -28.07150767 eV

  energy without entropy =      -28.07150767  energy(sigma->0) =      -28.07150767


--------------------------------------------------------------------------------------------------------




--------------------------------------- Iteration      1(  19)  ---------------------------------------


    POTLOK:  cpu time   22.0496: real time   22.0840
    SETDIJ:  cpu time    0.0526: real time    0.0526
     EDDAV:  cpu time    9.0290: real time    9.0415
       DOS:  cpu time    0.0052: real time    0.0052
    CHARGE:  cpu time    3.1864: real time    3.1903
    MIXING:  cpu time    0.8506: real time    0.8517
    --------------------------------------------
      LOOP:  cpu time   35.1734: real time   35.2253

 eigenvalue-minimisations  :    24
 total energy-change (2. order) :-0.2204264E-03  (-0.3010754E-06)
 number of electron      15.9999999 magnetization 
 augmentation part        1.3789428 magnetization 

 Broyden mixing:
  rms(total) = 0.13450E-03    rms(broyden)= 0.13450E-03
  rms(prec ) = 0.15368E-03
  weight for this iteration     100.00

 eigenvalues of (default mixing * dielectric matrix)
  average eigenvalue GAMMA=   2.4138
  8.7996  5.6507  3.8723  2.8080  2.4622  2.1821  1.0978  1.0978  0.9660  0.9660
  0.8759  1.0159  0.9993  0.9993

 Free energy of the ion-electron system (eV)
  ---------------------------------------------------
  alpha Z        PSCENC =         0.02092140
  Ewald energy   TEWEN  =       572.88929994
  -Hartree energ DENC   =     -1369.13563394
  -exchange      EXHF   =         0.00000000
  -V(xc)+E(xc)   XCENC  =        68.32663932
  PAW double counting   =      1102.50239769    -1106.62446000
  entropy T*S    EENTRO =        -0.00000000
  eigenvalues    EBANDS =      -210.76106200
  atomic energy  EATOM  =       914.71016949
  Solvation  Ediel_sol  =         0.00000000
  ---------------------------------------------------
  free energy    TOTEN  =       -28.07172810 eV

  energy without entropy =      -28.07172810  energy(sigma->0) =      -28.07172810


--------------------------------------------------------------------------------------------------------




--------------------------------------- Iteration      1(  20)  ---------------------------------------


    POTLOK:  cpu time   22.0295: real time   22.0636
    SETDIJ:  cpu time    0.0400: real time    0.0400
     EDDAV:  cpu time   12.9920: real time   13.0098
       DOS:  cpu time    0.0127: real time    0.0127
    CHARGE:  cpu time    3.1729: real time    3.1768
    MIXING:  cpu time    0.8853: real time    0.8865
    --------------------------------------------
      LOOP:  cpu time   39.1324: real time   39.1895

 eigenvalue-minimisations  :    40
 total energy-change (2. order) :-0.8361837E-04  (-0.1429311E-06)
 number of electron      15.9999999 magnetization 
 augmentation part        1.3789798 magnetization 

 Broyden mixing:
  rms(total) = 0.11230E-03    rms(broyden)= 0.11230E-03
  rms(prec ) = 0.12130E-03
  weight for this iteration     100.00

 eigenvalues of (default mixing * dielectric matrix)
  average eigenvalue GAMMA=   2.4650
  8.9734  5.9970  4.0371  2.7614  2.7614  2.3739  1.8775  1.1334  1.1334  1.1376
  0.9722  0.9722  0.9888  0.9888  0.8677

 Free energy of the ion-electron system (eV)
  ---------------------------------------------------
  alpha Z        PSCENC =         0.02092140
  Ewald energy   TEWEN  =       572.88929994
  -Hartree energ DENC   =     -1369.13508377
  -exchange      EXHF   =         0.00000000
  -V(xc)+E(xc)   XCENC  =        68.32630404
  PAW double counting   =      1102.52254382    -1106.64457391
  entropy T*S    EENTRO =        -0.00000000
  eigenvalues    EBANDS =      -210.76139273
  atomic energy  EATOM  =       914.71016949
  Solvation  Ediel_sol  =         0.00000000
  ---------------------------------------------------
  free energy    TOTEN  =       -28.07181172 eV

  energy without entropy =      -28.07181172  energy(sigma->0) =      -28.07181172


--------------------------------------------------------------------------------------------------------




--------------------------------------- Iteration      1(  21)  ---------------------------------------


    POTLOK:  cpu time   21.9811: real time   22.0176
    SETDIJ:  cpu time    0.0626: real time    0.0626
     EDDAV:  cpu time    9.1198: real time    9.1414
       DOS:  cpu time    0.0159: real time    0.0159
    CHARGE:  cpu time    3.1852: real time    3.1891
    MIXING:  cpu time    0.8916: real time    0.8940
    --------------------------------------------
      LOOP:  cpu time   35.2561: real time   35.3206

 eigenvalue-minimisations  :    24
 total energy-change (2. order) :-0.5140325E-04  (-0.6325409E-07)
 number of electron      15.9999999 magnetization 
 augmentation part        1.3789444 magnetization 

 Broyden mixing:
  rms(total) = 0.85057E-04    rms(broyden)= 0.85057E-04
  rms(prec ) = 0.88961E-04
  weight for this iteration     100.00

 eigenvalues of (default mixing * dielectric matrix)
  average eigenvalue GAMMA=   2.4771
  9.2052  6.2351  4.5148  3.2714  2.5730  2.5730  2.1489  1.1134  1.1134  0.9765
  0.9765  1.0696  1.0346  1.0346  0.8643  0.9292

 Free energy of the ion-electron system (eV)
  ---------------------------------------------------
  alpha Z        PSCENC =         0.02092140
  Ewald energy   TEWEN  =       572.88929994
  -Hartree energ DENC   =     -1369.14231186
  -exchange      EXHF   =         0.00000000
  -V(xc)+E(xc)   XCENC  =        68.32655508
  PAW double counting   =      1102.52483896    -1106.64686106
  entropy T*S    EENTRO =        -0.00000000
  eigenvalues    EBANDS =      -210.75447507
  atomic energy  EATOM  =       914.71016949
  Solvation  Ediel_sol  =         0.00000000
  ---------------------------------------------------
  free energy    TOTEN  =       -28.07186312 eV

  energy without entropy =      -28.07186312  energy(sigma->0) =      -28.07186312


--------------------------------------------------------------------------------------------------------




--------------------------------------- Iteration      1(  22)  ---------------------------------------


    POTLOK:  cpu time   21.9849: real time   22.0140
    SETDIJ:  cpu time    0.0422: real time    0.0423
     EDDAV:  cpu time    7.1218: real time    7.1314
       DOS:  cpu time    0.0002: real time    0.0002
    CHARGE:  cpu time    3.1996: real time    3.2083
    MIXING:  cpu time    0.9366: real time    0.9378
    --------------------------------------------
      LOOP:  cpu time   33.2853: real time   33.3340

 eigenvalue-minimisations  :    16
 total energy-change (2. order) :-0.1437100E-04  (-0.7996155E-08)
 number of electron      15.9999999 magnetization 
 augmentation part        1.3789472 magnetization 

 Broyden mixing:
  rms(total) = 0.59233E-04    rms(broyden)= 0.59233E-04
  rms(prec ) = 0.61447E-04
  weight for this iteration     100.00

 eigenvalues of (default mixing * dielectric matrix)
  average eigenvalue GAMMA=   2.4159
  9.2759  6.3756  4.5864  3.3683  2.5715  2.4866  2.1208  1.1290  1.1290  1.1730
  0.9758  0.9758  1.0645  1.0645  0.8843  0.9445  0.9445

 Free energy of the ion-electron system (eV)
  ---------------------------------------------------
  alpha Z        PSCENC =         0.02092140
  Ewald energy   TEWEN  =       572.88929994
  -Hartree energ DENC   =     -1369.14370529
  -exchange      EXHF   =         0.00000000
  -V(xc)+E(xc)   XCENC  =        68.32656300
  PAW double counting   =      1102.51313007    -1106.63512560
  entropy T*S    EENTRO =        -0.00000000
  eigenvalues    EBANDS =      -210.75313050
  atomic energy  EATOM  =       914.71016949
  Solvation  Ediel_sol  =         0.00000000
  ---------------------------------------------------
  free energy    TOTEN  =       -28.07187749 eV

  energy without entropy =      -28.07187749  energy(sigma->0) =      -28.07187749


--------------------------------------------------------------------------------------------------------




--------------------------------------- Iteration      1(  23)  ---------------------------------------


    POTLOK:  cpu time   22.0020: real time   22.0361
    SETDIJ:  cpu time    0.0420: real time    0.0420
     EDDAV:  cpu time    9.2027: real time    9.2154
       DOS:  cpu time    0.0082: real time    0.0082
    CHARGE:  cpu time    3.1898: real time    3.1937
    MIXING:  cpu time    0.9499: real time    0.9513
    --------------------------------------------
      LOOP:  cpu time   35.3946: real time   35.4468

 eigenvalue-minimisations  :    24
 total energy-change (2. order) :-0.4570748E-05  (-0.7211323E-08)
 number of electron      15.9999999 magnetization 
 augmentation part        1.3789518 magnetization 

 Broyden mixing:
  rms(total) = 0.21083E-04    rms(broyden)= 0.21083E-04
  rms(prec ) = 0.23103E-04
  weight for this iteration     100.00

 eigenvalues of (default mixing * dielectric matrix)
  average eigenvalue GAMMA=   2.3925
  9.3273  6.5188  4.7039  3.5138  2.5168  2.5168  2.2929  1.1869  1.1869  1.2562
  1.2562  1.1164  0.8650  0.9845  0.9686  0.9686  0.9426  0.9426

 Free energy of the ion-electron system (eV)
  ---------------------------------------------------
  alpha Z        PSCENC =         0.02092140
  Ewald energy   TEWEN  =       572.88929994
  -Hartree energ DENC   =     -1369.14323306
  -exchange      EXHF   =         0.00000000
  -V(xc)+E(xc)   XCENC  =        68.32652941
  PAW double counting   =      1102.51533461    -1106.63733353
  entropy T*S    EENTRO =        -0.00000000
  eigenvalues    EBANDS =      -210.75357031
  atomic energy  EATOM  =       914.71016949
  Solvation  Ediel_sol  =         0.00000000
  ---------------------------------------------------
  free energy    TOTEN  =       -28.07188206 eV

  energy without entropy =      -28.07188206  energy(sigma->0) =      -28.07188206


--------------------------------------------------------------------------------------------------------




--------------------------------------- Iteration      1(  24)  ---------------------------------------


    POTLOK:  cpu time   21.9748: real time   22.0075
    SETDIJ:  cpu time    0.0651: real time    0.0651
     EDDAV:  cpu time    7.1614: real time    7.1851
       DOS:  cpu time    0.0050: real time    0.0050
    CHARGE:  cpu time    3.2345: real time    3.2423
    MIXING:  cpu time    1.0003: real time    1.0017
    --------------------------------------------
      LOOP:  cpu time   33.4411: real time   33.5068

 eigenvalue-minimisations  :    16
 total energy-change (2. order) :-0.4384240E-05  (-0.2132152E-08)
 number of electron      15.9999999 magnetization 
 augmentation part        1.3789532 magnetization 

 Broyden mixing:
  rms(total) = 0.12174E-04    rms(broyden)= 0.12174E-04
  rms(prec ) = 0.13679E-04
  weight for this iteration     100.00

 eigenvalues of (default mixing * dielectric matrix)
  average eigenvalue GAMMA=   2.4211
  9.4794  6.8509  5.0751  3.7084  2.8074  2.3992  2.3992  1.8799  1.1451  1.1451
  1.3315  1.0325  1.0325  0.9743  0.9743  1.0030  1.0030  0.8801  0.8801

 Free energy of the ion-electron system (eV)
  ---------------------------------------------------
  alpha Z        PSCENC =         0.02092140
  Ewald energy   TEWEN  =       572.88929994
  -Hartree energ DENC   =     -1369.14265673
  -exchange      EXHF   =         0.00000000
  -V(xc)+E(xc)   XCENC  =        68.32649446
  PAW double counting   =      1102.51413700    -1106.63613431
  entropy T*S    EENTRO =        -0.00000000
  eigenvalues    EBANDS =      -210.75411770
  atomic energy  EATOM  =       914.71016949
  Solvation  Ediel_sol  =         0.00000000
  ---------------------------------------------------
  free energy    TOTEN  =       -28.07188645 eV

  energy without entropy =      -28.07188645  energy(sigma->0) =      -28.07188645


--------------------------------------------------------------------------------------------------------




--------------------------------------- Iteration      1(  25)  ---------------------------------------


    POTLOK:  cpu time   22.0152: real time   22.0428
    SETDIJ:  cpu time    0.0405: real time    0.0405
     EDDAV:  cpu time    7.1402: real time    7.1500
       DOS:  cpu time    0.0052: real time    0.0052
    CHARGE:  cpu time    3.1873: real time    3.1911
    MIXING:  cpu time    1.0400: real time    1.0445
    --------------------------------------------
      LOOP:  cpu time   33.4283: real time   33.4740

 eigenvalue-minimisations  :    16
 total energy-change (2. order) :-0.3764666E-05  (-0.2059041E-08)
 number of electron      15.9999999 magnetization 
 augmentation part        1.3789559 magnetization 

 Broyden mixing:
  rms(total) = 0.55798E-05    rms(broyden)= 0.55798E-05
  rms(prec ) = 0.65045E-05
  weight for this iteration     100.00

 eigenvalues of (default mixing * dielectric matrix)
  average eigenvalue GAMMA=   2.4421
  9.5395  7.0822  5.2806  3.9886  3.1424  2.5280  2.5280  2.1005  1.1759  1.1759
  1.2476  1.2476  1.1596  0.8687  0.9636  0.9636  0.9713  0.9713  0.9534  0.9534

 Free energy of the ion-electron system (eV)
  ---------------------------------------------------
  alpha Z        PSCENC =         0.02092140
  Ewald energy   TEWEN  =       572.88929994
  -Hartree energ DENC   =     -1369.14229203
  -exchange      EXHF   =         0.00000000
  -V(xc)+E(xc)   XCENC  =        68.32646003
  PAW double counting   =      1102.51301570    -1106.63501351
  entropy T*S    EENTRO =        -0.00000000
  eigenvalues    EBANDS =      -210.75445123
  atomic energy  EATOM  =       914.71016949
  Solvation  Ediel_sol  =         0.00000000
  ---------------------------------------------------
  free energy    TOTEN  =       -28.07189021 eV

  energy without entropy =      -28.07189021  energy(sigma->0) =      -28.07189021


--------------------------------------------------------------------------------------------------------




--------------------------------------- Iteration      1(  26)  ---------------------------------------


    POTLOK:  cpu time   21.9655: real time   22.0005
    SETDIJ:  cpu time    0.0404: real time    0.0404
     EDDAV:  cpu time    7.1742: real time    7.1920
       DOS:  cpu time    0.0004: real time    0.0004
    CHARGE:  cpu time    3.2147: real time    3.2189
    MIXING:  cpu time    1.0742: real time    1.0758
    --------------------------------------------
      LOOP:  cpu time   33.4694: real time   33.5281

 eigenvalue-minimisations  :    16
 total energy-change (2. order) :-0.1645122E-05  (-0.1674016E-08)
 number of electron      15.9999999 magnetization 
 augmentation part        1.3789557 magnetization 

 Broyden mixing:
  rms(total) = 0.10099E-04    rms(broyden)= 0.10099E-04
  rms(prec ) = 0.10467E-04
  weight for this iteration     100.00

 eigenvalues of (default mixing * dielectric matrix)
  average eigenvalue GAMMA=   2.4394
  9.5807  7.3283  5.4807  4.2638  3.2526  2.4862  2.4862  2.1885  1.5276  1.5276
  1.1484  1.1484  1.1036  1.0381  1.0381  0.9775  0.9775  0.9445  0.9445  0.8667
  0.9186

 Free energy of the ion-electron system (eV)
  ---------------------------------------------------
  alpha Z        PSCENC =         0.02092140
  Ewald energy   TEWEN  =       572.88929994
  -Hartree energ DENC   =     -1369.14240993
  -exchange      EXHF   =         0.00000000
  -V(xc)+E(xc)   XCENC  =        68.32646213
  PAW double counting   =      1102.51399155    -1106.63599436
  entropy T*S    EENTRO =        -0.00000000
  eigenvalues    EBANDS =      -210.75433208
  atomic energy  EATOM  =       914.71016949
  Solvation  Ediel_sol  =         0.00000000
  ---------------------------------------------------
  free energy    TOTEN  =       -28.07189186 eV

  energy without entropy =      -28.07189186  energy(sigma->0) =      -28.07189186


--------------------------------------------------------------------------------------------------------




--------------------------------------- Iteration      1(  27)  ---------------------------------------


    POTLOK:  cpu time   21.9978: real time   22.0312
    SETDIJ:  cpu time    0.0445: real time    0.0445
     EDDAV:  cpu time    9.0680: real time    9.0805
       DOS:  cpu time    0.0061: real time    0.0061
    CHARGE:  cpu time    3.2092: real time    3.2131
    MIXING:  cpu time    1.1417: real time    1.1457
    --------------------------------------------
      LOOP:  cpu time   35.4673: real time   35.5212

 eigenvalue-minimisations  :    24
 total energy-change (2. order) :-0.7266067E-06  (-0.1218659E-08)
 number of electron      15.9999999 magnetization 
 augmentation part        1.3789556 magnetization 

 Broyden mixing:
  rms(total) = 0.10605E-04    rms(broyden)= 0.10605E-04
  rms(prec ) = 0.10882E-04
  weight for this iteration     100.00

 eigenvalues of (default mixing * dielectric matrix)
  average eigenvalue GAMMA=   2.4912
  9.6418  7.6146  5.7952  4.6189  3.5104  3.0473  2.4746  2.4746  2.1981  1.1473
  1.1473  1.1611  1.1611  1.1522  1.0202  1.0202  0.9734  0.9734  0.8689  0.9232
  0.9412  0.9412

 Free energy of the ion-electron system (eV)
  ---------------------------------------------------
  alpha Z        PSCENC =         0.02092140
  Ewald energy   TEWEN  =       572.88929994
  -Hartree energ DENC   =     -1369.14247404
  -exchange      EXHF   =         0.00000000
  -V(xc)+E(xc)   XCENC  =        68.32646418
  PAW double counting   =      1102.51381900    -1106.63581911
  entropy T*S    EENTRO =        -0.00000000
  eigenvalues    EBANDS =      -210.75427344
  atomic energy  EATOM  =       914.71016949
  Solvation  Ediel_sol  =         0.00000000
  ---------------------------------------------------
  free energy    TOTEN  =       -28.07189258 eV

  energy without entropy =      -28.07189258  energy(sigma->0) =      -28.07189258


--------------------------------------------------------------------------------------------------------




--------------------------------------- Iteration      1(  28)  ---------------------------------------


    POTLOK:  cpu time   21.8949: real time   21.9283
    SETDIJ:  cpu time    0.0630: real time    0.0630
     EDDAV:  cpu time    7.1104: real time    7.1275
       DOS:  cpu time    0.0062: real time    0.0062
    CHARGE:  cpu time    3.1788: real time    3.1830
    MIXING:  cpu time    1.2358: real time    1.2376
    --------------------------------------------
      LOOP:  cpu time   33.4892: real time   33.5456

 eigenvalue-minimisations  :    16
 total energy-change (2. order) :-0.4779704E-06  (-0.1208237E-08)
 number of electron      15.9999999 magnetization 
 augmentation part        1.3789557 magnetization 

 Broyden mixing:
  rms(total) = 0.26995E-05    rms(broyden)= 0.26995E-05
  rms(prec ) = 0.27974E-05
  weight for this iteration     100.00

 eigenvalues of (default mixing * dielectric matrix)
  average eigenvalue GAMMA=   2.4409
  9.6525  7.7106  5.8763  4.6709  3.5311  3.0915  2.4377  2.4377  2.2360  1.3061
  1.3061  1.1602  1.1602  1.1531  1.0185  1.0185  0.9740  0.9740  0.8696  0.9509
  0.9322  0.9322  0.7400

 Free energy of the ion-electron system (eV)
  ---------------------------------------------------
  alpha Z        PSCENC =         0.02092140
  Ewald energy   TEWEN  =       572.88929994
  -Hartree energ DENC   =     -1369.14247434
  -exchange      EXHF   =         0.00000000
  -V(xc)+E(xc)   XCENC  =        68.32646449
  PAW double counting   =      1102.51448287    -1106.63648129
  entropy T*S    EENTRO =        -0.00000000
  eigenvalues    EBANDS =      -210.75427563
  atomic energy  EATOM  =       914.71016949
  Solvation  Ediel_sol  =         0.00000000
  ---------------------------------------------------
  free energy    TOTEN  =       -28.07189306 eV

  energy without entropy =      -28.07189306  energy(sigma->0) =      -28.07189306


--------------------------------------------------------------------------------------------------------




--------------------------------------- Iteration      1(  29)  ---------------------------------------


    POTLOK:  cpu time   21.9308: real time   21.9578
    SETDIJ:  cpu time    0.0478: real time    0.0478
     EDDAV:  cpu time    8.9686: real time    8.9966
       DOS:  cpu time    0.0149: real time    0.0149
    CHARGE:  cpu time    3.1538: real time    3.1585
    MIXING:  cpu time    1.2670: real time    1.2689
    --------------------------------------------
      LOOP:  cpu time   35.3830: real time   35.4445

 eigenvalue-minimisations  :    24
 total energy-change (2. order) :-0.1013793E-06  (-0.1057616E-08)
 number of electron      15.9999999 magnetization 
 augmentation part        1.3789558 magnetization 

 Broyden mixing:
  rms(total) = 0.89092E-05    rms(broyden)= 0.89092E-05
  rms(prec ) = 0.90978E-05
  weight for this iteration     100.00

 eigenvalues of (default mixing * dielectric matrix)
  average eigenvalue GAMMA=   2.3894
  9.6666  7.7505  5.9246  4.7073  3.5063  3.0472  2.4314  2.4314  2.2426  1.3844
  1.3844  1.1538  1.1538  0.9761  0.9761  1.1558  0.9733  0.9733  0.9328  0.9328
  0.9576  0.9576  0.8632  0.8632

 Free energy of the ion-electron system (eV)
  ---------------------------------------------------
  alpha Z        PSCENC =         0.02092140
  Ewald energy   TEWEN  =       572.88929994
  -Hartree energ DENC   =     -1369.14245937
  -exchange      EXHF   =         0.00000000
  -V(xc)+E(xc)   XCENC  =        68.32646350
  PAW double counting   =      1102.51447627    -1106.63647598
  entropy T*S    EENTRO =        -0.00000000
  eigenvalues    EBANDS =      -210.75428842
  atomic energy  EATOM  =       914.71016949
  Solvation  Ediel_sol  =         0.00000000
  ---------------------------------------------------
  free energy    TOTEN  =       -28.07189316 eV

  energy without entropy =      -28.07189316  energy(sigma->0) =      -28.07189316


--------------------------------------------------------------------------------------------------------




--------------------------------------- Iteration      1(  30)  ---------------------------------------


    POTLOK:  cpu time   21.8990: real time   21.9378
    SETDIJ:  cpu time    0.0439: real time    0.0439
     EDDAV:  cpu time    7.1864: real time    7.2113
       DOS:  cpu time    0.0001: real time    0.0001
    --------------------------------------------
      LOOP:  cpu time   29.1294: real time   29.1931

 eigenvalue-minimisations  :    16
 total energy-change (2. order) :-0.4500657E-07  (-0.8437588E-09)
 number of electron      15.9999999 magnetization 
 augmentation part        1.3789558 magnetization 

 Free energy of the ion-electron system (eV)
  ---------------------------------------------------
  alpha Z        PSCENC =         0.02092140
  Ewald energy   TEWEN  =       572.88929994
  -Hartree energ DENC   =     -1369.14246588
  -exchange      EXHF   =         0.00000000
  -V(xc)+E(xc)   XCENC  =        68.32646398
  PAW double counting   =      1102.51436928    -1106.63636961
  entropy T*S    EENTRO =        -0.00000000
  eigenvalues    EBANDS =      -210.75428181
  atomic energy  EATOM  =       914.71016949
  Solvation  Ediel_sol  =         0.00000000
  ---------------------------------------------------
  free energy    TOTEN  =       -28.07189321 eV

  energy without entropy =      -28.07189321  energy(sigma->0) =      -28.07189321


--------------------------------------------------------------------------------------------------------




 average (electrostatic) potential at core
  the test charge radii are     0.5201  0.7215
  (the norm of the test charge is              1.0000)
       1 -44.2433       2 -44.2407       3 -44.2448       4 -44.2366       5 -79.9596
       6 -79.9583
 
 
 
 E-fermi :  -6.3384     XC(G=0):  -0.0327     alpha+bet : -0.0061


 k-point     1 :       0.0000    0.0000    0.0000
  band No.  band energies     occupation 
      1     -24.9407      2.00000
      2     -24.7516      2.00000
      3     -12.6958      2.00000
      4     -12.5310      2.00000
      5      -9.5296      2.00000
      6      -7.6248      2.00000
      7      -6.8573      2.00000
      8      -6.4463      2.00000
      9      -0.8925      0.00000
     10      -0.3599      0.00000
     11      -0.0011      0.00000
     12       0.0988      0.00000


--------------------------------------------------------------------------------------------------------


 soft charge-density along one line, spin component            1
         0         1         2         3         4         5         6         7         8         9
 total charge-density along one line
 
 pseudopotential strength for first ion, spin component:            1
 -2.373  -4.097  -0.009  -0.014   0.000
 -4.097  -6.987  -0.019  -0.027   0.001
 -0.009  -0.019  -0.314   0.015  -0.000
 -0.014  -0.027   0.015  -0.304  -0.000
  0.000   0.001  -0.000  -0.000  -0.326
 total augmentation occupancy for first ion, spin component:            1
  3.795  -0.791   0.448   0.600  -0.014
 -0.791   0.221  -0.095  -0.117   0.003
  0.448  -0.095   0.074   0.058  -0.001
  0.600  -0.117   0.058   0.104  -0.001
 -0.014   0.003  -0.001  -0.001   0.044


------------------------ aborting loop because EDIFF is reached ----------------------------------------



 DIPCOR: dipole corrections for dipol
 direction  1 min pos   591, direction  2 min pos   554, direction  3 min pos   503,
 dipolmoment          -0.014872      0.000738      0.017574 electrons x Angstroem
 Tr[quadrupol]         4.444579

 energy correction for charged system         0.000000 eV
 dipol+quadrupol energy correction            0.000000 eV
 added-field ion interaction          0.000000 eV  (added to PSCEN)

 
  *************** adding dipol energy to TOTEN NOW **************** 
    CHARGE:  cpu time    3.2002: real time    3.2043
    FORLOC:  cpu time    0.8699: real time    0.8708
    FORNL :  cpu time    0.3034: real time    0.3039
    STRESS:  cpu time    4.1853: real time    4.1916
    FORCOR:  cpu time   21.2433: real time   21.2682
    FORHAR:  cpu time    6.3421: real time    6.3614
    MIXING:  cpu time    1.2904: real time    1.2922
    OFIELD:  cpu time    0.0000: real time    0.0000

  FORCE on cell =-STRESS in cart. coord.  units (eV):
  Direction    XX          YY          ZZ          XY          YZ          ZX
  --------------------------------------------------------------------------------------
  Alpha Z     0.02092     0.02092     0.02092
  Ewald     -49.82793   422.39389   200.32280     2.62005     1.52031    -4.00673
  Hartree   337.38620   649.46257   382.29381     0.68134    -0.00530    -0.72054
  E(xc)     -73.15391   -72.40065   -72.17443     0.00979     0.00787    -0.01572
  Local    -506.02460 -1248.63330  -728.25923    -2.61228    -0.87959     3.55947
  n-local   -61.66843   -62.46641   -60.55007    -0.00799     0.03298    -0.01709
  augment    16.22141    13.43562    11.42900    -0.04702    -0.04086     0.07693
  Kinetic   337.04529   301.71482   268.30514    -0.62852    -0.60247     1.10128
  Fock        0.00000     0.00000     0.00000     0.00000     0.00000     0.00000
  -------------------------------------------------------------------------------------
  Total      -0.00105     3.52746     1.38794     0.01537     0.03294    -0.02240
  in kB      -0.00004     0.13182     0.05187     0.00057     0.00123    -0.00084
  external pressure =        0.06 kB  Pullay stress =        0.00 kB


 VOLUME and BASIS-vectors are now :
 -----------------------------------------------------------------------------
  energy-cutoff  :     1600.00
  volume of cell :    42875.00
      direct lattice vectors                 reciprocal lattice vectors
    35.000000000  0.000000000  0.000000000     0.028571429  0.000000000  0.000000000
     0.000000000 35.000000000  0.000000000     0.000000000  0.028571429  0.000000000
     0.000000000  0.000000000 35.000000000     0.000000000  0.000000000  0.028571429

  length of vectors
    35.000000000 35.000000000 35.000000000     0.028571429  0.028571429  0.028571429


 FORCES acting on ions
    electron-ion (+dipol)            ewald-force                    non-local-force                 convergence-correction
 -----------------------------------------------------------------------------------------------
   -.172E+01 0.624E+02 0.754E+02   0.189E+01 -.678E+02 -.829E+02   -.160E+00 0.499E+01 0.698E+01   0.550E-06 -.212E-04 -.234E-04
   0.135E+01 0.632E+02 -.748E+02   -.149E+01 -.687E+02 0.822E+02   0.124E+00 0.507E+01 -.693E+01   -.393E-06 -.215E-04 0.231E-04
   -.278E+01 -.595E+02 0.777E+02   0.306E+01 0.645E+02 -.853E+02   -.259E+00 -.469E+01 0.718E+01   -.631E-06 -.137E-04 0.182E-04
   -.119E+01 -.660E+02 -.725E+02   0.131E+01 0.718E+02 0.796E+02   -.112E+00 -.534E+01 -.671E+01   -.261E-06 -.155E-04 -.168E-04
   0.360E+00 0.445E+02 -.610E+00   -.540E+00 0.753E+01 0.946E+00   0.179E+00 -.522E+02 -.345E+00   0.381E-07 -.350E-04 -.358E-06
   0.242E+01 -.446E+02 -.300E+01   -.423E+01 -.734E+01 0.544E+01   0.178E+01 0.522E+02 -.239E+01   0.182E-05 0.284E-05 0.374E-06
 -----------------------------------------------------------------------------------------------
   -.155E+01 0.677E-01 0.220E+01   0.000E+00 0.000E+00 -.533E-14   0.155E+01 -.676E-01 -.220E+01   0.113E-05 -.104E-03 0.116E-05
 
 
 POSITION                                       TOTAL-FORCE (eV/Angst)
 -----------------------------------------------------------------------------------
      0.01761      0.64046     34.23865         0.010167     -0.410748     -0.459569
     34.98662      0.63163      0.75455        -0.009484     -0.407226      0.457995
      0.02970      4.18138     34.21499         0.016426      0.374836     -0.477151
      0.01365      4.25327      0.72944         0.007382      0.441076      0.438857
      0.00000      1.22721      0.00000        -0.001495     -0.249625     -0.009149
      0.00000      3.62721      0.00000        -0.022997      0.251687      0.049016
 -----------------------------------------------------------------------------------
    total drift:                               -0.000000     -0.000070      0.000006


--------------------------------------------------------------------------------------------------------



  FREE ENERGIE OF THE ION-ELECTRON SYSTEM (eV)
  ---------------------------------------------------
  free  energy   TOTEN  =       -28.07189283 eV

  energy  without entropy=      -28.07189283  energy(sigma->0) =      -28.07189283
 


--------------------------------------------------------------------------------------------------------


    POTLOK:  cpu time   21.9568: real time   21.9924


--------------------------------------------------------------------------------------------------------


 writing wavefunctions
     LOOP+:  cpu time 1616.0081: real time 1617.9848
    4ORBIT:  cpu time    0.0000: real time    0.0000

 total amount of memory used by VASP MPI-rank0  3455162. kBytes
=======================================================================

   base      :      30000. kBytes
   nonl-proj :      87230. kBytes
   fftplans  :    1215227. kBytes
   grid      :    2104012. kBytes
   one-center:          1. kBytes
   wavefun   :      18692. kBytes
 
  
  
 General timing and accounting informations for this job:
 ========================================================
  
                  Total CPU time used (sec):     2250.313
                            User time (sec):     2119.818
                          System time (sec):      130.495
                         Elapsed time (sec):     2254.627
  
                   Maximum memory used (kb):     4269584.
                   Average memory used (kb):           0.
  
                          Minor page faults:     51395295
                          Major page faults:          395
                 Voluntary context switches:         9808
