
 Primary working directories    : /scratch/sirous/43163/molpro.0M7aWPmOwJ
 Secondary working directories  : /scratch/sirous/43163/molpro.0M7aWPmOwJ
 Wavefunction directory         : /scratch/sirous/43163/
 Main file repository           : /scratch/sirous/43163/molpro.0M7aWPmOwJ/

 id        : karlovklimes

 Nodes                      nprocs
 nc-09.cc.karlov.mff.cuni.cz    4

 Using customized tuning parameters: mindgm=1; mindgv=20; mindgc=4; mindgr=1; noblas=0; minvec=7
 default implementation of scratch files=sf  


 Variables initialized (934), CPU time= 0.01 sec
 ***,CH3C6H4CN+CF3CN+BF3
 memory,500,m
 gdirect
 gthresh,energy=1.d-8,twoint=1.d-15,oneint=1.d-15,zero=1.d-15,orbital=1.d-8,grid=1.d-8
 symmetry,nosym
 geomtyp=xyz
                                                                                 ! Geometry
 geometry={
 O1        -0.525329794    -0.050971084     -0.314516861
 H1        -0.942006633    0.747901631     0.011252816
 H2        0.403696525    0.059785981     -0.073568368
 O2        3.925659989209935    0.03348521221666982     0.19418105978529027
 H3        4.293642813209935    -0.5385921907833302     0.8717093867852903
 C1        4.390665060209935    -0.43814470378333015     -1.0679780502147098
 H4        3.959847965209935    0.21294898721666983     -1.8210920822147096
 H5        5.476628747209935    -0.3873518427833302     -1.1422899782147098
 H6        4.062322442209934    -1.45801420078333     -1.2670586842147098
 }
 
 
 
 basis=avqz
 
 
 
                                                                                 ! Dimer Calculation
 {rhf,accu=1.d-8;orbital,2101.2}
 eab_HF=energy
 
 
                                                                                 !monomer A
 dummy,4,5,6,7,8,9;                                                              ! NOW MONOMER B IS DUMMY
 {rhf,accu=1.d-8;orbital,2201.2}
 ea_HF=energy
                                                                                 !monomer B
 dummy,1,2,3;                                                                    !NOW MONOMER A IS DUMMY
 {rhf,accu=1.d-8;orbital,2301.2}
 eb_HF=energy
 
 E_AB_int=eab_HF-ea_HF-eb_HF
 
 
 text,results in hartree
 show,E_AB_int
 
 Commands  initialized (763), CPU time= 0.02 sec, 617 directives.
 Default parameters read. Elapsed time= 0.21 sec

 Checking input...
 Passed
1


                                         ***  PROGRAM SYSTEM MOLPRO  ***
                                       Copyright, TTI GmbH Stuttgart, 2015
                                    Version 2019.2 linked Jun  8 2019 11:26:33


 **********************************************************************************************************************************
 LABEL *   CH3C6H4CN+CF3CN+BF3                                                           
  64 bit mpp version                                                                     DATE: 06-Oct-19          TIME: 18:13:44  
 **********************************************************************************************************************************

 SHA1:             8135a10abc80eafa5b3ae28ffc55be4890dc4c84
 **********************************************************************************************************************************

 THRESHOLDS:

 ZERO    =  1.00D-15  ONEINT  =  1.00D-15  TWOINT  =  1.00D-15  PREFAC  =  1.00D-14  XXXXXX  =  1.00D-09  EORDER  =  1.00D-04
 ENERGY  =  1.00D-08  ETEST   =  0.00D+00  EDENS   =  0.00D+00  THRDEDEF=  1.00D-06  GRADIENT=  1.00D-02  STEP    =  1.00D-03
 ORBITAL =  1.00D-08  CIVEC   =  1.00D-05  COEFF   =  1.00D-04  PRINTCI =  5.00D-02  PUNCHCI =  9.90D+01  OPTGRAD =  3.00D-04
 OPTENERG=  1.00D-06  OPTSTEP =  3.00D-04  THRGRAD =  1.00D-10  COMPRESS=  1.00D-11  VARMIN  =  1.00D-07  VARMAX  =  1.00D-03
 THRDOUB =  0.00D+00  THRDIV  =  1.00D-05  THRRED  =  1.00D-07  THRPSP  =  1.00D+00  THRDC   =  1.00D-10  THRCS   =  1.00D-10
 THRNRM  =  1.00D-08  THREQ   =  0.00D+00  THRDE   =  1.00D+00  THRREF  =  1.00D-05  SPARFAC =  1.00D+00  THRDLP  =  1.00D-07
 THRDIA  =  1.00D-10  THRDLS  =  1.00D-07  THRGPS  =  0.00D+00  THRKEX  =  0.00D+00  THRDIS  =  2.00D-01  THRVAR  =  1.00D-10
 THRLOC  =  1.00D-06  THRGAP  =  1.00D-06  THRLOCT = -1.00D+00  THRGAPT = -1.00D+00  THRORB  =  1.00D-06  THRMLTP =  0.00D+00
 THRCPQCI=  1.00D-10  KEXTA   =  0.00D+00  THRCOARS=  0.00D+00  SYMTOL  =  1.00D-06  GRADTOL =  1.00D-06  THROVL  =  1.00D-08
 THRORTH =  1.00D-08  GRID    =  1.00D-08  GRIDMAX =  1.00D-03  DTMAX   =  0.00D+00  THROCCDE=  1.00D-01  THROCCDE=  1.00D-01
 THRPRINT=  2.50D-01


 Variable memory set to  500000000 words,  buffer space 

 SETTING GEOMTYP        =    XYZ
 ZSYMEL=NOSYM

 SETTING BASIS          =    AVQZ


 Recomputing integrals since basis changed


 Using spherical harmonics

 Library entry O      S aug-cc-pVQZ          selected for orbital group  1
 Library entry O      P aug-cc-pVQZ          selected for orbital group  1
 Library entry O      D aug-cc-pVQZ          selected for orbital group  1
 Library entry O      F aug-cc-pVQZ          selected for orbital group  1
 Library entry O      G aug-cc-pVQZ          selected for orbital group  1
 Library entry H      S aug-cc-pVQZ          selected for orbital group  2
 Library entry H      P aug-cc-pVQZ          selected for orbital group  2
 Library entry H      D aug-cc-pVQZ          selected for orbital group  2
 Library entry H      F aug-cc-pVQZ          selected for orbital group  2
 Library entry C      S aug-cc-pVQZ          selected for orbital group  5
 Library entry C      P aug-cc-pVQZ          selected for orbital group  5
 Library entry C      D aug-cc-pVQZ          selected for orbital group  5
 Library entry C      F aug-cc-pVQZ          selected for orbital group  5
 Library entry C      G aug-cc-pVQZ          selected for orbital group  5


 PROGRAM * SEWARD (Integral evaluation for generally contracted gaussian basis sets)     Author: Roland Lindh, 1990

 Geometry written to block  1 of record 700


 Point group  C1  



 ATOMIC COORDINATES

 NR  ATOM    CHARGE       X              Y              Z

   1  O1      8.00   -0.992729436   -0.096321389   -0.594350729
   2  H1      1.00   -1.780134544    1.413329251    0.021264740
   3  H2      1.00    0.762875870    0.112979130   -0.139024067
   4  O2      8.00    7.418422238    0.063277880    0.366949022
   5  H3      1.00    8.113808994   -1.017791733    1.647292001
   6  C1      6.00    8.297154468   -0.827973493   -2.018186022
   7  H4      1.00    7.483028149    0.402415264   -3.441365283
   8  H5      1.00   10.349328418   -0.731988897   -2.158615214
   9  H6      1.00    7.676676845   -2.755247525   -2.394393897

 Bond lengths in Bohr (Angstrom)

 1-2  1.810534248  1-3  1.825726996  4-5  1.814263596  4-6  2.693579128  6-7  2.049901795
     ( 0.958093464)     ( 0.966133120)     ( 0.960066950)     ( 1.425380690)     ( 1.084761314)

 6-8  2.059211335  6-9  2.059346994
     ( 1.089687711)     ( 1.089759498)

 Bond angles

  2-1-3  103.75741034   4-6-7  106.65459099   4-6-8  111.72059382   4-6-9  111.90879545

  5-4-6  107.61952492   7-6-8  108.69153234   7-6-9  108.37480423   8-6-9  109.35579191

 NUCLEAR CHARGE:                   28
 NUMBER OF PRIMITIVE AOS:         696
 NUMBER OF SYMMETRY AOS:          567
 NUMBER OF CONTRACTIONS:          516   (  516A   )
 NUMBER OF CORE ORBITALS:           3   (    3A   )
 NUMBER OF VALENCE ORBITALS:       18   (   18A   )


 NUCLEAR REPULSION ENERGY   69.66128203


 Eigenvalues of metric

         1 0.141E-04 0.233E-04 0.296E-04 0.333E-04 0.647E-04 0.678E-04 0.805E-04 0.863E-04


 OPERATOR DM      FOR CENTER  0  COORDINATES:    0.000000    0.000000    0.000000


 **********************************************************************************************************************************
 DATASETS  * FILE   NREC   LENGTH (MB)   RECORD NAMES
              1      18       39.85       500      610      700      900      950      970     1000      129      960     1100   
                                          VAR    BASINP    GEOM    SYMINP    ZMAT    AOBASIS   BASIS     P2S    ABASIS      S 
                                         1400     1410     1200     1210     1080     1600     1650     1700   
                                           T        V       H0       H01     AOSYM     SMH    MOLCAS    OPER   

 PROGRAMS   *        TOTAL       INT
 CPU TIMES  *         0.81      0.64
 REAL TIME  *         2.17 SEC
 DISK USED  *        40.42 MB (local),      161.67 MB (total)
 GA USED    *         0.00 MB       (max)       0.00 MB       (current)
 **********************************************************************************************************************************


 PROGRAM * RHF-SCF (CLOSED SHELL)       Authors: W. Meyer, H.-J. Werner


 NUMBER OF ELECTRONS:      14+   14-    SPACE SYMMETRY=1    SPIN SYMMETRY: Singlet 
 CONVERGENCE THRESHOLDS:    1.00E-04 (Density)    1.00E-09 (Energy)
 INTEGRAL THRESHOLDS:       1.00E-11 (Initial)    1.00E-11 (Final)
 MAX. NUMBER OF ITERATIONS:       60
 INTERPOLATION TYPE:            DIIS
 INTERPOLATION STEPS:              2 (START)      1 (STEP)
 LEVEL SHIFTS:                  0.00 (CLOSED)  0.00 (OPEN) 



 Orbital guess generated from atomic densities. Full valence occupancy:   21

 Molecular orbital dump at record        2101.2

 Initial occupancy:  14

 Direct Fock-matrix evaluation.        Authors: Roland Lindh & Martin Schuetz (1993/96)

 Integral Threshold:                  0.1D-10
 Threshold for writing integrals:     0.1D-06
 Prescreening on density matrix:        ON 
 Calculation will be performed fully direct        

 ITERATION   DDIFF            GRAD            ENERGY        2-EL.EN.            DIPOLE MOMENTS         DIIS   CPU(IT)  CPU(TOT)
    1      0.000D+00      0.000D+00      -191.09376884    282.338621    1.11836    0.05617    0.47164    0     89.6     94.8     start
    2      0.000D+00      0.347D-02      -191.14822937    276.253684    0.69767    0.04256    0.23041    1     86.1    180.9     diag
    3      0.250D-02      0.204D-02      -191.16632055    279.055386    0.81739    0.03739    0.24821    2     82.6    263.5     diag
    4      0.915D-03      0.283D-03      -191.16702079    278.797647    0.81438    0.03327    0.24556    3     79.8    343.3     diag
    5      0.170D-03      0.659D-04      -191.16707527    278.824478    0.81420    0.03225    0.23826    4     75.8    419.1     diag
    6      0.468D-04      0.142D-04      -191.16707796    278.819750    0.81424    0.03271    0.23799    5     70.1    489.2     diag
    7      0.131D-04      0.638D-05      -191.16707825    278.820187    0.81438    0.03221    0.23746    6     64.0    553.3     diag
    8      0.375D-05      0.147D-05      -191.16707828    278.820263    0.81433    0.03228    0.23731    7     61.0    614.3     diag
    9      0.152D-05      0.321D-06      -191.16707828    278.820264    0.81432    0.03225    0.23730    0     52.6    666.9     orth

 Final occupancy:  14

 !RHF STATE  1.1 Energy              -191.167078284997
 Nuclear energy                        69.66128203
 One-electron energy                 -400.23849213
 Two-electron energy                  139.41013182
 Virial quotient                       -1.00113173
 !RHF STATE  1.1 Dipole moment          0.81432391     0.03225258     0.23729873
 Dipole moment /Debye                   2.06966936     0.08197252     0.60311370

 Orbital energies:

         1.1          2.1          3.1          4.1          5.1          6.1          7.1          8.1          9.1         10.1
    -20.563489   -20.557240   -11.274312    -1.362512    -1.342405    -0.931750    -0.705130    -0.696686    -0.626684    -0.598458

        11.1         12.1         13.1         14.1         15.1         16.1
     -0.577430    -0.511727    -0.502017    -0.459273     0.023301     0.034184


 HOMO     14.1    -0.459273 =     -12.4975eV
 LUMO     15.1     0.023301 =       0.6341eV
 LUMO-HOMO         0.482574 =      13.1315eV


 **********************************************************************************************************************************
 DATASETS  * FILE   NREC   LENGTH (MB)   RECORD NAMES
              1      18       39.85       500      610      700      900      950      970     1000      129      960     1100   
                                          VAR    BASINP    GEOM    SYMINP    ZMAT    AOBASIS   BASIS     P2S    ABASIS      S 
                                         1400     1410     1200     1210     1080     1600     1650     1700   
                                           T        V       H0       H01     AOSYM     SMH    MOLCAS    OPER   

              2       4        8.31       700     1000      520     2101   
                                         GEOM     BASIS   MCVARS     RHF  

 PROGRAMS   *        TOTAL   RHF-SCF       INT
 CPU TIMES  *       667.93    667.12      0.64
 REAL TIME  *       672.53 SEC
 DISK USED  *        65.35 MB (local),      261.42 MB (total)
 SF USED    *         3.20 MB
 GA USED    *         0.00 MB       (max)       0.00 MB       (current)
 **********************************************************************************************************************************
 SETTING EAB_HF         =      -191.16707828  AU                              

 Dummy atoms: O2  H3  C1  H4  H5  H6


 Recomputing one-electron integrals since nuclear charges changed


 PROGRAM * SEWARD (Integral evaluation for generally contracted gaussian basis sets)     Author: Roland Lindh, 1990

 Geometry written to block  1 of record 700


 Point group  C1  



 ATOMIC COORDINATES

 NR  ATOM    CHARGE       X              Y              Z

   1  O1      8.00   -0.992729436   -0.096321389   -0.594350729
   2  H1      1.00   -1.780134544    1.413329251    0.021264740
   3  H2      1.00    0.762875870    0.112979130   -0.139024067
   4  O2      0.00    7.418422238    0.063277880    0.366949022
   5  H3      0.00    8.113808994   -1.017791733    1.647292001
   6  C1      0.00    8.297154468   -0.827973493   -2.018186022
   7  H4      0.00    7.483028149    0.402415264   -3.441365283
   8  H5      0.00   10.349328418   -0.731988897   -2.158615214
   9  H6      0.00    7.676676845   -2.755247525   -2.394393897

 Bond lengths in Bohr (Angstrom)

 1-2  1.810534248  1-3  1.825726996  4-5  1.814263596  4-6  2.693579128  6-7  2.049901795
     ( 0.958093464)     ( 0.966133120)     ( 0.960066950)     ( 1.425380690)     ( 1.084761314)

 6-8  2.059211335  6-9  2.059346994
     ( 1.089687711)     ( 1.089759498)

 Bond angles

  2-1-3  103.75741034   4-6-7  106.65459099   4-6-8  111.72059382   4-6-9  111.90879545

  5-4-6  107.61952492   7-6-8  108.69153234   7-6-9  108.37480423   8-6-9  109.35579191

 NUCLEAR CHARGE:                   10
 NUMBER OF PRIMITIVE AOS:         696
 NUMBER OF SYMMETRY AOS:          567
 NUMBER OF CONTRACTIONS:          516   (  516A   )
 NUMBER OF CORE ORBITALS:           1   (    1A   )
 NUMBER OF VALENCE ORBITALS:        6   (    6A   )

 MOLECULE CHANGED: INITIALIZING OCCUPATION AND DUMP RECORDS


 NUCLEAR REPULSION ENERGY    9.14996834


 Eigenvalues of metric

         1 0.141E-04 0.233E-04 0.296E-04 0.333E-04 0.647E-04 0.678E-04 0.805E-04 0.863E-04


 OPERATOR DM      FOR CENTER  0  COORDINATES:    0.000000    0.000000    0.000000


 **********************************************************************************************************************************
 DATASETS  * FILE   NREC   LENGTH (MB)   RECORD NAMES
              1      18       39.85       500      610      700      900      950      970     1000      129      960     1100   
                                          VAR    BASINP    GEOM    SYMINP    ZMAT    AOBASIS   BASIS     P2S    ABASIS      S 
                                         1400     1410     1200     1210     1080     1600     1650     1700   
                                           T        V       H0       H01     AOSYM     SMH    MOLCAS    OPER   

              2       4        8.31       700     1000      520     2101   
                                         GEOM     BASIS   MCVARS     RHF  

 PROGRAMS   *        TOTAL       INT   RHF-SCF       INT
 CPU TIMES  *       668.28      0.34    667.12      0.64
 REAL TIME  *       672.98 SEC
 DISK USED  *        65.35 MB (local),      261.42 MB (total)
 SF USED    *         3.20 MB
 GA USED    *         0.00 MB       (max)       0.00 MB       (current)
 **********************************************************************************************************************************


 PROGRAM * RHF-SCF (CLOSED SHELL)       Authors: W. Meyer, H.-J. Werner


 NUMBER OF ELECTRONS:       5+    5-    SPACE SYMMETRY=1    SPIN SYMMETRY: Singlet 
 CONVERGENCE THRESHOLDS:    1.00E-04 (Density)    1.00E-09 (Energy)
 INTEGRAL THRESHOLDS:       1.00E-11 (Initial)    1.00E-11 (Final)
 MAX. NUMBER OF ITERATIONS:       60
 INTERPOLATION TYPE:            DIIS
 INTERPOLATION STEPS:              2 (START)      1 (STEP)
 LEVEL SHIFTS:                  0.00 (CLOSED)  0.00 (OPEN) 



 Orbital guess generated from atomic densities. Full valence occupancy:    7

 Molecular orbital dump at record        2201.2

 Initial occupancy:   5

 Direct Fock-matrix evaluation.        Authors: Roland Lindh & Martin Schuetz (1993/96)

 Integral Threshold:                  0.1D-10
 Threshold for writing integrals:     0.1D-06
 Prescreening on density matrix:        ON 
 Calculation will be performed fully direct        

 ITERATION   DDIFF            GRAD            ENERGY        2-EL.EN.            DIPOLE MOMENTS         DIIS   CPU(IT)  CPU(TOT)
    1      0.000D+00      0.000D+00       -76.02719152     77.614111    0.49662    0.87649    0.54668    0     83.1     87.1     start
    2      0.000D+00      0.430D-02       -76.05416750     74.014502    0.28956    0.51617    0.32140    1     79.2    166.3     diag
    3      0.189D-02      0.269D-02       -76.06532251     75.602638    0.34072    0.60626    0.37761    2     75.4    241.7     diag
    4      0.704D-03      0.254D-03       -76.06550810     75.512268    0.33862    0.60349    0.37577    3     67.5    309.3     diag
    5      0.878D-04      0.690D-04       -76.06552708     75.526284    0.33785    0.60253    0.37513    4     64.7    374.0     diag
    6      0.268D-04      0.133D-04       -76.06552822     75.525384    0.33770    0.60238    0.37502    5     58.0    432.0     diag
    7      0.651D-05      0.264D-05       -76.06552828     75.525521    0.33764    0.60231    0.37498    6     53.1    485.1     diag
    8      0.184D-05      0.504D-06       -76.06552828     75.525456    0.33763    0.60230    0.37497    0     41.3    526.3     orth

 Final occupancy:   5

 !RHF STATE  1.1 Energy               -76.065528278055
 Nuclear energy                         9.14996834
 One-electron energy                 -122.97822471
 Two-electron energy                   37.76272810
 Virial quotient                       -1.00118345
 !RHF STATE  1.1 Dipole moment          0.33763065     0.60229556     0.37496546
 Dipole moment /Debye                   0.85811531     1.53078235     0.95300472

 Orbital energies:

         1.1          2.1          3.1          4.1          5.1          6.1          7.1
    -20.565931    -1.350923    -0.713685    -0.585532    -0.510313     0.016729     0.031377


 HOMO      5.1    -0.510313 =     -13.8863eV
 LUMO      6.1     0.016729 =       0.4552eV
 LUMO-HOMO         0.527042 =      14.3415eV


 **********************************************************************************************************************************
 DATASETS  * FILE   NREC   LENGTH (MB)   RECORD NAMES
              1      18       39.85       500      610      700      900      950      970     1000      129      960     1100   
                                          VAR    BASINP    GEOM    SYMINP    ZMAT    AOBASIS   BASIS     P2S    ABASIS      S 
                                         1400     1410     1200     1210     1080     1600     1650     1700   
                                           T        V       H0       H01     AOSYM     SMH    MOLCAS    OPER   

              2       5       21.48       700     1000      520     2101     2201   
                                         GEOM     BASIS   MCVARS     RHF      RHF  

 PROGRAMS   *        TOTAL   RHF-SCF       INT   RHF-SCF       INT
 CPU TIMES  *      1194.84    526.56      0.34    667.12      0.64
 REAL TIME  *      1201.20 SEC
 DISK USED  *        77.46 MB (local),      309.84 MB (total)
 SF USED    *         3.20 MB
 GA USED    *         0.00 MB       (max)       0.00 MB       (current)
 **********************************************************************************************************************************
 SETTING EA_HF          =       -76.06552828  AU                              

 Dummy atoms: O1  H1  H2


 Recomputing one-electron integrals since nuclear charges changed


 PROGRAM * SEWARD (Integral evaluation for generally contracted gaussian basis sets)     Author: Roland Lindh, 1990

 Geometry written to block  1 of record 700


 Point group  C1  



 ATOMIC COORDINATES

 NR  ATOM    CHARGE       X              Y              Z

   1  O1      0.00   -0.992729436   -0.096321389   -0.594350729
   2  H1      0.00   -1.780134544    1.413329251    0.021264740
   3  H2      0.00    0.762875870    0.112979130   -0.139024067
   4  O2      8.00    7.418422238    0.063277880    0.366949022
   5  H3      1.00    8.113808994   -1.017791733    1.647292001
   6  C1      6.00    8.297154468   -0.827973493   -2.018186022
   7  H4      1.00    7.483028149    0.402415264   -3.441365283
   8  H5      1.00   10.349328418   -0.731988897   -2.158615214
   9  H6      1.00    7.676676845   -2.755247525   -2.394393897

 Bond lengths in Bohr (Angstrom)

 1-2  1.810534248  1-3  1.825726996  4-5  1.814263596  4-6  2.693579128  6-7  2.049901795
     ( 0.958093464)     ( 0.966133120)     ( 0.960066950)     ( 1.425380690)     ( 1.084761314)

 6-8  2.059211335  6-9  2.059346994
     ( 1.089687711)     ( 1.089759498)

 Bond angles

  2-1-3  103.75741034   4-6-7  106.65459099   4-6-8  111.72059382   4-6-9  111.90879545

  5-4-6  107.61952492   7-6-8  108.69153234   7-6-9  108.37480423   8-6-9  109.35579191

 NUCLEAR CHARGE:                   18
 NUMBER OF PRIMITIVE AOS:         696
 NUMBER OF SYMMETRY AOS:          567
 NUMBER OF CONTRACTIONS:          516   (  516A   )
 NUMBER OF CORE ORBITALS:           2   (    2A   )
 NUMBER OF VALENCE ORBITALS:       12   (   12A   )

 MOLECULE CHANGED: INITIALIZING OCCUPATION AND DUMP RECORDS


 NUCLEAR REPULSION ENERGY   40.29463209


 Eigenvalues of metric

         1 0.141E-04 0.233E-04 0.296E-04 0.333E-04 0.647E-04 0.678E-04 0.805E-04 0.863E-04


 OPERATOR DM      FOR CENTER  0  COORDINATES:    0.000000    0.000000    0.000000


 **********************************************************************************************************************************
 DATASETS  * FILE   NREC   LENGTH (MB)   RECORD NAMES
              1      18       39.85       500      610      700      900      950      970     1000      129      960     1100   
                                          VAR    BASINP    GEOM    SYMINP    ZMAT    AOBASIS   BASIS     P2S    ABASIS      S 
                                         1400     1410     1200     1210     1080     1600     1650     1700   
                                           T        V       H0       H01     AOSYM     SMH    MOLCAS    OPER   

              2       5       21.48       700     1000      520     2101     2201   
                                         GEOM     BASIS   MCVARS     RHF      RHF  

 PROGRAMS   *        TOTAL       INT   RHF-SCF       INT   RHF-SCF       INT
 CPU TIMES  *      1195.17      0.31    526.56      0.34    667.12      0.64
 REAL TIME  *      1201.65 SEC
 DISK USED  *        77.46 MB (local),      309.84 MB (total)
 SF USED    *         3.20 MB
 GA USED    *         0.00 MB       (max)       0.00 MB       (current)
 **********************************************************************************************************************************


 PROGRAM * RHF-SCF (CLOSED SHELL)       Authors: W. Meyer, H.-J. Werner


 NUMBER OF ELECTRONS:       9+    9-    SPACE SYMMETRY=1    SPIN SYMMETRY: Singlet 
 CONVERGENCE THRESHOLDS:    1.00E-04 (Density)    1.00E-09 (Energy)
 INTEGRAL THRESHOLDS:       1.00E-11 (Initial)    1.00E-11 (Final)
 MAX. NUMBER OF ITERATIONS:       60
 INTERPOLATION TYPE:            DIIS
 INTERPOLATION STEPS:              2 (START)      1 (STEP)
 LEVEL SHIFTS:                  0.00 (CLOSED)  0.00 (OPEN) 



 Orbital guess generated from atomic densities. Full valence occupancy:   14

 Molecular orbital dump at record        2301.2

 Initial occupancy:   9

 Direct Fock-matrix evaluation.        Authors: Roland Lindh & Martin Schuetz (1993/96)

 Integral Threshold:                  0.1D-10
 Threshold for writing integrals:     0.1D-06
 Prescreening on density matrix:        ON 
 Calculation will be performed fully direct        

 ITERATION   DDIFF            GRAD            ENERGY        2-EL.EN.            DIPOLE MOMENTS         DIIS   CPU(IT)  CPU(TOT)
    1      0.000D+00      0.000D+00      -115.06307956    164.390536    0.61924   -0.82028   -0.07512    0     88.3     93.3     start
    2      0.000D+00      0.292D-02      -115.09140882    161.810605    0.35075   -0.46012   -0.07909    1     83.5    176.8     diag
    3      0.167D-02      0.160D-02      -115.09895953    163.072768    0.43395   -0.56626   -0.12250    2     79.6    256.4     diag
    4      0.600D-03      0.315D-03      -115.09949310    162.897992    0.42993   -0.56113   -0.12010    3     76.1    332.5     diag
    5      0.150D-03      0.631D-04      -115.09952749    162.908899    0.42930   -0.55955   -0.12611    4     71.8    404.3     diag
    6      0.379D-04      0.119D-04      -115.09952906    162.906758    0.42964   -0.55993   -0.12675    5     66.4    470.7     diag
    7      0.108D-04      0.253D-05      -115.09952914    162.906337    0.42964   -0.55989   -0.12708    6     59.2    530.0     diag
    8      0.241D-05      0.669D-06      -115.09952914    162.906701    0.42964   -0.55989   -0.12710    0     52.6    582.6     orth

 Final occupancy:   9

 !RHF STATE  1.1 Energy              -115.099529139077
 Nuclear energy                        40.29463209
 One-electron energy                 -236.84751151
 Two-electron energy                   81.45335028
 Virial quotient                       -1.00107323
 !RHF STATE  1.1 Dipole moment          0.42963781    -0.55988908    -0.12709962
 Dipole moment /Debye                   1.09195885    -1.42300290    -0.32303386

 Orbital energies:

         1.1          2.1          3.1          4.1          5.1          6.1          7.1          8.1          9.1         10.1
    -20.556366   -11.269680    -1.355507    -0.926629    -0.690275    -0.621193    -0.592295    -0.505609    -0.452852     0.024041

        11.1
      0.033932


 HOMO      9.1    -0.452852 =     -12.3227eV
 LUMO     10.1     0.024041 =       0.6542eV
 LUMO-HOMO         0.476893 =      12.9769eV


 **********************************************************************************************************************************
 DATASETS  * FILE   NREC   LENGTH (MB)   RECORD NAMES
              1      18       39.85       500      610      700      900      950      970     1000      129      960     1100   
                                          VAR    BASINP    GEOM    SYMINP    ZMAT    AOBASIS   BASIS     P2S    ABASIS      S 
                                         1400     1410     1200     1210     1080     1600     1650     1700   
                                           T        V       H0       H01     AOSYM     SMH    MOLCAS    OPER   

              2       6       34.65       700     1000      520     2101     2201     2301   
                                         GEOM     BASIS   MCVARS     RHF      RHF      RHF  

 PROGRAMS   *        TOTAL   RHF-SCF       INT   RHF-SCF       INT   RHF-SCF       INT
 CPU TIMES  *      1777.94    582.77      0.31    526.56      0.34    667.12      0.64
 REAL TIME  *      1786.51 SEC
 DISK USED  *        90.63 MB (local),      362.54 MB (total)
 SF USED    *         3.20 MB
 GA USED    *         0.00 MB       (max)       0.00 MB       (current)
 **********************************************************************************************************************************
 SETTING EB_HF          =      -115.09952914  AU                              
 SETTING E_AB_INT       =        -0.00202087  AU                              

 *** results in hartree
 E_AB_INT         =        -0.00202087 AU
 Molecular orbitals read from record     2301.2  Type=RHF/CANONICAL (state 1.1)
 Occupation numbers read from record     2301.2  Type=RHF/RHF (state 1.1)
 Orbital energies read from record       2301.2  Type=RHF/CANONICAL (state 1.1)
 Redundancy group numbers read from rec  2301.2  Type=RHF/RHF (state 1.1)

 RHF/aug-cc-pVQZ energy=   -115.099529139077

         RHF-SCF         RHF-SCF         RHF-SCF
   -115.09952914    -76.06552828   -191.16707828
 **********************************************************************************************************************************
 Molpro calculation terminated
