
 Primary working directories    : /scratch/sirous/43326/molpro.wI0Uy4NC1K
 Secondary working directories  : /scratch/sirous/43326/molpro.wI0Uy4NC1K
 Wavefunction directory         : /scratch/sirous/43326/
 Main file repository           : /scratch/sirous/43326/molpro.wI0Uy4NC1K/

 id        : karlovklimes

 Nodes                      nprocs
 nc-01.cc.karlov.mff.cuni.cz    4

 Using customized tuning parameters: mindgm=1; mindgv=20; mindgc=4; mindgr=1; noblas=0; minvec=7
 default implementation of scratch files=sf  


 Variables initialized (934), CPU time= 0.01 sec
 ***,CH3C6H4CN+CF3CN+BF3
 memory,500,m
 gdirect
 gthresh,energy=1.d-8,twoint=1.d-15,oneint=1.d-15,zero=1.d-15,orbital=1.d-8,grid=1.d-8
 symmetry,nosym
 geomtyp=xyz
                                                                                 ! Geometry
 geometry={
 O1        -0.687464896    -0.111744327     -0.019625472
 H1        -1.046121544    0.775938208     0.012706845
 H2        0.274042519    0.025850654     -0.003497262
 N1        4.495833393617138    0.1924273666307053     0.01664511499279341
 H3        4.791197824617138    -0.36021060836929475     -0.7781457480072066
 H4        4.8059138886171375    -0.3182937243692947     0.8335046079927935
 C1        5.155168670617138    1.5007913316307053     -0.023596523007206594
 H5        4.844626248617137    2.0825162916307054     0.8409188969927934
 H6        6.2464779606171374    1.4614963596307053     -0.03255219200720659
 H7        4.828456398617138    2.0367088006307053     -0.9114203350072065
 }
 
 
 
 basis=avtz
 
 
 
                                                                                 ! Dimer Calculation
 {rhf,accu=1.d-8;orbital,2101.2}
 eab_HF=energy
 
 
                                                                                 !monomer A
 dummy,4,5,6,7,8,9,10;                                                           ! NOW MONOMER B IS DUMMY
 {rhf,accu=1.d-8;orbital,2201.2}
 ea_HF=energy
                                                                                 !monomer B
 dummy,1,2,3;                                                                    !NOW MONOMER A IS DUMMY
 {rhf,accu=1.d-8;orbital,2301.2}
 eb_HF=energy
 
 E_AB_int=eab_HF-ea_HF-eb_HF
 
 
 text,results in hartree
 show,E_AB_int
 
 Commands  initialized (763), CPU time= 0.02 sec, 617 directives.
 Default parameters read. Elapsed time= 0.22 sec

 Checking input...
 Passed
1


                                         ***  PROGRAM SYSTEM MOLPRO  ***
                                       Copyright, TTI GmbH Stuttgart, 2015
                                    Version 2019.2 linked Jun  8 2019 11:26:33


 **********************************************************************************************************************************
 LABEL *   CH3C6H4CN+CF3CN+BF3                                                           
  64 bit mpp version                                                                     DATE: 06-Oct-19          TIME: 19:53:41  
 **********************************************************************************************************************************

 SHA1:             8135a10abc80eafa5b3ae28ffc55be4890dc4c84
 **********************************************************************************************************************************

 THRESHOLDS:

 ZERO    =  1.00D-15  ONEINT  =  1.00D-15  TWOINT  =  1.00D-15  PREFAC  =  1.00D-14  XXXXXX  =  1.00D-09  EORDER  =  1.00D-04
 ENERGY  =  1.00D-08  ETEST   =  0.00D+00  EDENS   =  0.00D+00  THRDEDEF=  1.00D-06  GRADIENT=  1.00D-02  STEP    =  1.00D-03
 ORBITAL =  1.00D-08  CIVEC   =  1.00D-05  COEFF   =  1.00D-04  PRINTCI =  5.00D-02  PUNCHCI =  9.90D+01  OPTGRAD =  3.00D-04
 OPTENERG=  1.00D-06  OPTSTEP =  3.00D-04  THRGRAD =  1.00D-10  COMPRESS=  1.00D-11  VARMIN  =  1.00D-07  VARMAX  =  1.00D-03
 THRDOUB =  0.00D+00  THRDIV  =  1.00D-05  THRRED  =  1.00D-07  THRPSP  =  1.00D+00  THRDC   =  1.00D-10  THRCS   =  1.00D-10
 THRNRM  =  1.00D-08  THREQ   =  0.00D+00  THRDE   =  1.00D+00  THRREF  =  1.00D-05  SPARFAC =  1.00D+00  THRDLP  =  1.00D-07
 THRDIA  =  1.00D-10  THRDLS  =  1.00D-07  THRGPS  =  0.00D+00  THRKEX  =  0.00D+00  THRDIS  =  2.00D-01  THRVAR  =  1.00D-10
 THRLOC  =  1.00D-06  THRGAP  =  1.00D-06  THRLOCT = -1.00D+00  THRGAPT = -1.00D+00  THRORB  =  1.00D-06  THRMLTP =  0.00D+00
 THRCPQCI=  1.00D-10  KEXTA   =  0.00D+00  THRCOARS=  0.00D+00  SYMTOL  =  1.00D-06  GRADTOL =  1.00D-06  THROVL  =  1.00D-08
 THRORTH =  1.00D-08  GRID    =  1.00D-08  GRIDMAX =  1.00D-03  DTMAX   =  0.00D+00  THROCCDE=  1.00D-01  THROCCDE=  1.00D-01
 THRPRINT=  2.50D-01


 Variable memory set to  500000000 words,  buffer space 

 SETTING GEOMTYP        =    XYZ
 ZSYMEL=NOSYM

 SETTING BASIS          =    AVTZ


 Recomputing integrals since basis changed


 Using spherical harmonics

 Library entry O      S aug-cc-pVTZ          selected for orbital group  1
 Library entry O      P aug-cc-pVTZ          selected for orbital group  1
 Library entry O      D aug-cc-pVTZ          selected for orbital group  1
 Library entry O      F aug-cc-pVTZ          selected for orbital group  1
 Library entry H      S aug-cc-pVTZ          selected for orbital group  2
 Library entry H      P aug-cc-pVTZ          selected for orbital group  2
 Library entry H      D aug-cc-pVTZ          selected for orbital group  2
 Library entry N      S aug-cc-pVTZ          selected for orbital group  3
 Library entry N      P aug-cc-pVTZ          selected for orbital group  3
 Library entry N      D aug-cc-pVTZ          selected for orbital group  3
 Library entry N      F aug-cc-pVTZ          selected for orbital group  3
 Library entry C      S aug-cc-pVTZ          selected for orbital group  5
 Library entry C      P aug-cc-pVTZ          selected for orbital group  5
 Library entry C      D aug-cc-pVTZ          selected for orbital group  5
 Library entry C      F aug-cc-pVTZ          selected for orbital group  5


 PROGRAM * SEWARD (Integral evaluation for generally contracted gaussian basis sets)     Author: Roland Lindh, 1990

 Geometry written to block  1 of record 700


 Point group  C1  



 ATOMIC COORDINATES

 NR  ATOM    CHARGE       X              Y              Z

   1  O1      8.00   -1.299120374   -0.211166174   -0.037086767
   2  H1      1.00   -1.976883211    1.466310703    0.024012457
   3  H2      1.00    0.517865307    0.048850656   -0.006608867
   4  N1      7.00    8.495893816    0.363635022    0.031454709
   5  H3      1.00    9.054051697   -0.680699397   -1.470482349
   6  H4      1.00    9.081861028   -0.601487966    1.575095433
   7  C1      6.00    9.741856913    2.836084587   -0.044590966
   8  H5      1.00    9.155016786    3.935385441    1.589106408
   9  H6      1.00   11.804132589    2.761827852   -0.061514728
  10  H7      1.00    9.124460198    3.848821829   -1.722334818

 Bond lengths in Bohr (Angstrom)

 1-2  1.810255300  1-3  1.835749062  4-5  1.912587128  4-6  1.912497488  4-7  2.769695622
     ( 0.957945851)     ( 0.971436569)     ( 1.012097522)     ( 1.012050086)     ( 1.465659804)

  7- 8  2.054704556   7- 9  2.063681525   7-10  2.054662955
       ( 1.087302826)       ( 1.092053234)       ( 1.087280812)

 Bond angles

  2- 1- 3  103.81354080   4- 7- 8  109.10407840   4- 7- 9  114.68652183   4- 7-10  109.10154196

  5-4-6  105.59704101   5-4-7  109.54744639   6-4-7  109.56111076   8-7-9  108.13067149

  8- 7-10  107.44041837   9- 7-10  108.13881681

 NUCLEAR CHARGE:                   28
 NUMBER OF PRIMITIVE AOS:         390
 NUMBER OF SYMMETRY AOS:          349
 NUMBER OF CONTRACTIONS:          299   (  299A   )
 NUMBER OF CORE ORBITALS:           3   (    3A   )
 NUMBER OF VALENCE ORBITALS:       19   (   19A   )


 NUCLEAR REPULSION ENERGY   68.23801224


 Eigenvalues of metric

         1 0.376E-04 0.612E-04 0.620E-04 0.115E-03 0.157E-03 0.240E-03 0.316E-03 0.378E-03


 OPERATOR DM      FOR CENTER  0  COORDINATES:    0.000000    0.000000    0.000000


 **********************************************************************************************************************************
 DATASETS  * FILE   NREC   LENGTH (MB)   RECORD NAMES
              1      18       33.42       500      610      700      900      950      970     1000      129      960     1100   
                                          VAR    BASINP    GEOM    SYMINP    ZMAT    AOBASIS   BASIS     P2S    ABASIS      S 
                                         1400     1410     1200     1210     1080     1600     1650     1700   
                                           T        V       H0       H01     AOSYM     SMH    MOLCAS    OPER   

 PROGRAMS   *        TOTAL       INT
 CPU TIMES  *         0.66      0.47
 REAL TIME  *         3.10 SEC
 DISK USED  *        33.92 MB (local),      135.69 MB (total)
 GA USED    *         0.00 MB       (max)       0.00 MB       (current)
 **********************************************************************************************************************************


 PROGRAM * RHF-SCF (CLOSED SHELL)       Authors: W. Meyer, H.-J. Werner


 NUMBER OF ELECTRONS:      14+   14-    SPACE SYMMETRY=1    SPIN SYMMETRY: Singlet 
 CONVERGENCE THRESHOLDS:    1.00E-04 (Density)    1.00E-09 (Energy)
 INTEGRAL THRESHOLDS:       1.00E-11 (Initial)    1.00E-11 (Final)
 MAX. NUMBER OF ITERATIONS:       60
 INTERPOLATION TYPE:            DIIS
 INTERPOLATION STEPS:              2 (START)      1 (STEP)
 LEVEL SHIFTS:                  0.00 (CLOSED)  0.00 (OPEN) 



 Orbital guess generated from atomic densities. Full valence occupancy:   22

 Molecular orbital dump at record        2101.2

 Initial occupancy:  14

 Direct Fock-matrix evaluation.        Authors: Roland Lindh & Martin Schuetz (1993/96)

 Integral Threshold:                  0.1D-10
 Threshold for writing integrals:     0.1D-06
 Prescreening on density matrix:        ON 
 Calculation will be performed fully direct        

 ITERATION   DDIFF            GRAD            ENERGY        2-EL.EN.            DIPOLE MOMENTS         DIIS   CPU(IT)  CPU(TOT)
    1      0.000D+00      0.000D+00      -171.24973332    261.194859    1.34169    0.76220    0.04565    0     11.6     14.4     start
    2      0.000D+00      0.418D-02      -171.30161149    255.568094    0.85965    0.48759    0.02513    1     10.0     24.3     diag
    3      0.452D-02      0.236D-02      -171.31602393    258.065729    0.99887    0.59758    0.02950    2      9.3     33.6     diag
    4      0.146D-02      0.376D-03      -171.31679278    257.857392    1.00760    0.59111    0.02887    3      9.4     43.0     diag
    5      0.340D-03      0.892D-04      -171.31684940    257.845947    1.00748    0.59623    0.02873    4      9.1     52.1     diag
    6      0.877D-04      0.252D-04      -171.31685322    257.859742    1.00964    0.59631    0.02867    5      8.5     60.6     diag
    7      0.237D-04      0.846D-05      -171.31685368    257.855072    1.00993    0.59664    0.02866    6      8.3     68.9     diag
    8      0.854D-05      0.186D-05      -171.31685372    257.855076    1.01009    0.59678    0.02866    7      7.9     76.8     diag
    9      0.263D-05      0.669D-06      -171.31685372    257.855256    1.01009    0.59676    0.02866    0      7.4     84.3     orth

 Final occupancy:  14

 !RHF STATE  1.1 Energy              -171.316853722620
 Nuclear energy                        68.23801224
 One-electron energy                 -368.48249417
 Two-electron energy                  128.92762821
 Virial quotient                       -1.00153328
 !RHF STATE  1.1 Dipole moment          1.01009063     0.59675950     0.02865605
 Dipole moment /Debye                   2.56722613     1.51671201     0.07283164

 Orbital energies:

         1.1          2.1          3.1          4.1          5.1          6.1          7.1          8.1          9.1         10.1
    -20.559945   -15.546142   -11.245488    -1.341581    -1.176218    -0.902039    -0.703607    -0.667228    -0.609670    -0.576428

        11.1         12.1         13.1         14.1         15.1         16.1
     -0.561215    -0.522785    -0.501366    -0.399907     0.025566     0.035919


 HOMO     14.1    -0.399907 =     -10.8820eV
 LUMO     15.1     0.025566 =       0.6957eV
 LUMO-HOMO         0.425472 =      11.5777eV


 **********************************************************************************************************************************
 DATASETS  * FILE   NREC   LENGTH (MB)   RECORD NAMES
              1      18       33.42       500      610      700      900      950      970     1000      129      960     1100   
                                          VAR    BASINP    GEOM    SYMINP    ZMAT    AOBASIS   BASIS     P2S    ABASIS      S 
                                         1400     1410     1200     1210     1080     1600     1650     1700   
                                           T        V       H0       H01     AOSYM     SMH    MOLCAS    OPER   

              2       4        4.74       700     1000      520     2101   
                                         GEOM     BASIS   MCVARS     RHF  

 PROGRAMS   *        TOTAL   RHF-SCF       INT
 CPU TIMES  *        85.00     84.34      0.47
 REAL TIME  *        90.00 SEC
 DISK USED  *        43.98 MB (local),      175.92 MB (total)
 SF USED    *         1.08 MB
 GA USED    *         0.00 MB       (max)       0.00 MB       (current)
 **********************************************************************************************************************************
 SETTING EAB_HF         =      -171.31685372  AU                              

 Dummy atoms: N1  H3  H4  C1  H5  H6  H7


 Recomputing one-electron integrals since nuclear charges changed


 PROGRAM * SEWARD (Integral evaluation for generally contracted gaussian basis sets)     Author: Roland Lindh, 1990

 Geometry written to block  1 of record 700


 Point group  C1  



 ATOMIC COORDINATES

 NR  ATOM    CHARGE       X              Y              Z

   1  O1      8.00   -1.299120374   -0.211166174   -0.037086767
   2  H1      1.00   -1.976883211    1.466310703    0.024012457
   3  H2      1.00    0.517865307    0.048850656   -0.006608867
   4  N1      0.00    8.495893816    0.363635022    0.031454709
   5  H3      0.00    9.054051697   -0.680699397   -1.470482349
   6  H4      0.00    9.081861028   -0.601487966    1.575095433
   7  C1      0.00    9.741856913    2.836084587   -0.044590966
   8  H5      0.00    9.155016786    3.935385441    1.589106408
   9  H6      0.00   11.804132589    2.761827852   -0.061514728
  10  H7      0.00    9.124460198    3.848821829   -1.722334818

 Bond lengths in Bohr (Angstrom)

 1-2  1.810255300  1-3  1.835749062  4-5  1.912587128  4-6  1.912497488  4-7  2.769695622
     ( 0.957945851)     ( 0.971436569)     ( 1.012097522)     ( 1.012050086)     ( 1.465659804)

  7- 8  2.054704556   7- 9  2.063681525   7-10  2.054662955
       ( 1.087302826)       ( 1.092053234)       ( 1.087280812)

 Bond angles

  2- 1- 3  103.81354080   4- 7- 8  109.10407840   4- 7- 9  114.68652183   4- 7-10  109.10154196

  5-4-6  105.59704101   5-4-7  109.54744639   6-4-7  109.56111076   8-7-9  108.13067149

  8- 7-10  107.44041837   9- 7-10  108.13881681

 NUCLEAR CHARGE:                   10
 NUMBER OF PRIMITIVE AOS:         390
 NUMBER OF SYMMETRY AOS:          349
 NUMBER OF CONTRACTIONS:          299   (  299A   )
 NUMBER OF CORE ORBITALS:           1   (    1A   )
 NUMBER OF VALENCE ORBITALS:        6   (    6A   )

 MOLECULE CHANGED: INITIALIZING OCCUPATION AND DUMP RECORDS


 NUCLEAR REPULSION ENERGY    9.12565577


 Eigenvalues of metric

         1 0.376E-04 0.612E-04 0.620E-04 0.115E-03 0.157E-03 0.240E-03 0.316E-03 0.378E-03


 OPERATOR DM      FOR CENTER  0  COORDINATES:    0.000000    0.000000    0.000000


 **********************************************************************************************************************************
 DATASETS  * FILE   NREC   LENGTH (MB)   RECORD NAMES
              1      18       33.42       500      610      700      900      950      970     1000      129      960     1100   
                                          VAR    BASINP    GEOM    SYMINP    ZMAT    AOBASIS   BASIS     P2S    ABASIS      S 
                                         1400     1410     1200     1210     1080     1600     1650     1700   
                                           T        V       H0       H01     AOSYM     SMH    MOLCAS    OPER   

              2       4        4.74       700     1000      520     2101   
                                         GEOM     BASIS   MCVARS     RHF  

 PROGRAMS   *        TOTAL       INT   RHF-SCF       INT
 CPU TIMES  *        85.13      0.13     84.34      0.47
 REAL TIME  *        90.24 SEC
 DISK USED  *        43.98 MB (local),      175.92 MB (total)
 SF USED    *         1.08 MB
 GA USED    *         0.00 MB       (max)       0.00 MB       (current)
 **********************************************************************************************************************************


 PROGRAM * RHF-SCF (CLOSED SHELL)       Authors: W. Meyer, H.-J. Werner


 NUMBER OF ELECTRONS:       5+    5-    SPACE SYMMETRY=1    SPIN SYMMETRY: Singlet 
 CONVERGENCE THRESHOLDS:    1.00E-04 (Density)    1.00E-09 (Energy)
 INTEGRAL THRESHOLDS:       1.00E-11 (Initial)    1.00E-11 (Final)
 MAX. NUMBER OF ITERATIONS:       60
 INTERPOLATION TYPE:            DIIS
 INTERPOLATION STEPS:              2 (START)      1 (STEP)
 LEVEL SHIFTS:                  0.00 (CLOSED)  0.00 (OPEN) 



 Orbital guess generated from atomic densities. Full valence occupancy:    7

 Molecular orbital dump at record        2201.2

 Initial occupancy:   5

 Direct Fock-matrix evaluation.        Authors: Roland Lindh & Martin Schuetz (1993/96)

 Integral Threshold:                  0.1D-10
 Threshold for writing integrals:     0.1D-06
 Prescreening on density matrix:        ON 
 Calculation will be performed fully direct        

 ITERATION   DDIFF            GRAD            ENERGY        2-EL.EN.            DIPOLE MOMENTS         DIIS   CPU(IT)  CPU(TOT)
    1      0.000D+00      0.000D+00       -76.02183183     77.547351    0.58574    0.98774    0.04674    0     10.8     13.9     start
    2      0.000D+00      0.561D-02       -76.04864796     73.963622    0.34034    0.58225    0.02750    1      9.3     23.1     diag
    3      0.343D-02      0.353D-02       -76.05968899     75.541149    0.40048    0.68335    0.03228    2      8.9     32.1     diag
    4      0.122D-02      0.327D-03       -76.05987336     75.452118    0.39784    0.68045    0.03214    3      8.4     40.4     diag
    5      0.158D-03      0.890D-04       -76.05989191     75.466036    0.39686    0.67943    0.03209    4      8.1     48.6     diag
    6      0.491D-04      0.169D-04       -76.05989300     75.465263    0.39667    0.67931    0.03208    5      7.6     56.2     diag
    7      0.119D-04      0.329D-05       -76.05989305     75.465380    0.39660    0.67924    0.03208    6      6.8     63.0     diag
    8      0.318D-05      0.611D-06       -76.05989305     75.465317    0.39658    0.67922    0.03207    0      5.3     68.4     orth

 Final occupancy:   5

 !RHF STATE  1.1 Energy               -76.059893052681
 Nuclear energy                         9.12565577
 One-electron energy                 -122.91820753
 Two-electron energy                   37.73265871
 Virial quotient                       -1.00170013
 !RHF STATE  1.1 Dipole moment          0.39658398     0.67922087     0.03207425
 Dipole moment /Debye                   1.00794991     1.72629417     0.08151928

 Orbital energies:

         1.1          2.1          3.1          4.1          5.1          6.1          7.1
    -20.568826    -1.350331    -0.712450    -0.584875    -0.509963     0.016240     0.033294


 HOMO      5.1    -0.509963 =     -13.8768eV
 LUMO      6.1     0.016240 =       0.4419eV
 LUMO-HOMO         0.526203 =      14.3187eV


 **********************************************************************************************************************************
 DATASETS  * FILE   NREC   LENGTH (MB)   RECORD NAMES
              1      18       33.42       500      610      700      900      950      970     1000      129      960     1100   
                                          VAR    BASINP    GEOM    SYMINP    ZMAT    AOBASIS   BASIS     P2S    ABASIS      S 
                                         1400     1410     1200     1210     1080     1600     1650     1700   
                                           T        V       H0       H01     AOSYM     SMH    MOLCAS    OPER   

              2       5       10.82       700     1000      520     2101     2201   
                                         GEOM     BASIS   MCVARS     RHF      RHF  

 PROGRAMS   *        TOTAL   RHF-SCF       INT   RHF-SCF       INT
 CPU TIMES  *       153.59     68.45      0.13     84.34      0.47
 REAL TIME  *       159.59 SEC
 DISK USED  *        49.70 MB (local),      198.82 MB (total)
 SF USED    *         1.08 MB
 GA USED    *         0.00 MB       (max)       0.00 MB       (current)
 **********************************************************************************************************************************
 SETTING EA_HF          =       -76.05989305  AU                              

 Dummy atoms: O1  H1  H2


 Recomputing one-electron integrals since nuclear charges changed


 PROGRAM * SEWARD (Integral evaluation for generally contracted gaussian basis sets)     Author: Roland Lindh, 1990

 Geometry written to block  1 of record 700


 Point group  C1  



 ATOMIC COORDINATES

 NR  ATOM    CHARGE       X              Y              Z

   1  O1      0.00   -1.299120374   -0.211166174   -0.037086767
   2  H1      0.00   -1.976883211    1.466310703    0.024012457
   3  H2      0.00    0.517865307    0.048850656   -0.006608867
   4  N1      7.00    8.495893816    0.363635022    0.031454709
   5  H3      1.00    9.054051697   -0.680699397   -1.470482349
   6  H4      1.00    9.081861028   -0.601487966    1.575095433
   7  C1      6.00    9.741856913    2.836084587   -0.044590966
   8  H5      1.00    9.155016786    3.935385441    1.589106408
   9  H6      1.00   11.804132589    2.761827852   -0.061514728
  10  H7      1.00    9.124460198    3.848821829   -1.722334818

 Bond lengths in Bohr (Angstrom)

 1-2  1.810255300  1-3  1.835749062  4-5  1.912587128  4-6  1.912497488  4-7  2.769695622
     ( 0.957945851)     ( 0.971436569)     ( 1.012097522)     ( 1.012050086)     ( 1.465659804)

  7- 8  2.054704556   7- 9  2.063681525   7-10  2.054662955
       ( 1.087302826)       ( 1.092053234)       ( 1.087280812)

 Bond angles

  2- 1- 3  103.81354080   4- 7- 8  109.10407840   4- 7- 9  114.68652183   4- 7-10  109.10154196

  5-4-6  105.59704101   5-4-7  109.54744639   6-4-7  109.56111076   8-7-9  108.13067149

  8- 7-10  107.44041837   9- 7-10  108.13881681

 NUCLEAR CHARGE:                   18
 NUMBER OF PRIMITIVE AOS:         390
 NUMBER OF SYMMETRY AOS:          349
 NUMBER OF CONTRACTIONS:          299   (  299A   )
 NUMBER OF CORE ORBITALS:           2   (    2A   )
 NUMBER OF VALENCE ORBITALS:       13   (   13A   )

 MOLECULE CHANGED: INITIALIZING OCCUPATION AND DUMP RECORDS


 NUCLEAR REPULSION ENERGY   42.06267591


 Eigenvalues of metric

         1 0.376E-04 0.612E-04 0.620E-04 0.115E-03 0.157E-03 0.240E-03 0.316E-03 0.378E-03


 OPERATOR DM      FOR CENTER  0  COORDINATES:    0.000000    0.000000    0.000000


 **********************************************************************************************************************************
 DATASETS  * FILE   NREC   LENGTH (MB)   RECORD NAMES
              1      18       33.42       500      610      700      900      950      970     1000      129      960     1100   
                                          VAR    BASINP    GEOM    SYMINP    ZMAT    AOBASIS   BASIS     P2S    ABASIS      S 
                                         1400     1410     1200     1210     1080     1600     1650     1700   
                                           T        V       H0       H01     AOSYM     SMH    MOLCAS    OPER   

              2       5       10.82       700     1000      520     2101     2201   
                                         GEOM     BASIS   MCVARS     RHF      RHF  

 PROGRAMS   *        TOTAL       INT   RHF-SCF       INT   RHF-SCF       INT
 CPU TIMES  *       153.71      0.12     68.45      0.13     84.34      0.47
 REAL TIME  *       159.82 SEC
 DISK USED  *        49.70 MB (local),      198.82 MB (total)
 SF USED    *         1.08 MB
 GA USED    *         0.00 MB       (max)       0.00 MB       (current)
 **********************************************************************************************************************************


 PROGRAM * RHF-SCF (CLOSED SHELL)       Authors: W. Meyer, H.-J. Werner


 NUMBER OF ELECTRONS:       9+    9-    SPACE SYMMETRY=1    SPIN SYMMETRY: Singlet 
 CONVERGENCE THRESHOLDS:    1.00E-04 (Density)    1.00E-09 (Energy)
 INTEGRAL THRESHOLDS:       1.00E-11 (Initial)    1.00E-11 (Final)
 MAX. NUMBER OF ITERATIONS:       60
 INTERPOLATION TYPE:            DIIS
 INTERPOLATION STEPS:              2 (START)      1 (STEP)
 LEVEL SHIFTS:                  0.00 (CLOSED)  0.00 (OPEN) 



 Orbital guess generated from atomic densities. Full valence occupancy:   15

 Molecular orbital dump at record        2301.2

 Initial occupancy:   9

 Direct Fock-matrix evaluation.        Authors: Roland Lindh & Martin Schuetz (1993/96)

 Integral Threshold:                  0.1D-10
 Threshold for writing integrals:     0.1D-06
 Prescreening on density matrix:        ON 
 Calculation will be performed fully direct        

 ITERATION   DDIFF            GRAD            ENERGY        2-EL.EN.            DIPOLE MOMENTS         DIIS   CPU(IT)  CPU(TOT)
    1      0.000D+00      0.000D+00       -95.22548991    149.634485    0.75451   -0.22566   -0.00109    0     11.7     15.2     start
    2      0.000D+00      0.306D-02       -95.25115463    147.504129    0.46245   -0.09021   -0.00190    1      9.6     24.7     diag
    3      0.296D-02      0.129D-02       -95.25492896    148.521623    0.56546   -0.08910   -0.00289    2      9.2     34.0     diag
    4      0.818D-03      0.380D-03       -95.25545024    148.310479    0.56168   -0.08659   -0.00291    3      9.0     43.0     diag
    5      0.294D-03      0.740D-04       -95.25547669    148.316690    0.56310   -0.08112   -0.00307    4      8.5     51.5     diag
    6      0.556D-04      0.178D-04       -95.25547841    148.320094    0.56422   -0.08102   -0.00308    5      8.3     59.9     diag
    7      0.172D-04      0.498D-05       -95.25547854    148.318133    0.56465   -0.08074   -0.00309    6      7.9     67.8     diag
    8      0.459D-05      0.133D-05       -95.25547855    148.318417    0.56473   -0.08063   -0.00310    7      7.6     75.4     diag
    9      0.197D-05      0.343D-06       -95.25547855    148.318351    0.56475   -0.08062   -0.00310    0      6.9     82.3     orth

 Final occupancy:   9

 !RHF STATE  1.1 Energy               -95.255478554071
 Nuclear energy                        42.06267591
 One-electron energy                 -211.47733013
 Two-electron energy                   74.15917567
 Virial quotient                       -1.00136222
 !RHF STATE  1.1 Dipole moment          0.56474544    -0.08062271    -0.00309701
 Dipole moment /Debye                   1.43534572    -0.20490906    -0.00787130

 Orbital energies:

         1.1          2.1          3.1          4.1          5.1          6.1          7.1          8.1          9.1         10.1
    -15.540024   -11.240268    -1.170370    -0.896639    -0.661473    -0.604133    -0.555648    -0.517374    -0.393560     0.027860

        11.1
      0.036737


 HOMO      9.1    -0.393560 =     -10.7093eV
 LUMO     10.1     0.027860 =       0.7581eV
 LUMO-HOMO         0.421420 =      11.4674eV


 **********************************************************************************************************************************
 DATASETS  * FILE   NREC   LENGTH (MB)   RECORD NAMES
              1      18       33.42       500      610      700      900      950      970     1000      129      960     1100   
                                          VAR    BASINP    GEOM    SYMINP    ZMAT    AOBASIS   BASIS     P2S    ABASIS      S 
                                         1400     1410     1200     1210     1080     1600     1650     1700   
                                           T        V       H0       H01     AOSYM     SMH    MOLCAS    OPER   

              2       6       16.90       700     1000      520     2101     2201     2301   
                                         GEOM     BASIS   MCVARS     RHF      RHF      RHF  

 PROGRAMS   *        TOTAL   RHF-SCF       INT   RHF-SCF       INT   RHF-SCF       INT
 CPU TIMES  *       236.05     82.34      0.12     68.45      0.13     84.34      0.47
 REAL TIME  *       243.03 SEC
 DISK USED  *        56.15 MB (local),      224.59 MB (total)
 SF USED    *         1.08 MB
 GA USED    *         0.00 MB       (max)       0.00 MB       (current)
 **********************************************************************************************************************************
 SETTING EB_HF          =       -95.25547855  AU                              
 SETTING E_AB_INT       =        -0.00148212  AU                              

 *** results in hartree
 E_AB_INT         =        -0.00148212 AU
 Molecular orbitals read from record     2301.2  Type=RHF/CANONICAL (state 1.1)
 Occupation numbers read from record     2301.2  Type=RHF/RHF (state 1.1)
 Orbital energies read from record       2301.2  Type=RHF/CANONICAL (state 1.1)
 Redundancy group numbers read from rec  2301.2  Type=RHF/RHF (state 1.1)

 RHF/aug-cc-pVTZ energy=    -95.255478554071

         RHF-SCF         RHF-SCF         RHF-SCF
    -95.25547855    -76.05989305   -171.31685372
 **********************************************************************************************************************************
 Molpro calculation terminated
