
 Primary working directories    : /scratch/sirous/116832/molpro.IX5kFBrZv1
 Secondary working directories  : /scratch/sirous/116832/molpro.IX5kFBrZv1
 Wavefunction directory         : /scratch/sirous/116832/
 Main file repository           : /scratch/sirous/116832/molpro.IX5kFBrZv1/

 id        : karlovklimes

 Nodes                      nprocs
 nc-07.cc.karlov.mff.cuni.cz    4

 Using customized tuning parameters: mindgm=1; mindgv=20; mindgc=4; mindgr=1; noblas=0; minvec=7
 default implementation of scratch files=sf  


 Variables initialized (934), CPU time= 0.00 sec
 ***,CH3C6H4CN+CF3CN+BF3
 memory,500,m
 gdirect
 gthresh,energy=1.d-8,twoint=1.d-19,oneint=1.d-19,zero=1.d-15,orbital=1.d-8,grid=1.d-8
 symmetry,nosym
 geomtyp=xyz
                                                                                 ! Geometry
 geometry={
 O1        0.000000000    -3.372794000     0.000000000
 O2        0.000000000    2.227206000     0.000000000
 H1        0.029703868    2.781377461     -0.785012070
 H2        0.013651768    2.853273520     0.729441819
 H3        0.017607753    -3.959535840     -0.761351599
 H4        -0.013377840    -3.968366698     0.754550510
 }
 
 
 
 basis=avdz
 
 
 
                                                                                 ! Dimer Calculation
 {rks,pbe,accu=1.d-8;orbital,2101.2}
 eab_PBE=energy
 
 
                                                                                 !monomer A
 dummy,2,3,4;                                                                    ! NOW MONOMER B IS DUMMY
 {rks,pbe,accu=1.d-8;orbital,2201.2}
 ea_PBE=energy
                                                                                 !monomer B
 dummy,1,5,6;                                                                    !NOW MONOMER A IS DUMMY
 {rks,pbe,accu=1.d-8;orbital,2301.2}
 eb_PBE=energy
 
 E_AB_int=eab_PBE-ea_PBE-eb_PBE
 
 
 text,results in hartree
 show,E_AB_int
 
 Commands  initialized (763), CPU time= 0.02 sec, 617 directives.
 Default parameters read. Elapsed time= 0.25 sec

 Checking input...
 Passed
1


                                         ***  PROGRAM SYSTEM MOLPRO  ***
                                       Copyright, TTI GmbH Stuttgart, 2015
                                    Version 2019.2 linked Jun  8 2019 11:26:33


 **********************************************************************************************************************************
 LABEL *   CH3C6H4CN+CF3CN+BF3                                                           
  64 bit mpp version                                                                     DATE: 19-Nov-19          TIME: 17:50:19  
 **********************************************************************************************************************************

 SHA1:             8135a10abc80eafa5b3ae28ffc55be4890dc4c84
 **********************************************************************************************************************************

 THRESHOLDS:

 ZERO    =  1.00D-15  ONEINT  =  1.00D-19  TWOINT  =  1.00D-19  PREFAC  =  1.00D-14  XXXXXX  =  1.00D-09  EORDER  =  1.00D-04
 ENERGY  =  1.00D-08  ETEST   =  0.00D+00  EDENS   =  0.00D+00  THRDEDEF=  1.00D-06  GRADIENT=  1.00D-02  STEP    =  1.00D-03
 ORBITAL =  1.00D-08  CIVEC   =  1.00D-05  COEFF   =  1.00D-04  PRINTCI =  5.00D-02  PUNCHCI =  9.90D+01  OPTGRAD =  3.00D-04
 OPTENERG=  1.00D-06  OPTSTEP =  3.00D-04  THRGRAD =  1.00D-10  COMPRESS=  1.00D-11  VARMIN  =  1.00D-07  VARMAX  =  1.00D-03
 THRDOUB =  0.00D+00  THRDIV  =  1.00D-05  THRRED  =  1.00D-07  THRPSP  =  1.00D+00  THRDC   =  1.00D-10  THRCS   =  1.00D-10
 THRNRM  =  1.00D-08  THREQ   =  0.00D+00  THRDE   =  1.00D+00  THRREF  =  1.00D-05  SPARFAC =  1.00D+00  THRDLP  =  1.00D-07
 THRDIA  =  1.00D-10  THRDLS  =  1.00D-07  THRGPS  =  0.00D+00  THRKEX  =  0.00D+00  THRDIS  =  2.00D-01  THRVAR  =  1.00D-10
 THRLOC  =  1.00D-06  THRGAP  =  1.00D-06  THRLOCT = -1.00D+00  THRGAPT = -1.00D+00  THRORB  =  1.00D-06  THRMLTP =  0.00D+00
 THRCPQCI=  1.00D-10  KEXTA   =  0.00D+00  THRCOARS=  0.00D+00  SYMTOL  =  1.00D-06  GRADTOL =  1.00D-06  THROVL  =  1.00D-08
 THRORTH =  1.00D-08  GRID    =  1.00D-08  GRIDMAX =  1.00D-03  DTMAX   =  0.00D+00  THROCCDE=  1.00D-01  THROCCDE=  1.00D-01
 THRPRINT=  2.50D-01


 Variable memory set to  500000000 words,  buffer space 

 SETTING GEOMTYP        =    XYZ
 ZSYMEL=NOSYM

 SETTING BASIS          =    AVDZ


 Recomputing integrals since basis changed


 Using spherical harmonics

 Library entry O      S aug-cc-pVDZ          selected for orbital group  1
 Library entry O      P aug-cc-pVDZ          selected for orbital group  1
 Library entry O      D aug-cc-pVDZ          selected for orbital group  1
 Library entry H      S aug-cc-pVDZ          selected for orbital group  2
 Library entry H      P aug-cc-pVDZ          selected for orbital group  2


 PROGRAM * SEWARD (Integral evaluation for generally contracted gaussian basis sets)     Author: Roland Lindh, 1990

 Geometry written to block  1 of record 700


 Point group  C1  



 ATOMIC COORDINATES

 NR  ATOM    CHARGE       X              Y              Z

   1  O1      8.00    0.000000000   -6.373656935    0.000000000
   2  O2      8.00    0.000000000    4.208809363    0.000000000
   3  H1      1.00    0.056132175    5.256041650   -1.483457817
   4  H2      1.00    0.025798103    5.391905511    1.378445262
   5  H3      1.00    0.033273831   -7.482438318   -1.438746007
   6  H4      1.00   -0.025280454   -7.499126221    1.425893811

 Bond lengths in Bohr (Angstrom)

 1-5  1.816726005  1-6  1.816726005  2-3  1.816726005  2-4  1.816726005
     ( 0.961370000)     ( 0.961370000)     ( 0.961370001)     ( 0.961370000)

 Bond angles

  3-2-4  104.10699999   5-1-6  104.10700004

 NUCLEAR CHARGE:                   20
 NUMBER OF PRIMITIVE AOS:         118
 NUMBER OF SYMMETRY AOS:          114
 NUMBER OF CONTRACTIONS:           82   (   82A   )
 NUMBER OF CORE ORBITALS:           2   (    2A   )
 NUMBER OF VALENCE ORBITALS:       12   (   12A   )


 NUCLEAR REPULSION ENERGY   27.38335828


 Eigenvalues of metric

         1 0.271E-02 0.288E-02 0.292E-02 0.310E-02 0.105E-01 0.114E-01 0.163E-01 0.163E-01


 OPERATOR DM      FOR CENTER  0  COORDINATES:    0.000000    0.000000    0.000000


 **********************************************************************************************************************************
 DATASETS  * FILE   NREC   LENGTH (MB)   RECORD NAMES
              1      18       30.29       500      610      700      900      950      970     1000      129      960     1100   
                                          VAR    BASINP    GEOM    SYMINP    ZMAT    AOBASIS   BASIS     P2S    ABASIS      S 
                                         1400     1410     1200     1210     1080     1600     1650     1700   
                                           T        V       H0       H01     AOSYM     SMH    MOLCAS    OPER   

 PROGRAMS   *        TOTAL       INT
 CPU TIMES  *         0.43      0.24
 REAL TIME  *         1.57 SEC
 DISK USED  *        30.66 MB (local),      122.64 MB (total)
 GA USED    *         0.00 MB       (max)       0.00 MB       (current)
 **********************************************************************************************************************************

 Density functional group PBE=PBEX+PBEC
 Functional: PBEX(Automatically generated (new) PBEX)                          Gradient terms: 1
 Functional: PBEC(Automatically generated (new) PBEC)                          Gradient terms: 1
 Use libxcgrid:  F
 Use grid at  1800.2

 Functional: PBEX                      Factor:  1.0000
 Functional: PBEC                      Factor:  1.0000

 Generated new metagrid on record  1800.2 with target accuracy 1.0D-08 and 60516 points in CPU time    0.2
 Computed new grid on record 1800.1 in CPU time    0.2
   69126 words reserved for DFT integration

 PROGRAM * RKS-SCF (Restricted closed shell Kohn-Sham)     Authors: W. Meyer, H.-J. Werner, P.J. Knowles, 1993

 NUMBER OF ELECTRONS:      10+   10-    SPACE SYMMETRY=1    SPIN SYMMETRY: Singlet 
 CONVERGENCE THRESHOLDS:    1.00E-04 (Density)    1.00E-08 (Energy)
 INTEGRAL THRESHOLDS:       1.00E-11 (Initial)    1.00E-11 (Final)
 MAX. NUMBER OF ITERATIONS:       60
 INTERPOLATION TYPE:            DIIS
 INTERPOLATION STEPS:              2 (START)      1 (STEP)
 LEVEL SHIFTS:                  0.00 (CLOSED)  0.00 (OPEN) 



 Use fine grid record 1800.2 for energy threshold  1.0D-08
 Orbital guess generated from atomic densities. Full valence occupancy:   14

 Molecular orbital dump at record        2101.2

 Initial occupancy:  10

 Direct Fock-matrix evaluation.        Authors: Roland Lindh & Martin Schuetz (1993/96)

 Integral Threshold:                  0.1D-10
 Threshold for writing integrals:     0.1D-06
 Prescreening on density matrix:        ON 
 Calculation will be performed fully direct        

 ITERATION   DDIFF            GRAD            ENERGY        2-EL.EN.            DIPOLE MOMENTS         DIIS   CPU(IT)  CPU(TOT)
    1      0.000D+00      0.000D+00      -152.56656520    213.848637    0.04386   -0.00192   -0.05747    0      2.5      4.5     start
    2      0.000D+00      0.164D-01      -151.92127964    183.405397   -0.01218    0.00043    0.01711    1      1.3      5.8     diag
    3      0.449D-01      0.371D-01      -152.71711230    204.984237    0.02913   -0.00129   -0.03794    2      1.3      7.2     diag
    4      0.304D-01      0.694D-03      -152.71749259    204.444055    0.02854   -0.00127   -0.03722    3      1.3      8.5     diag
    5      0.898D-03      0.183D-03      -152.71750909    204.507373    0.02841   -0.00126   -0.03702    4      1.3      9.8     diag
    6      0.152D-03      0.479D-04      -152.71751044    204.530955    0.02848   -0.00127   -0.03712    5      1.3     11.1     diag
    7      0.426D-04      0.173D-05      -152.71751044    204.531824    0.02848   -0.00125   -0.03712    6      1.3     12.4     diag
    8      0.166D-05      0.324D-06      -152.71751044    204.532022    0.02848   -0.00129   -0.03712    0      1.3     13.7     orth

 Final occupancy:  10

 !RKS STATE  1.1 Energy              -152.717510440141
 Nuclear energy                        27.38335828
 One-electron energy                 -263.91061039
 Two-electron energy                  102.26601116
 Density functional                   -18.45626949     PBEX=-17.80539629 PBEC= -0.65087320
 Virial quotient                       -1.00564514
 !RKS STATE  1.1 Dipole moment          0.02848368    -0.00129138    -0.03712327
 Dipole moment /Debye                   0.07239356    -0.00328214    -0.09435177

 Orbital energies:

         1.1          2.1          3.1          4.1          5.1          6.1          7.1          8.1          9.1         10.1
    -18.774024   -18.774003    -0.928650    -0.928647    -0.478918    -0.478914    -0.338233    -0.338009    -0.259953    -0.259911

        11.1         12.1
     -0.032360    -0.028274


 HOMO     10.1    -0.259911 =      -7.0725eV
 LUMO     11.1    -0.032360 =      -0.8806eV
 LUMO-HOMO         0.227551 =       6.1920eV


 **********************************************************************************************************************************
 DATASETS  * FILE   NREC   LENGTH (MB)   RECORD NAMES
              1      19       30.29       500      610      700      900      950      970     1000      129      960     1100   
                                          VAR    BASINP    GEOM    SYMINP    ZMAT    AOBASIS   BASIS     P2S    ABASIS      S 
                                         1400     1410     1200     1210     1080     1600     1650     1700     1800   
                                           T        V       H0       H01     AOSYM     SMH    MOLCAS    OPER     GRID   

              2       5        2.98       700     1000      520     1800     2101   
                                         GEOM     BASIS   MCVARS    GRID      RKS  

 PROGRAMS   *        TOTAL   RKS-SCF       INT
 CPU TIMES  *        14.36     13.93      0.24
 REAL TIME  *        16.72 SEC
 DISK USED  *        33.73 MB (local),      134.91 MB (total)
 SF USED    *         0.08 MB
 GA USED    *         2.00 MB       (max)       2.00 MB       (current)
 **********************************************************************************************************************************
 SETTING EAB_PBE        =      -152.71751044  AU                              

 Dummy atoms: O2  H1  H2


 Recomputing one-electron integrals since nuclear charges changed


 PROGRAM * SEWARD (Integral evaluation for generally contracted gaussian basis sets)     Author: Roland Lindh, 1990

 Geometry written to block  1 of record 700


 Point group  C1  



 ATOMIC COORDINATES

 NR  ATOM    CHARGE       X              Y              Z

   1  O1      8.00    0.000000000   -6.373656935    0.000000000
   2  O2      0.00    0.000000000    4.208809363    0.000000000
   3  H1      0.00    0.056132175    5.256041650   -1.483457817
   4  H2      0.00    0.025798103    5.391905511    1.378445262
   5  H3      1.00    0.033273831   -7.482438318   -1.438746007
   6  H4      1.00   -0.025280454   -7.499126221    1.425893811

 Bond lengths in Bohr (Angstrom)

 1-5  1.816726005  1-6  1.816726005  2-3  1.816726005  2-4  1.816726005
     ( 0.961370000)     ( 0.961370000)     ( 0.961370001)     ( 0.961370000)

 Bond angles

  3-2-4  104.10699999   5-1-6  104.10700004

 NUCLEAR CHARGE:                   10
 NUMBER OF PRIMITIVE AOS:         118
 NUMBER OF SYMMETRY AOS:          114
 NUMBER OF CONTRACTIONS:           82   (   82A   )
 NUMBER OF CORE ORBITALS:           1   (    1A   )
 NUMBER OF VALENCE ORBITALS:        6   (    6A   )

 MOLECULE CHANGED: INITIALIZING OCCUPATION AND DUMP RECORDS


 NUCLEAR REPULSION ENERGY    9.15605699


 Eigenvalues of metric

         1 0.271E-02 0.288E-02 0.292E-02 0.310E-02 0.105E-01 0.114E-01 0.163E-01 0.163E-01


 OPERATOR DM      FOR CENTER  0  COORDINATES:    0.000000    0.000000    0.000000


 **********************************************************************************************************************************
 DATASETS  * FILE   NREC   LENGTH (MB)   RECORD NAMES
              1      19       30.29       500      610      700      900      950      970     1000      129      960     1100   
                                          VAR    BASINP    GEOM    SYMINP    ZMAT    AOBASIS   BASIS     P2S    ABASIS      S 
                                         1400     1410     1200     1210     1080     1600     1650     1700     1800   
                                           T        V       H0       H01     AOSYM     SMH    MOLCAS    OPER     GRID   

              2       5        2.98       700     1000      520     1800     2101   
                                         GEOM     BASIS   MCVARS    GRID      RKS  

 PROGRAMS   *        TOTAL       INT   RKS-SCF       INT
 CPU TIMES  *        14.39      0.02     13.93      0.24
 REAL TIME  *        16.79 SEC
 DISK USED  *        33.73 MB (local),      134.91 MB (total)
 SF USED    *         0.08 MB
 GA USED    *         2.00 MB       (max)       2.00 MB       (current)
 **********************************************************************************************************************************

 Density functional group PBE=PBEX+PBEC
 Functional: PBEX(Automatically generated (new) PBEX)                          Gradient terms: 1
 Functional: PBEC(Automatically generated (new) PBEC)                          Gradient terms: 1
 Use libxcgrid:  F
 Use grid at  1800.2

 Functional: PBEX                      Factor:  1.0000
 Functional: PBEC                      Factor:  1.0000

 Generated new metagrid on record  1800.2 with target accuracy 1.0D-08 and 60516 points in CPU time    0.2
 Computed new grid on record 1800.1 in CPU time    0.2
   69126 words reserved for DFT integration

 PROGRAM * RKS-SCF (Restricted closed shell Kohn-Sham)     Authors: W. Meyer, H.-J. Werner, P.J. Knowles, 1993

 NUMBER OF ELECTRONS:       5+    5-    SPACE SYMMETRY=1    SPIN SYMMETRY: Singlet 
 CONVERGENCE THRESHOLDS:    1.00E-04 (Density)    1.00E-08 (Energy)
 INTEGRAL THRESHOLDS:       1.00E-11 (Initial)    1.00E-11 (Final)
 MAX. NUMBER OF ITERATIONS:       60
 INTERPOLATION TYPE:            DIIS
 INTERPOLATION STEPS:              2 (START)      1 (STEP)
 LEVEL SHIFTS:                  0.00 (CLOSED)  0.00 (OPEN) 



 Use fine grid record 1800.2 for energy threshold  1.0D-08
 Orbital guess generated from atomic densities. Full valence occupancy:    7

 Molecular orbital dump at record        2201.2

 Initial occupancy:   5

 Direct Fock-matrix evaluation.        Authors: Roland Lindh & Martin Schuetz (1993/96)

 Integral Threshold:                  0.1D-10
 Threshold for writing integrals:     0.1D-06
 Prescreening on density matrix:        ON 
 Calculation will be performed fully direct        

 ITERATION   DDIFF            GRAD            ENERGY        2-EL.EN.            DIPOLE MOMENTS         DIIS   CPU(IT)  CPU(TOT)
    1      0.000D+00      0.000D+00       -76.28417941     97.670890    0.00390   -1.08933   -0.00627    0      2.5      4.9     start
    2      0.000D+00      0.158D-01       -75.96842381     82.763384   -0.00102    0.28361    0.00165    1      1.3      6.2     diag
    3      0.317D-01      0.355D-01       -76.35893852     93.306385    0.00260   -0.72568   -0.00418    2      1.3      7.5     diag
    4      0.214D-01      0.670D-03       -76.35912595     93.041340    0.00255   -0.71216   -0.00410    3      1.3      8.8     diag
    5      0.630D-03      0.174D-03       -76.35913397     93.071771    0.00254   -0.70883   -0.00408    4      1.3     10.1     diag
    6      0.106D-03      0.457D-04       -76.35913462     93.083312    0.00254   -0.71056   -0.00409    5      1.3     11.4     diag
    7      0.299D-04      0.158D-05       -76.35913462     93.083728    0.00254   -0.71056   -0.00409    6      1.3     12.7     diag
    8      0.107D-05      0.942D-07       -76.35913462     93.083805    0.00254   -0.71057   -0.00409    0      1.2     13.9     orth

 Final occupancy:   5

 !RKS STATE  1.1 Energy               -76.359134620576
 Nuclear energy                         9.15605699
 One-electron energy                 -122.82877837
 Two-electron energy                   46.54190256
 Density functional                    -9.22831580     PBEX=-8.90286528 PBEC=-0.32545051
 Virial quotient                       -1.00566028
 !RKS STATE  1.1 Dipole moment          0.00254460    -0.71056985    -0.00409167
 Dipole moment /Debye                   0.00646729    -1.80597011    -0.01039930

 Orbital energies:

         1.1          2.1          3.1          4.1          5.1          6.1          7.1
    -18.779532    -0.934126    -0.484364    -0.344043    -0.265529    -0.034649     0.018883


 HOMO      5.1    -0.265529 =      -7.2254eV
 LUMO      6.1    -0.034649 =      -0.9429eV
 LUMO-HOMO         0.230880 =       6.2826eV


 **********************************************************************************************************************************
 DATASETS  * FILE   NREC   LENGTH (MB)   RECORD NAMES
              1      19       30.29       500      610      700      900      950      970     1000      129      960     1100   
                                          VAR    BASINP    GEOM    SYMINP    ZMAT    AOBASIS   BASIS     P2S    ABASIS      S 
                                         1400     1410     1200     1210     1080     1600     1650     1700     1800   
                                           T        V       H0       H01     AOSYM     SMH    MOLCAS    OPER     GRID   

              2       6        5.74       700     1000      520     1800     2101     2201   
                                         GEOM     BASIS   MCVARS    GRID      RKS      RKS  

 PROGRAMS   *        TOTAL   RKS-SCF       INT   RKS-SCF       INT
 CPU TIMES  *        28.57     14.18      0.02     13.93      0.24
 REAL TIME  *        31.14 SEC
 DISK USED  *        36.49 MB (local),      145.96 MB (total)
 SF USED    *         0.08 MB
 GA USED    *         2.00 MB       (max)       2.00 MB       (current)
 **********************************************************************************************************************************
 SETTING EA_PBE         =       -76.35913462  AU                              

 Dummy atoms: O1  H3  H4


 Recomputing one-electron integrals since nuclear charges changed


 PROGRAM * SEWARD (Integral evaluation for generally contracted gaussian basis sets)     Author: Roland Lindh, 1990

 Geometry written to block  1 of record 700


 Point group  C1  



 ATOMIC COORDINATES

 NR  ATOM    CHARGE       X              Y              Z

   1  O1      0.00    0.000000000   -6.373656935    0.000000000
   2  O2      8.00    0.000000000    4.208809363    0.000000000
   3  H1      1.00    0.056132175    5.256041650   -1.483457817
   4  H2      1.00    0.025798103    5.391905511    1.378445262
   5  H3      0.00    0.033273831   -7.482438318   -1.438746007
   6  H4      0.00   -0.025280454   -7.499126221    1.425893811

 Bond lengths in Bohr (Angstrom)

 1-5  1.816726005  1-6  1.816726005  2-3  1.816726005  2-4  1.816726005
     ( 0.961370000)     ( 0.961370000)     ( 0.961370001)     ( 0.961370000)

 Bond angles

  3-2-4  104.10699999   5-1-6  104.10700004

 NUCLEAR CHARGE:                   10
 NUMBER OF PRIMITIVE AOS:         118
 NUMBER OF SYMMETRY AOS:          114
 NUMBER OF CONTRACTIONS:           82   (   82A   )
 NUMBER OF CORE ORBITALS:           1   (    1A   )
 NUMBER OF VALENCE ORBITALS:        6   (    6A   )

 MOLECULE CHANGED: INITIALIZING OCCUPATION AND DUMP RECORDS


 NUCLEAR REPULSION ENERGY    9.15605698


 Eigenvalues of metric

         1 0.271E-02 0.288E-02 0.292E-02 0.310E-02 0.105E-01 0.114E-01 0.163E-01 0.163E-01


 OPERATOR DM      FOR CENTER  0  COORDINATES:    0.000000    0.000000    0.000000


 **********************************************************************************************************************************
 DATASETS  * FILE   NREC   LENGTH (MB)   RECORD NAMES
              1      19       30.29       500      610      700      900      950      970     1000      129      960     1100   
                                          VAR    BASINP    GEOM    SYMINP    ZMAT    AOBASIS   BASIS     P2S    ABASIS      S 
                                         1400     1410     1200     1210     1080     1600     1650     1700     1800   
                                           T        V       H0       H01     AOSYM     SMH    MOLCAS    OPER     GRID   

              2       6        5.74       700     1000      520     1800     2101     2201   
                                         GEOM     BASIS   MCVARS    GRID      RKS      RKS  

 PROGRAMS   *        TOTAL       INT   RKS-SCF       INT   RKS-SCF       INT
 CPU TIMES  *        28.60      0.03     14.18      0.02     13.93      0.24
 REAL TIME  *        31.21 SEC
 DISK USED  *        36.49 MB (local),      145.96 MB (total)
 SF USED    *         0.08 MB
 GA USED    *         2.00 MB       (max)       2.00 MB       (current)
 **********************************************************************************************************************************

 Density functional group PBE=PBEX+PBEC
 Functional: PBEX(Automatically generated (new) PBEX)                          Gradient terms: 1
 Functional: PBEC(Automatically generated (new) PBEC)                          Gradient terms: 1
 Use libxcgrid:  F
 Use grid at  1800.2

 Functional: PBEX                      Factor:  1.0000
 Functional: PBEC                      Factor:  1.0000

   69126 words reserved for DFT integration

 PROGRAM * RKS-SCF (Restricted closed shell Kohn-Sham)     Authors: W. Meyer, H.-J. Werner, P.J. Knowles, 1993

 NUMBER OF ELECTRONS:       5+    5-    SPACE SYMMETRY=1    SPIN SYMMETRY: Singlet 
 CONVERGENCE THRESHOLDS:    1.00E-04 (Density)    1.00E-08 (Energy)
 INTEGRAL THRESHOLDS:       1.00E-11 (Initial)    1.00E-11 (Final)
 MAX. NUMBER OF ITERATIONS:       60
 INTERPOLATION TYPE:            DIIS
 INTERPOLATION STEPS:              2 (START)      1 (STEP)
 LEVEL SHIFTS:                  0.00 (CLOSED)  0.00 (OPEN) 



 Use fine grid record 1800.2 for energy threshold  1.0D-08
 Orbital guess generated from atomic densities. Full valence occupancy:    7

 Molecular orbital dump at record        2301.2

 Initial occupancy:   5

 Direct Fock-matrix evaluation.        Authors: Roland Lindh & Martin Schuetz (1993/96)

 Integral Threshold:                  0.1D-10
 Threshold for writing integrals:     0.1D-06
 Prescreening on density matrix:        ON 
 Calculation will be performed fully direct        

 ITERATION   DDIFF            GRAD            ENERGY        2-EL.EN.            DIPOLE MOMENTS         DIIS   CPU(IT)  CPU(TOT)
    1      0.000D+00      0.000D+00       -76.28417915     97.670894    0.03996    1.08741   -0.05121    0      2.4      4.8     start
    2      0.000D+00      0.158D-01       -75.96842184     82.763351   -0.01042   -0.28311    0.01339    1      1.3      6.0     diag
    3      0.317D-01      0.355D-01       -76.35893835     93.306384    0.02664    0.72440   -0.03413    2      1.3      7.3     diag
    4      0.214D-01      0.670D-03       -76.35912577     93.041338    0.02614    0.71090   -0.03349    3      1.3      8.6     diag
    5      0.630D-03      0.174D-03       -76.35913380     93.071769    0.02602    0.70758   -0.03333    4      1.3      9.8     diag
    6      0.106D-03      0.457D-04       -76.35913444     93.083309    0.02608    0.70931   -0.03341    5      1.3     11.1     diag
    7      0.299D-04      0.158D-05       -76.35913445     93.083726    0.02608    0.70931   -0.03341    6      1.3     12.4     diag
    8      0.107D-05      0.942D-07       -76.35913445     93.083803    0.02608    0.70932   -0.03342    0      1.3     13.6     orth

 Final occupancy:   5

 !RKS STATE  1.1 Energy               -76.359134445634
 Nuclear energy                         9.15605698
 One-electron energy                 -122.82877734
 Two-electron energy                   46.54190145
 Density functional                    -9.22831554     PBEX=-8.90286504 PBEC=-0.32545050
 Virial quotient                       -1.00566026
 !RKS STATE  1.1 Dipole moment          0.02608367     0.70932063    -0.03341526
 Dipole moment /Debye                   0.06629373     1.80279513    -0.08492755

 Orbital energies:

         1.1          2.1          3.1          4.1          5.1          6.1          7.1
    -18.779532    -0.934127    -0.484365    -0.344043    -0.265529    -0.034649     0.018880


 HOMO      5.1    -0.265529 =      -7.2254eV
 LUMO      6.1    -0.034649 =      -0.9429eV
 LUMO-HOMO         0.230880 =       6.2826eV


 **********************************************************************************************************************************
 DATASETS  * FILE   NREC   LENGTH (MB)   RECORD NAMES
              1      19       30.29       500      610      700      900      950      970     1000      129      960     1100   
                                          VAR    BASINP    GEOM    SYMINP    ZMAT    AOBASIS   BASIS     P2S    ABASIS      S 
                                         1400     1410     1200     1210     1080     1600     1650     1700     1800   
                                           T        V       H0       H01     AOSYM     SMH    MOLCAS    OPER     GRID   

              2       7        8.50       700     1000      520     1800     2101     2201     2301   
                                         GEOM     BASIS   MCVARS    GRID      RKS      RKS      RKS  

 PROGRAMS   *        TOTAL   RKS-SCF       INT   RKS-SCF       INT   RKS-SCF       INT
 CPU TIMES  *        42.24     13.64      0.03     14.18      0.02     13.93      0.24
 REAL TIME  *        45.05 SEC
 DISK USED  *        39.25 MB (local),      157.01 MB (total)
 SF USED    *         0.08 MB
 GA USED    *         2.00 MB       (max)       2.00 MB       (current)
 **********************************************************************************************************************************
 SETTING EB_PBE         =       -76.35913445  AU                              
 SETTING E_AB_INT       =         0.00075863  AU                              

 *** results in hartree
 E_AB_INT         =         0.00075863 AU
 Molecular orbitals read from record     2301.2  Type=RKS/CANONICAL (state 1.1)
 Occupation numbers read from record     2301.2  Type=RKS/RHF (state 1.1)
 Orbital energies read from record       2301.2  Type=RKS/CANONICAL (state 1.1)
 Redundancy group numbers read from rec  2301.2  Type=RKS/RHF (state 1.1)

 RPBE/aug-cc-pVDZ energy=    -76.359134445634

         RKS-SCF         RKS-SCF         RKS-SCF
    -76.35913445    -76.35913462   -152.71751044
 **********************************************************************************************************************************
 Molpro calculation terminated
