 vasp.6.1.2 22Jul20 (build Jan  6 2021 09:55:43) gamma-only                      
 executed on             LinuxPGI date 2023.10.20  10:43:03
 running on   32 total cores
 distrk:  each k-point on   32 cores,    1 groups
 distr:  one band on NCORE=   1 cores,   32 groups


--------------------------------------------------------------------------------------------------------


 INCAR:
 POTCAR:    PAW_PBE O 08Apr2002                   
 POTCAR:    PAW_PBE H 15Jun2001                   
 -----------------------------------------------------------------------------
|                                                                             |
|           W    W    AA    RRRRR   N    N  II  N    N   GGGG   !!!           |
|           W    W   A  A   R    R  NN   N  II  NN   N  G    G  !!!           |
|           W    W  A    A  R    R  N N  N  II  N N  N  G       !!!           |
|           W WW W  AAAAAA  RRRRR   N  N N  II  N  N N  G  GGG   !            |
|           WW  WW  A    A  R   R   N   NN  II  N   NN  G    G                |
|           W    W  A    A  R    R  N    N  II  N    N   GGGG   !!!           |
|                                                                             |
|     For optimal performance we recommend to set                             |
|       NCORE = 4 - approx SQRT(number of cores).                             |
|     NCORE specifies how many cores store one orbital (NPAR=cpu/NCORE).      |
|     This setting can greatly improve the performance of VASP for DFT.       |
|     The default, NCORE=1 might be grossly inefficient on modern             |
|     multi-core architectures or massively parallel machines. Do your        |
|     own testing!!!!                                                         |
|     Unfortunately you need to use the default for GW and RPA                |
|     calculations (for HF NCORE is supported but not extensively tested      |
|     yet).                                                                   |
|                                                                             |
 -----------------------------------------------------------------------------

 POTCAR:    PAW_PBE O 08Apr2002                   
   VRHFIN =O: s2p4                                                                                  
   LEXCH  = PE                                                                                      
   EATOM  =   432.3788 eV,   31.7789 Ry                                                             
                                                                                                    
   TITEL  = PAW_PBE O 08Apr2002                                                                     
   LULTRA =        F    use ultrasoft PP ?                                                          
   IUNSCR =        1    unscreen: 0-lin 1-nonlin 2-no                                               
   RPACOR =    1.200    partial core radius                                                         
   POMASS =   16.000; ZVAL   =    6.000    mass and valenz                                          
   RCORE  =    1.520    outmost cutoff radius                                                       
   RWIGS  =    1.550; RWIGS  =    0.820    wigner-seitz radius (au A)                               
   ENMAX  =  400.000; ENMIN  =  300.000 eV                                                          
   ICORE  =        2    local potential                                                             
   LCOR   =        T    correct aug charges                                                         
   LPAW   =        T    paw PP                                                                      
   EAUG   =  605.392                                                                                
   DEXC   =    0.000                                                                                
   RMAX   =    1.553    core radius for proj-oper                                                   
   RAUG   =    1.300    factor for augmentation sphere                                              
   RDEP   =    1.550    radius for radial grids                                                     
   RDEPT  =    1.329    core radius for aug-charge                                                  
                                                                                                    
   Atomic configuration                                                                             
    4 entries                                                                                       
     n  l   j            E        occ.                                                              
     1  0  0.50      -514.6923   2.0000                                                             
     2  0  0.50       -23.9615   2.0000                                                             
     2  1  0.50        -9.0305   4.0000                                                             
     3  2  1.50        -9.5241   0.0000                                                             
   Description                                                                                      
     l       E           TYP  RCUT    TYP  RCUT                                                     
     0    -23.9615318     23  1.200                                                                 
     0     -9.5240782     23  1.200                                                                 
     1     -9.0304911     23  1.520                                                                 
     1      8.1634956     23  1.520                                                                 
     2     -9.5240782      7  1.500                                                                 
  local pseudopotential read in
  partial core-charges read in
  partial kinetic energy density read in
  kinetic energy density of atom read in
  atomic valenz-charges read in
  non local Contribution for L=            0  read in
    real space projection operators read in
  non local Contribution for L=            0  read in
    real space projection operators read in
  non local Contribution for L=            1  read in
    real space projection operators read in
  non local Contribution for L=            1  read in
    real space projection operators read in
    PAW grid and wavefunctions read in
 
   number of l-projection  operators is LMAX  =            4
   number of lm-projection operators is LMMAX =            8
 
 POTCAR:    PAW_PBE H 15Jun2001                   
   VRHFIN =H: ultrasoft test                                                                        
   LEXCH  = PE                                                                                      
   EATOM  =    12.4884 eV,    0.9179 Ry                                                             
                                                                                                    
   TITEL  = PAW_PBE H 15Jun2001                                                                     
   LULTRA =        F    use ultrasoft PP ?                                                          
   IUNSCR =        0    unscreen: 0-lin 1-nonlin 2-no                                               
   RPACOR =    0.000    partial core radius                                                         
   POMASS =    1.000; ZVAL   =    1.000    mass and valenz                                          
   RCORE  =    1.100    outmost cutoff radius                                                       
   RWIGS  =    0.700; RWIGS  =    0.370    wigner-seitz radius (au A)                               
   ENMAX  =  250.000; ENMIN  =  200.000 eV                                                          
   RCLOC  =    0.701    cutoff for local pot                                                        
   LCOR   =        T    correct aug charges                                                         
   LPAW   =        T    paw PP                                                                      
   EAUG   =  400.000                                                                                
   RMAX   =    1.123    core radius for proj-oper                                                   
   RAUG   =    1.200    factor for augmentation sphere                                              
   RDEP   =    1.112    radius for radial grids                                                     
   RDEPT  =    0.926    core radius for aug-charge                                                  
                                                                                                    
   Atomic configuration                                                                             
    2 entries                                                                                       
     n  l   j            E        occ.                                                              
     1  0  0.50        -6.4927   1.0000                                                             
     2  1  0.50        -3.4015   0.0000                                                             
   Description                                                                                      
     l       E           TYP  RCUT    TYP  RCUT                                                     
     0     -6.4927494     23  1.100                                                                 
     0      6.8029130     23  1.100                                                                 
     1     -4.0817478     23  1.100                                                                 
  local pseudopotential read in
  atomic valenz-charges read in
  non local Contribution for L=            0  read in
    real space projection operators read in
  non local Contribution for L=            0  read in
    real space projection operators read in
  non local Contribution for L=            1  read in
    real space projection operators read in
    PAW grid and wavefunctions read in
 
   number of l-projection  operators is LMAX  =            3
   number of lm-projection operators is LMMAX =            5
 
  PAW_PBE O 08Apr2002                   :
 energy of atom  1       EATOM= -432.3788
 kinetic energy error for atom=    0.0022 (will be added to EATOM!!)
  PAW_PBE H 15Jun2001                   :
 energy of atom  2       EATOM=  -12.4884
 kinetic energy error for atom=    0.0001 (will be added to EATOM!!)
 
 
 POSCAR:  O  H
  positions in cartesian coordinates
  No initial velocities read in
 exchange correlation table for  LEXCH =        8
   RHO(1)=    0.500       N(1)  =     2000
   RHO(2)=  100.500       N(2)  =     4000
 


--------------------------------------------------------------------------------------------------------


 ion  position               nearest neighbor table
   1  0.000  0.078  0.000-   3 0.96   2 0.96
   2  0.001  0.094  0.978-   1 0.96
   3  0.000  0.096  0.021-   1 0.96
 
  LATTYP: Found a simple cubic cell.
 ALAT       =    35.0000000000
  
  Lattice vectors:
  
 A1 = (  35.0000000000,   0.0000000000,   0.0000000000)
 A2 = (   0.0000000000,  35.0000000000,   0.0000000000)
 A3 = (   0.0000000000,   0.0000000000,  35.0000000000)


Analysis of symmetry for initial positions (statically):
=====================================================================
 Subroutine PRICEL returns:
 Original cell was already a primitive cell.
 

 Routine SETGRP: Setting up the symmetry group for a 
 simple cubic supercell.


 Subroutine GETGRP returns: Found  1 space group operations
 (whereof  1 operations were pure point group operations)
 out of a pool of 48 trial point group operations.


The static configuration has the point symmetry C_1 .


Analysis of symmetry for dynamics (positions and initial velocities):
=====================================================================
 Subroutine PRICEL returns:
 Original cell was already a primitive cell.
 

 Routine SETGRP: Setting up the symmetry group for a 
 simple cubic supercell.


 Subroutine GETGRP returns: Found  1 space group operations
 (whereof  1 operations were pure point group operations)
 out of a pool of 48 trial point group operations.


The dynamic configuration has the point symmetry C_1 .


 Subroutine INISYM returns: Found  1 space group operations
 (whereof  1 operations are pure point group operations),
 and found     1 'primitive' translations


----------------------------------------------------------------------------------------

                                     Primitive cell                                     

  volume of cell :   42875.0000

  direct lattice vectors                    reciprocal lattice vectors
    35.000000000  0.000000000  0.000000000     0.028571429  0.000000000  0.000000000
     0.000000000 35.000000000  0.000000000     0.000000000  0.028571429  0.000000000
     0.000000000  0.000000000 35.000000000     0.000000000  0.000000000  0.028571429

  length of vectors
    35.000000000 35.000000000 35.000000000     0.028571429  0.028571429  0.028571429

  position of ions in fractional coordinates (direct lattice)
     0.000000000  0.077920171  0.000000000
     0.000848682  0.093753642  0.977571084
     0.000390051  0.095807815  0.020841195

  ion indices of the primitive-cell ions
   primitive index   ion index
                 1           1
                 2           2
                 3           3

----------------------------------------------------------------------------------------

 
 
 KPOINTS: g                                       

Automatic generation of k-mesh.
Space group operators:
 irot       det(A)        alpha          n_x          n_y          n_z        tau_x        tau_y        tau_z
    1     1.000000     0.000000     1.000000     0.000000     0.000000     0.000000     0.000000     0.000000
 
 Subroutine IBZKPT returns following result:
 ===========================================
 
 Found      1 irreducible k-points:
 
 Following reciprocal coordinates:
            Coordinates               Weight
  0.000000  0.000000  0.000000      1.000000
 
 Following cartesian coordinates:
            Coordinates               Weight
  0.000000  0.000000  0.000000      1.000000
 


--------------------------------------------------------------------------------------------------------




 Dimension of arrays:
   k-points           NKPTS =      1   k-points in BZ     NKDIM =      1   number of bands    NBANDS=     32
   number of dos      NEDOS =    301   number of ions     NIONS =      3
   non local maximal  LDIM  =      4   non local SUM 2l+1 LMDIM =      8
   total plane-waves  NPLWV = ******
   max r-space proj   IRMAX =      1   max aug-charges    IRDMAX=  16541
   dimension x,y,z NGX =   378 NGY =  378 NGZ =  378
   dimension x,y,z NGXF=   756 NGYF=  756 NGZF=  756
   support grid    NGXF=   756 NGYF=  756 NGZF=  756
   ions per type =               1   2
   NGX,Y,Z   is equivalent  to a cutoff of  17.95, 17.95, 17.95 a.u.
   NGXF,Y,Z  is equivalent  to a cutoff of  35.91, 35.91, 35.91 a.u.

 SYSTEM =  C                                       
 POSCAR =   O  H                                   

 Startparameter for this run:
   NWRITE =      2    write-flag & timer
   PREC   = acc       normal or accurate (medium, high low for compatibility)
   ISTART =      0    job   : 0-new  1-cont  2-samecut
   ICHARG =      2    charge: 1-file 2-atom 10-const
   ISPIN  =      1    spin polarized calculation?
   LNONCOLLINEAR =      F non collinear calculations
   LSORBIT =      F    spin-orbit coupling
   INIWAV =      1    electr: 0-lowe 1-rand  2-diag
   LASPH  =      T    aspherical Exc in radial PAW
   METAGGA=      F    non-selfconsistent MetaGGA calc.

 Electronic Relaxation 1
   ENCUT  = 1000.0 eV  73.50 Ry    8.57 a.u.  90.25 90.25 90.25*2*pi/ulx,y,z
   ENINI  = 1000.0     initial cutoff
   ENAUG  =  605.4 eV  augmentation charge cutoff
   NELM   =     60;   NELMIN=  2; NELMDL= -5     # of ELM steps 
   EDIFF  = 0.1E-06   stopping-criterion for ELM
   LREAL  =      F    real-space projection
   NLSPLINE    = F    spline interpolate recip. space projectors
   LCOMPAT=      F    compatible to vasp.4.4
   GGA_COMPAT  = T    GGA compatible to vasp.4.4-vasp.4.6
   LMAXPAW     = -100 max onsite density
   LMAXMIX     =    2 max onsite mixed and CHGCAR
   VOSKOWN=      0    Vosko Wilk Nusair interpolation
   ROPT   =    0.00000   0.00000
 Ionic relaxation
   EDIFFG = 0.1E-05   stopping-criterion for IOM
   NSW    =      0    number of steps for IOM
   NBLOCK =      1;   KBLOCK =      1    inner block; outer block 
   IBRION =     -1    ionic relax: 0-MD 1-quasi-New 2-CG
   NFREE  =      0    steps in history (QN), initial steepest desc. (CG)
   ISIF   =      2    stress and relaxation
   IWAVPR =     10    prediction:  0-non 1-charg 2-wave 3-comb
   ISYM   =      2    0-nonsym 1-usesym 2-fastsym
   LCORR  =      T    Harris-Foulkes like correction to forces

   POTIM  = 0.5000    time-step for ionic-motion
   TEIN   =    0.0    initial temperature
   TEBEG  =    0.0;   TEEND  =   0.0 temperature during run
   SMASS  =  -3.00    Nose mass-parameter (am)
   estimated Nose-frequenzy (Omega)   =  0.10E-29 period in steps = 0.13E+47 mass=  -0.280E-25a.u.
   SCALEE = 1.0000    scale energy and forces
   NPACO  =    256;   APACO  = 16.0  distance and # of slots for P.C.
   PSTRESS=    0.0 pullay stress

  Mass of Ions in am
   POMASS =  16.00  1.00
  Ionic Valenz
   ZVAL   =   6.00  1.00
  Atomic Wigner-Seitz radii
   RWIGS  =  -1.00 -1.00
  virtual crystal weights 
   VCA    =   1.00  1.00
   NELECT =       8.0000    total number of electrons
   NUPDOWN=      -1.0000    fix difference up-down

 DOS related values:
   EMIN   =  10.00;   EMAX   =-10.00  energy-range for DOS
   EFERMI =   0.00
   ISMEAR =     0;   SIGMA  =   0.01  broadening in eV -4-tet -1-fermi 0-gaus

 Electronic relaxation 2 (details)
   IALGO  =     38    algorithm
   LDIAG  =      T    sub-space diagonalisation (order eigenvalues)
   LSUBROT=      F    optimize rotation matrix (better conditioning)
   TURBO    =      0    0=normal 1=particle mesh
   IRESTART =      0    0=no restart 2=restart with 2 vectors
   NREBOOT  =      0    no. of reboots
   NMIN     =      0    reboot dimension
   EREF     =   0.00    reference energy to select bands
   IMIX   =      4    mixing-type and parameters
     AMIX     =   0.40;   BMIX     =  1.00
     AMIX_MAG =   1.60;   BMIX_MAG =  1.00
     AMIN     =   0.10
     WC   =   100.;   INIMIX=   1;  MIXPRE=   1;  MAXMIX= -45

 Intra band minimization:
   WEIMIN = 0.0000     energy-eigenvalue tresh-hold
   EBREAK =  0.78E-09  absolut break condition
   DEPER  =   0.30     relativ break condition  

   TIME   =   0.40     timestep for ELM

  volume/ion in A,a.u.               =   14291.67     96444.93
  Fermi-wavevector in a.u.,A,eV,Ry     =   0.093548  0.176781  0.119069  0.008751
  Thomas-Fermi vector in A             =   0.652187
 
 Write flags
   LWAVE        =      T    write WAVECAR
   LDOWNSAMPLE  =      F    k-point downsampling of WAVECAR
   LCHARG       =      T    write CHGCAR
   LVTOT        =      F    write LOCPOT, total local potential
   LVHAR        =      F    write LOCPOT, Hartree potential only
   LELF         =      F    write electronic localiz. function (ELF)
   LORBIT       =      0    0 simple, 1 ext, 2 COOP (PROOUT), +10 PAW based schemes


 Dipole corrections
   LMONO  =      F    monopole corrections only (constant potential shift)
   LDIPOL =      F    correct potential (dipole corrections)
   IDIPOL =      4    1-x, 2-y, 3-z, 4-all directions 
   EPSILON=  1.0000000 bulk dielectric constant

 Exchange correlation treatment:
   GGA     =    --    GGA type
   LEXCH   =     8    internal setting for exchange type
   VOSKOWN=      0    Vosko Wilk Nusair interpolation
   LHFCALC =     F    Hartree Fock is set to
   LHFONE  =     F    Hartree Fock one center treatment
   AEXX    =    0.0000 exact exchange contribution

 Linear response parameters
   LEPSILON=     F    determine dielectric tensor
   LRPA    =     F    only Hartree local field effects (RPA)
   LNABLA  =     F    use nabla operator in PAW spheres
   LVEL    =     F    velocity operator in full k-point grid
   LINTERFAST=   F  fast interpolation
   KINTER  =     0    interpolate to denser k-point grid
   CSHIFT  =0.1000    complex shift for real part using Kramers Kronig
   OMEGAMAX=  -1.0    maximum frequency
   DEG_THRESHOLD= 0.2000000E-02 threshold for treating states as degnerate
   RTIME   =   -0.100 relaxation time in fs
  (WPLASMAI=    0.000 imaginary part of plasma frequency in eV, 0.658/RTIME)
   DFIELD  = 0.0000000 0.0000000 0.0000000 field for delta impulse in time
 
 Orbital magnetization related:
   ORBITALMAG=     F  switch on orbital magnetization
   LCHIMAG   =     F  perturbation theory with respect to B field
   DQ        =  0.001000  dq finite difference perturbation B field
   LLRAUG    =     F  two centre corrections for induced B field



--------------------------------------------------------------------------------------------------------


 Static calculation
 charge density and potential will be updated during run
 non-spin polarized calculation
 Variant of blocked Davidson
 Davidson routine will perform the subspace rotation
 perform sub-space diagonalisation
    after iterative eigenvector-optimisation
 modified Broyden-mixing scheme, WC =      100.0
 initial mixing is a Kerker type mixing with AMIX =  0.4000 and BMIX =      1.0000
 Hartree-type preconditioning will be used
 using additional bands            28
 reciprocal scheme for non local part
 use partial core corrections
 calculate Harris-corrections to forces 
   (improved forces if not selfconsistent)
 use gradient corrections 
 use of overlap-Matrix (Vanderbilt PP)
 Gauss-broadening in eV      SIGMA  =   0.01


--------------------------------------------------------------------------------------------------------


  energy-cutoff  :     1000.00
  volume of cell :    42875.00
      direct lattice vectors                 reciprocal lattice vectors
    35.000000000  0.000000000  0.000000000     0.028571429  0.000000000  0.000000000
     0.000000000 35.000000000  0.000000000     0.000000000  0.028571429  0.000000000
     0.000000000  0.000000000 35.000000000     0.000000000  0.000000000  0.028571429

  length of vectors
    35.000000000 35.000000000 35.000000000     0.028571429  0.028571429  0.028571429


 
 k-points in units of 2pi/SCALE and weight: g                                       
   0.00000000  0.00000000  0.00000000       1.000
 
 k-points in reciprocal lattice and weights: g                                       
   0.00000000  0.00000000  0.00000000       1.000
 
 position of ions in fractional coordinates (direct lattice) 
   0.00000000  0.07792017  0.00000000
   0.00084868  0.09375364  0.97757108
   0.00039005  0.09580781  0.02084119
 
 position of ions in cartesian coordinates  (Angst):
   0.00000000  2.72720600  0.00000000
   0.02970387  3.28137746 34.21498793
   0.01365177  3.35327352  0.72944182
 


--------------------------------------------------------------------------------------------------------


 use serial FFT for orbitals x direction half grid
 k-point   1 :   0.0000 0.0000 0.0000  plane waves: 1539209

 maximum and minimum number of plane-waves per node :   1539209  1539209

 maximum number of plane-waves:   1539209
 maximum index in each direction: 
   IXMAX=   90   IYMAX=   90   IZMAX=   90
   IXMIN=    0   IYMIN=  -90   IZMIN=  -90


 serial   3D FFT for wavefunctions
 parallel 3D FFT for charge:
    minimum data exchange during FFTs selected (reduces bandwidth)


 total amount of memory used by VASP MPI-rank0  3934008. kBytes
=======================================================================

   base      :      30000. kBytes
   nonl-proj :     270904. kBytes
   fftplans  :     676185. kBytes
   grid      :    2932288. kBytes
   one-center:          4. kBytes
   wavefun   :      24627. kBytes
 
     INWAV:  cpu time    0.0000: real time    0.0000
 Broyden mixing: mesh for mixing (old mesh)
   NGX =181   NGY =181   NGZ =181
  (NGX  =756   NGY  =756   NGZ  =756)
  gives a total of ****** points

 initial charge density was supplied:
 charge density of overlapping atoms calculated
 number of electron       8.0000000 magnetization 
 keeping initial charge density in first step


--------------------------------------------------------------------------------------------------------


 Maximum index for augmentation-charges           763 (set IRDMAX)


--------------------------------------------------------------------------------------------------------


 First call to EWALD:  gamma=   0.051
 Maximum number of real-space cells 3x 3x 3
 Maximum number of reciprocal cells 3x 3x 3

    FEWALD:  cpu time    0.0015: real time    0.0015


--------------------------------------- Iteration      1(   1)  ---------------------------------------


    POTLOK:  cpu time   13.3278: real time   13.3502
    SETDIJ:  cpu time    0.0478: real time    0.0483
     EDDAV:  cpu time   13.5600: real time   13.5931
       DOS:  cpu time    0.0056: real time    0.0056
    --------------------------------------------
      LOOP:  cpu time   26.9413: real time   26.9972

 eigenvalue-minimisations  :    96
 total energy-change (2. order) : 0.7338972E+02  (-0.1150158E+03)
 number of electron       8.0000000 magnetization 
 augmentation part        8.0000000 magnetization 

 Free energy of the ion-electron system (eV)
  ---------------------------------------------------
  alpha Z        PSCENC =         0.00523035
  Ewald energy   TEWEN  =       151.89276684
  -Hartree energ DENC   =      -509.55289512
  -exchange      EXHF   =         0.00000000
  -V(xc)+E(xc)   XCENC  =        32.22394595
  PAW double counting   =       350.81753176     -352.63395800
  entropy T*S    EENTRO =        -0.00000000
  eigenvalues    EBANDS =       -56.71610663
  atomic energy  EATOM  =       457.35320486
  Solvation  Ediel_sol  =         0.00000000
  ---------------------------------------------------
  free energy    TOTEN  =        73.38972001 eV

  energy without entropy =       73.38972001  energy(sigma->0) =       73.38972001


--------------------------------------------------------------------------------------------------------




--------------------------------------- Iteration      1(   2)  ---------------------------------------


     EDDAV:  cpu time   13.5676: real time   13.5951
       DOS:  cpu time    0.0035: real time    0.0035
    --------------------------------------------
      LOOP:  cpu time   13.5711: real time   13.5987

 eigenvalue-minimisations  :    96
 total energy-change (2. order) :-0.5591940E+02  (-0.5591940E+02)
 number of electron       8.0000000 magnetization 
 augmentation part        8.0000000 magnetization 

 Free energy of the ion-electron system (eV)
  ---------------------------------------------------
  alpha Z        PSCENC =         0.00523035
  Ewald energy   TEWEN  =       151.89276684
  -Hartree energ DENC   =      -509.55289512
  -exchange      EXHF   =         0.00000000
  -V(xc)+E(xc)   XCENC  =        32.22394595
  PAW double counting   =       350.81753176     -352.63395800
  entropy T*S    EENTRO =        -0.00000000
  eigenvalues    EBANDS =      -112.63550873
  atomic energy  EATOM  =       457.35320486
  Solvation  Ediel_sol  =         0.00000000
  ---------------------------------------------------
  free energy    TOTEN  =        17.47031791 eV

  energy without entropy =       17.47031791  energy(sigma->0) =       17.47031791


--------------------------------------------------------------------------------------------------------




--------------------------------------- Iteration      1(   3)  ---------------------------------------


     EDDAV:  cpu time   13.5901: real time   13.6177
       DOS:  cpu time    0.0003: real time    0.0003
    --------------------------------------------
      LOOP:  cpu time   13.5904: real time   13.6181

 eigenvalue-minimisations  :    96
 total energy-change (2. order) :-0.3136314E+02  (-0.3136314E+02)
 number of electron       8.0000000 magnetization 
 augmentation part        8.0000000 magnetization 

 Free energy of the ion-electron system (eV)
  ---------------------------------------------------
  alpha Z        PSCENC =         0.00523035
  Ewald energy   TEWEN  =       151.89276684
  -Hartree energ DENC   =      -509.55289512
  -exchange      EXHF   =         0.00000000
  -V(xc)+E(xc)   XCENC  =        32.22394595
  PAW double counting   =       350.81753176     -352.63395800
  entropy T*S    EENTRO =        -0.00000000
  eigenvalues    EBANDS =      -143.99864708
  atomic energy  EATOM  =       457.35320486
  Solvation  Ediel_sol  =         0.00000000
  ---------------------------------------------------
  free energy    TOTEN  =       -13.89282043 eV

  energy without entropy =      -13.89282043  energy(sigma->0) =      -13.89282043


--------------------------------------------------------------------------------------------------------




--------------------------------------- Iteration      1(   4)  ---------------------------------------


     EDDAV:  cpu time   10.2843: real time   10.3069
       DOS:  cpu time    0.0040: real time    0.0040
    --------------------------------------------
      LOOP:  cpu time   10.2883: real time   10.3109

 eigenvalue-minimisations  :    64
 total energy-change (2. order) :-0.2429032E+01  (-0.2429032E+01)
 number of electron       8.0000000 magnetization 
 augmentation part        8.0000000 magnetization 

 Free energy of the ion-electron system (eV)
  ---------------------------------------------------
  alpha Z        PSCENC =         0.00523035
  Ewald energy   TEWEN  =       151.89276684
  -Hartree energ DENC   =      -509.55289512
  -exchange      EXHF   =         0.00000000
  -V(xc)+E(xc)   XCENC  =        32.22394595
  PAW double counting   =       350.81753176     -352.63395800
  entropy T*S    EENTRO =        -0.00000000
  eigenvalues    EBANDS =      -146.42767896
  atomic energy  EATOM  =       457.35320486
  Solvation  Ediel_sol  =         0.00000000
  ---------------------------------------------------
  free energy    TOTEN  =       -16.32185232 eV

  energy without entropy =      -16.32185232  energy(sigma->0) =      -16.32185232


--------------------------------------------------------------------------------------------------------




--------------------------------------- Iteration      1(   5)  ---------------------------------------


     EDDAV:  cpu time   16.9011: real time   16.9386
       DOS:  cpu time    0.0036: real time    0.0036
    CHARGE:  cpu time    5.1730: real time    5.1806
    MIXING:  cpu time    0.1993: real time    0.1997
    --------------------------------------------
      LOOP:  cpu time   22.2770: real time   22.3225

 eigenvalue-minimisations  :   128
 total energy-change (2. order) :-0.1962207E-01  (-0.1962208E-01)
 number of electron       7.9999999 magnetization 
 augmentation part        0.8422957 magnetization 

 Broyden mixing:
  rms(total) = 0.80682E+00    rms(broyden)= 0.80681E+00
  rms(prec ) = 0.83304E+00
  weight for this iteration     100.00

 Free energy of the ion-electron system (eV)
  ---------------------------------------------------
  alpha Z        PSCENC =         0.00523035
  Ewald energy   TEWEN  =       151.89276684
  -Hartree energ DENC   =      -509.55289512
  -exchange      EXHF   =         0.00000000
  -V(xc)+E(xc)   XCENC  =        32.22394595
  PAW double counting   =       350.81753176     -352.63395800
  entropy T*S    EENTRO =        -0.00000000
  eigenvalues    EBANDS =      -146.44730104
  atomic energy  EATOM  =       457.35320486
  Solvation  Ediel_sol  =         0.00000000
  ---------------------------------------------------
  free energy    TOTEN  =       -16.34147439 eV

  energy without entropy =      -16.34147439  energy(sigma->0) =      -16.34147439


--------------------------------------------------------------------------------------------------------




--------------------------------------- Iteration      1(   6)  ---------------------------------------


    POTLOK:  cpu time   13.0950: real time   13.1175
    SETDIJ:  cpu time    0.0471: real time    0.0471
     EDDAV:  cpu time   10.3080: real time   10.3315
       DOS:  cpu time    0.0156: real time    0.0156
    CHARGE:  cpu time    5.0067: real time    5.0145
    MIXING:  cpu time    0.2244: real time    0.2273
    --------------------------------------------
      LOOP:  cpu time   28.6968: real time   28.7535

 eigenvalue-minimisations  :    64
 total energy-change (2. order) : 0.1922853E+01  (-0.9765626E+00)
 number of electron       7.9999999 magnetization 
 augmentation part        0.7026716 magnetization 

 Broyden mixing:
  rms(total) = 0.32706E+00    rms(broyden)= 0.32706E+00
  rms(prec ) = 0.33254E+00
  weight for this iteration     100.00

 eigenvalues of (default mixing * dielectric matrix)
  average eigenvalue GAMMA=   0.9204
  0.9204

 Free energy of the ion-electron system (eV)
  ---------------------------------------------------
  alpha Z        PSCENC =         0.00523035
  Ewald energy   TEWEN  =       151.89276684
  -Hartree energ DENC   =      -534.07271358
  -exchange      EXHF   =         0.00000000
  -V(xc)+E(xc)   XCENC  =        33.58335462
  PAW double counting   =       446.45152138     -448.63700867
  entropy T*S    EENTRO =        -0.00000000
  eigenvalues    EBANDS =      -120.99497769
  atomic energy  EATOM  =       457.35320486
  Solvation  Ediel_sol  =         0.00000000
  ---------------------------------------------------
  free energy    TOTEN  =       -14.41862189 eV

  energy without entropy =      -14.41862189  energy(sigma->0) =      -14.41862189


--------------------------------------------------------------------------------------------------------




--------------------------------------- Iteration      1(   7)  ---------------------------------------


    POTLOK:  cpu time   13.0516: real time   13.0738
    SETDIJ:  cpu time    0.0470: real time    0.0470
     EDDAV:  cpu time   17.0703: real time   17.1066
       DOS:  cpu time    0.0106: real time    0.0106
    CHARGE:  cpu time    5.0346: real time    5.0417
    MIXING:  cpu time    0.2849: real time    0.2861
    --------------------------------------------
      LOOP:  cpu time   35.4989: real time   35.5658

 eigenvalue-minimisations  :   128
 total energy-change (2. order) : 0.1025343E+00  (-0.1207756E-01)
 number of electron       7.9999999 magnetization 
 augmentation part        0.6995850 magnetization 

 Broyden mixing:
  rms(total) = 0.20911E+00    rms(broyden)= 0.20911E+00
  rms(prec ) = 0.21299E+00
  weight for this iteration     100.00

 eigenvalues of (default mixing * dielectric matrix)
  average eigenvalue GAMMA=   1.7196
  1.0364  2.4028

 Free energy of the ion-electron system (eV)
  ---------------------------------------------------
  alpha Z        PSCENC =         0.00523035
  Ewald energy   TEWEN  =       151.89276684
  -Hartree energ DENC   =      -537.56726882
  -exchange      EXHF   =         0.00000000
  -V(xc)+E(xc)   XCENC  =        33.76710485
  PAW double counting   =       488.93153942     -491.07932484
  entropy T*S    EENTRO =        -0.00000000
  eigenvalues    EBANDS =      -117.61934026
  atomic energy  EATOM  =       457.35320486
  Solvation  Ediel_sol  =         0.00000000
  ---------------------------------------------------
  free energy    TOTEN  =       -14.31608761 eV

  energy without entropy =      -14.31608761  energy(sigma->0) =      -14.31608761


--------------------------------------------------------------------------------------------------------




--------------------------------------- Iteration      1(   8)  ---------------------------------------


    POTLOK:  cpu time   13.1049: real time   13.1269
    SETDIJ:  cpu time    0.0471: real time    0.0471
     EDDAV:  cpu time   10.2508: real time   10.2730
       DOS:  cpu time    0.0098: real time    0.0098
    CHARGE:  cpu time    5.1148: real time    5.1221
    MIXING:  cpu time    0.2375: real time    0.2380
    --------------------------------------------
      LOOP:  cpu time   28.7647: real time   28.8169

 eigenvalue-minimisations  :    64
 total energy-change (2. order) : 0.9501746E-01  (-0.7040262E-02)
 number of electron       7.9999999 magnetization 
 augmentation part        0.6990702 magnetization 

 Broyden mixing:
  rms(total) = 0.19373E-01    rms(broyden)= 0.19372E-01
  rms(prec ) = 0.23111E-01
  weight for this iteration     100.00

 eigenvalues of (default mixing * dielectric matrix)
  average eigenvalue GAMMA=   1.4718
  2.3952  1.0100  1.0100

 Free energy of the ion-electron system (eV)
  ---------------------------------------------------
  alpha Z        PSCENC =         0.00523035
  Ewald energy   TEWEN  =       151.89276684
  -Hartree energ DENC   =      -543.05997057
  -exchange      EXHF   =         0.00000000
  -V(xc)+E(xc)   XCENC  =        34.07580099
  PAW double counting   =       559.76531225     -561.86566479
  entropy T*S    EENTRO =        -0.00000000
  eigenvalues    EBANDS =      -112.38775008
  atomic energy  EATOM  =       457.35320486
  Solvation  Ediel_sol  =         0.00000000
  ---------------------------------------------------
  free energy    TOTEN  =       -14.22107015 eV

  energy without entropy =      -14.22107015  energy(sigma->0) =      -14.22107015


--------------------------------------------------------------------------------------------------------




--------------------------------------- Iteration      1(   9)  ---------------------------------------


    POTLOK:  cpu time   13.0732: real time   13.0955
    SETDIJ:  cpu time    0.0470: real time    0.0471
     EDDAV:  cpu time   16.9163: real time   16.9521
       DOS:  cpu time    0.0118: real time    0.0118
    CHARGE:  cpu time    4.9909: real time    4.9982
    MIXING:  cpu time    0.2486: real time    0.2491
    --------------------------------------------
      LOOP:  cpu time   35.2879: real time   35.3538

 eigenvalue-minimisations  :   128
 total energy-change (2. order) :-0.6454722E-03  (-0.5059743E-03)
 number of electron       7.9999999 magnetization 
 augmentation part        0.6960337 magnetization 

 Broyden mixing:
  rms(total) = 0.15420E-01    rms(broyden)= 0.15420E-01
  rms(prec ) = 0.18376E-01
  weight for this iteration     100.00

 eigenvalues of (default mixing * dielectric matrix)
  average eigenvalue GAMMA=   1.8822
  0.9917  0.9917  2.7728  2.7728

 Free energy of the ion-electron system (eV)
  ---------------------------------------------------
  alpha Z        PSCENC =         0.00523035
  Ewald energy   TEWEN  =       151.89276684
  -Hartree energ DENC   =      -543.75366684
  -exchange      EXHF   =         0.00000000
  -V(xc)+E(xc)   XCENC  =        34.10139850
  PAW double counting   =       557.62459154     -559.72925807
  entropy T*S    EENTRO =        -0.00000000
  eigenvalues    EBANDS =      -111.71598280
  atomic energy  EATOM  =       457.35320486
  Solvation  Ediel_sol  =         0.00000000
  ---------------------------------------------------
  free energy    TOTEN  =       -14.22171562 eV

  energy without entropy =      -14.22171562  energy(sigma->0) =      -14.22171562


--------------------------------------------------------------------------------------------------------




--------------------------------------- Iteration      1(  10)  ---------------------------------------


    POTLOK:  cpu time   13.0833: real time   13.1058
    SETDIJ:  cpu time    0.0471: real time    0.0471
     EDDAV:  cpu time   10.2262: real time   10.2478
       DOS:  cpu time    0.0084: real time    0.0084
    CHARGE:  cpu time    5.1960: real time    5.2035
    MIXING:  cpu time    0.2535: real time    0.2540
    --------------------------------------------
      LOOP:  cpu time   28.8146: real time   28.8667

 eigenvalue-minimisations  :    64
 total energy-change (2. order) :-0.4682733E-02  (-0.4099122E-03)
 number of electron       7.9999999 magnetization 
 augmentation part        0.6967122 magnetization 

 Broyden mixing:
  rms(total) = 0.73733E-02    rms(broyden)= 0.73733E-02
  rms(prec ) = 0.88932E-02
  weight for this iteration     100.00

 eigenvalues of (default mixing * dielectric matrix)
  average eigenvalue GAMMA=   1.7334
  3.2692  2.4216  1.0866  0.9448  0.9448

 Free energy of the ion-electron system (eV)
  ---------------------------------------------------
  alpha Z        PSCENC =         0.00523035
  Ewald energy   TEWEN  =       151.89276684
  -Hartree energ DENC   =      -544.54694819
  -exchange      EXHF   =         0.00000000
  -V(xc)+E(xc)   XCENC  =        34.10884401
  PAW double counting   =       550.14284867     -552.23820819
  entropy T*S    EENTRO =        -0.00000000
  eigenvalues    EBANDS =      -110.94413670
  atomic energy  EATOM  =       457.35320486
  Solvation  Ediel_sol  =         0.00000000
  ---------------------------------------------------
  free energy    TOTEN  =       -14.22639836 eV

  energy without entropy =      -14.22639836  energy(sigma->0) =      -14.22639836


--------------------------------------------------------------------------------------------------------




--------------------------------------- Iteration      1(  11)  ---------------------------------------


    POTLOK:  cpu time   13.0972: real time   13.1204
    SETDIJ:  cpu time    0.0470: real time    0.0470
     EDDAV:  cpu time   13.5952: real time   13.6236
       DOS:  cpu time    0.0062: real time    0.0062
    CHARGE:  cpu time    4.9633: real time    4.9707
    MIXING:  cpu time    0.2564: real time    0.2569
    --------------------------------------------
      LOOP:  cpu time   31.9653: real time   32.0249

 eigenvalue-minimisations  :    96
 total energy-change (2. order) :-0.2270943E-02  (-0.1467418E-03)
 number of electron       7.9999999 magnetization 
 augmentation part        0.6951314 magnetization 

 Broyden mixing:
  rms(total) = 0.40280E-02    rms(broyden)= 0.40280E-02
  rms(prec ) = 0.55901E-02
  weight for this iteration     100.00

 eigenvalues of (default mixing * dielectric matrix)
  average eigenvalue GAMMA=   2.0898
  4.4189  2.8609  2.3498  1.0573  0.9261  0.9261

 Free energy of the ion-electron system (eV)
  ---------------------------------------------------
  alpha Z        PSCENC =         0.00523035
  Ewald energy   TEWEN  =       151.89276684
  -Hartree energ DENC   =      -544.96030847
  -exchange      EXHF   =         0.00000000
  -V(xc)+E(xc)   XCENC  =        34.12506682
  PAW double counting   =       551.71994941     -553.81791253
  entropy T*S    EENTRO =        -0.00000000
  eigenvalues    EBANDS =      -110.54666658
  atomic energy  EATOM  =       457.35320486
  Solvation  Ediel_sol  =         0.00000000
  ---------------------------------------------------
  free energy    TOTEN  =       -14.22866930 eV

  energy without entropy =      -14.22866930  energy(sigma->0) =      -14.22866930


--------------------------------------------------------------------------------------------------------




--------------------------------------- Iteration      1(  12)  ---------------------------------------


    POTLOK:  cpu time   13.0923: real time   13.1150
    SETDIJ:  cpu time    0.0470: real time    0.0470
     EDDAV:  cpu time   10.2652: real time   10.2862
       DOS:  cpu time    0.0003: real time    0.0003
    CHARGE:  cpu time    5.0372: real time    5.0443
    MIXING:  cpu time    0.3431: real time    0.3436
    --------------------------------------------
      LOOP:  cpu time   28.7850: real time   28.8365

 eigenvalue-minimisations  :    64
 total energy-change (2. order) :-0.6478682E-02  (-0.1819437E-03)
 number of electron       7.9999999 magnetization 
 augmentation part        0.6952568 magnetization 

 Broyden mixing:
  rms(total) = 0.16665E-02    rms(broyden)= 0.16665E-02
  rms(prec ) = 0.23648E-02
  weight for this iteration     100.00

 eigenvalues of (default mixing * dielectric matrix)
  average eigenvalue GAMMA=   2.1029
  4.9457  3.1044  2.4816  1.1590  1.1590  0.9354  0.9354

 Free energy of the ion-electron system (eV)
  ---------------------------------------------------
  alpha Z        PSCENC =         0.00523035
  Ewald energy   TEWEN  =       151.89276684
  -Hartree energ DENC   =      -545.20610478
  -exchange      EXHF   =         0.00000000
  -V(xc)+E(xc)   XCENC  =        34.11896682
  PAW double counting   =       551.59085128     -553.68732216
  entropy T*S    EENTRO =        -0.00000000
  eigenvalues    EBANDS =      -110.30274119
  atomic energy  EATOM  =       457.35320486
  Solvation  Ediel_sol  =         0.00000000
  ---------------------------------------------------
  free energy    TOTEN  =       -14.23514798 eV

  energy without entropy =      -14.23514798  energy(sigma->0) =      -14.23514798


--------------------------------------------------------------------------------------------------------




--------------------------------------- Iteration      1(  13)  ---------------------------------------


    POTLOK:  cpu time   13.1231: real time   13.1457
    SETDIJ:  cpu time    0.0470: real time    0.0470
     EDDAV:  cpu time   16.9648: real time   17.0014
       DOS:  cpu time    0.0113: real time    0.0113
    CHARGE:  cpu time    5.1018: real time    5.1117
    MIXING:  cpu time    0.3284: real time    0.3290
    --------------------------------------------
      LOOP:  cpu time   35.5765: real time   35.6461

 eigenvalue-minimisations  :   128
 total energy-change (2. order) :-0.2033153E-02  (-0.2327262E-04)
 number of electron       7.9999999 magnetization 
 augmentation part        0.6951116 magnetization 

 Broyden mixing:
  rms(total) = 0.14592E-02    rms(broyden)= 0.14592E-02
  rms(prec ) = 0.18220E-02
  weight for this iteration     100.00

 eigenvalues of (default mixing * dielectric matrix)
  average eigenvalue GAMMA=   2.3570
  6.4358  3.3413  2.8106  2.3850  1.0915  0.9524  0.9524  0.8866

 Free energy of the ion-electron system (eV)
  ---------------------------------------------------
  alpha Z        PSCENC =         0.00523035
  Ewald energy   TEWEN  =       151.89276684
  -Hartree energ DENC   =      -545.25349784
  -exchange      EXHF   =         0.00000000
  -V(xc)+E(xc)   XCENC  =        34.11722411
  PAW double counting   =       552.11580237     -554.21203237
  entropy T*S    EENTRO =        -0.00000000
  eigenvalues    EBANDS =      -110.25587946
  atomic energy  EATOM  =       457.35320486
  Solvation  Ediel_sol  =         0.00000000
  ---------------------------------------------------
  free energy    TOTEN  =       -14.23718113 eV

  energy without entropy =      -14.23718113  energy(sigma->0) =      -14.23718113


--------------------------------------------------------------------------------------------------------




--------------------------------------- Iteration      1(  14)  ---------------------------------------


    POTLOK:  cpu time   13.1282: real time   13.1519
    SETDIJ:  cpu time    0.0470: real time    0.0471
     EDDAV:  cpu time   10.2396: real time   10.2605
       DOS:  cpu time    0.0063: real time    0.0064
    CHARGE:  cpu time    4.9905: real time    4.9979
    MIXING:  cpu time    0.2941: real time    0.2947
    --------------------------------------------
      LOOP:  cpu time   28.7058: real time   28.7584

 eigenvalue-minimisations  :    64
 total energy-change (2. order) :-0.1867672E-02  (-0.1987194E-04)
 number of electron       7.9999999 magnetization 
 augmentation part        0.6952255 magnetization 

 Broyden mixing:
  rms(total) = 0.76240E-03    rms(broyden)= 0.76240E-03
  rms(prec ) = 0.89417E-03
  weight for this iteration     100.00

 eigenvalues of (default mixing * dielectric matrix)
  average eigenvalue GAMMA=   2.3271
  7.0346  3.5646  2.5482  2.5482  1.3065  1.1526  0.9572  0.9572  0.8748

 Free energy of the ion-electron system (eV)
  ---------------------------------------------------
  alpha Z        PSCENC =         0.00523035
  Ewald energy   TEWEN  =       151.89276684
  -Hartree energ DENC   =      -545.24582393
  -exchange      EXHF   =         0.00000000
  -V(xc)+E(xc)   XCENC  =        34.11222875
  PAW double counting   =       551.53080748     -553.62637453
  entropy T*S    EENTRO =        -0.00000000
  eigenvalues    EBANDS =      -110.26108864
  atomic energy  EATOM  =       457.35320486
  Solvation  Ediel_sol  =         0.00000000
  ---------------------------------------------------
  free energy    TOTEN  =       -14.23904881 eV

  energy without entropy =      -14.23904881  energy(sigma->0) =      -14.23904881


--------------------------------------------------------------------------------------------------------




--------------------------------------- Iteration      1(  15)  ---------------------------------------


    POTLOK:  cpu time   13.0661: real time   13.0893
    SETDIJ:  cpu time    0.0471: real time    0.0471
     EDDAV:  cpu time   16.9055: real time   16.9409
       DOS:  cpu time    0.0134: real time    0.0134
    CHARGE:  cpu time    5.0023: real time    5.0095
    MIXING:  cpu time    0.3646: real time    0.3653
    --------------------------------------------
      LOOP:  cpu time   35.3989: real time   35.4655

 eigenvalue-minimisations  :   128
 total energy-change (2. order) :-0.4248299E-03  (-0.1438710E-05)
 number of electron       7.9999999 magnetization 
 augmentation part        0.6951641 magnetization 

 Broyden mixing:
  rms(total) = 0.34054E-03    rms(broyden)= 0.34054E-03
  rms(prec ) = 0.46758E-03
  weight for this iteration     100.00

 eigenvalues of (default mixing * dielectric matrix)
  average eigenvalue GAMMA=   2.4894
  7.8632  4.4336  2.7107  2.7107  2.3266  1.0954  0.9496  0.9496  0.9971  0.8569

 Free energy of the ion-electron system (eV)
  ---------------------------------------------------
  alpha Z        PSCENC =         0.00523035
  Ewald energy   TEWEN  =       151.89276684
  -Hartree energ DENC   =      -545.24434355
  -exchange      EXHF   =         0.00000000
  -V(xc)+E(xc)   XCENC  =        34.11165284
  PAW double counting   =       551.49197095     -553.58761614
  entropy T*S    EENTRO =        -0.00000000
  eigenvalues    EBANDS =      -110.26233979
  atomic energy  EATOM  =       457.35320486
  Solvation  Ediel_sol  =         0.00000000
  ---------------------------------------------------
  free energy    TOTEN  =       -14.23947364 eV

  energy without entropy =      -14.23947364  energy(sigma->0) =      -14.23947364


--------------------------------------------------------------------------------------------------------




--------------------------------------- Iteration      1(  16)  ---------------------------------------


    POTLOK:  cpu time   13.1089: real time   13.1321
    SETDIJ:  cpu time    0.0480: real time    0.0481
     EDDAV:  cpu time   10.2694: real time   10.2911
       DOS:  cpu time    0.0078: real time    0.0078
    CHARGE:  cpu time    5.3243: real time    5.3320
    MIXING:  cpu time    0.3633: real time    0.3640
    --------------------------------------------
      LOOP:  cpu time   29.1217: real time   29.1751

 eigenvalue-minimisations  :    64
 total energy-change (2. order) :-0.4705830E-03  (-0.1714776E-05)
 number of electron       7.9999999 magnetization 
 augmentation part        0.6951436 magnetization 

 Broyden mixing:
  rms(total) = 0.18468E-03    rms(broyden)= 0.18468E-03
  rms(prec ) = 0.23567E-03
  weight for this iteration     100.00

 eigenvalues of (default mixing * dielectric matrix)
  average eigenvalue GAMMA=   2.5342
  8.3373  4.8985  3.2078  2.5770  2.4586  1.4812  1.1341  1.0244  0.9487  0.9487
  0.8599

 Free energy of the ion-electron system (eV)
  ---------------------------------------------------
  alpha Z        PSCENC =         0.00523035
  Ewald energy   TEWEN  =       151.89276684
  -Hartree energ DENC   =      -545.24562932
  -exchange      EXHF   =         0.00000000
  -V(xc)+E(xc)   XCENC  =        34.11114958
  PAW double counting   =       551.51308739     -553.60866696
  entropy T*S    EENTRO =        -0.00000000
  eigenvalues    EBANDS =      -110.26108696
  atomic energy  EATOM  =       457.35320486
  Solvation  Ediel_sol  =         0.00000000
  ---------------------------------------------------
  free energy    TOTEN  =       -14.23994422 eV

  energy without entropy =      -14.23994422  energy(sigma->0) =      -14.23994422


--------------------------------------------------------------------------------------------------------




--------------------------------------- Iteration      1(  17)  ---------------------------------------


    POTLOK:  cpu time   13.0741: real time   13.0966
    SETDIJ:  cpu time    0.0471: real time    0.0471
     EDDAV:  cpu time   16.9857: real time   17.0222
       DOS:  cpu time    0.0069: real time    0.0069
    CHARGE:  cpu time    5.0210: real time    5.0285
    MIXING:  cpu time    0.3149: real time    0.3155
    --------------------------------------------
      LOOP:  cpu time   35.4497: real time   35.5168

 eigenvalue-minimisations  :   128
 total energy-change (2. order) :-0.1760179E-03  (-0.2802667E-06)
 number of electron       7.9999999 magnetization 
 augmentation part        0.6951591 magnetization 

 Broyden mixing:
  rms(total) = 0.95391E-04    rms(broyden)= 0.95391E-04
  rms(prec ) = 0.12162E-03
  weight for this iteration     100.00

 eigenvalues of (default mixing * dielectric matrix)
  average eigenvalue GAMMA=   2.6495
  8.9947  5.5209  3.7555  2.7333  2.5846  2.3506  1.1000  0.9526  0.9526  0.9921
  0.9921  0.8653

 Free energy of the ion-electron system (eV)
  ---------------------------------------------------
  alpha Z        PSCENC =         0.00523035
  Ewald energy   TEWEN  =       151.89276684
  -Hartree energ DENC   =      -545.24696414
  -exchange      EXHF   =         0.00000000
  -V(xc)+E(xc)   XCENC  =        34.11094750
  PAW double counting   =       551.54371714     -553.63924838
  entropy T*S    EENTRO =        -0.00000000
  eigenvalues    EBANDS =      -110.25977440
  atomic energy  EATOM  =       457.35320486
  Solvation  Ediel_sol  =         0.00000000
  ---------------------------------------------------
  free energy    TOTEN  =       -14.24012024 eV

  energy without entropy =      -14.24012024  energy(sigma->0) =      -14.24012024


--------------------------------------------------------------------------------------------------------




--------------------------------------- Iteration      1(  18)  ---------------------------------------


    POTLOK:  cpu time   13.1115: real time   13.1343
    SETDIJ:  cpu time    0.0470: real time    0.0471
     EDDAV:  cpu time   16.8882: real time   16.9248
       DOS:  cpu time    0.0140: real time    0.0140
    CHARGE:  cpu time    5.0251: real time    5.0324
    MIXING:  cpu time    0.3270: real time    0.3277
    --------------------------------------------
      LOOP:  cpu time   35.4128: real time   35.4803

 eigenvalue-minimisations  :   128
 total energy-change (2. order) :-0.9053526E-04  (-0.8123771E-07)
 number of electron       7.9999999 magnetization 
 augmentation part        0.6951595 magnetization 

 Broyden mixing:
  rms(total) = 0.52383E-04    rms(broyden)= 0.52383E-04
  rms(prec ) = 0.62974E-04
  weight for this iteration     100.00

 eigenvalues of (default mixing * dielectric matrix)
  average eigenvalue GAMMA=   2.7508
  9.3021  6.0426  4.2520  3.0513  2.4904  2.4904  2.2864  1.1113  0.9490  0.9490
  0.9867  0.9867  0.8618

 Free energy of the ion-electron system (eV)
  ---------------------------------------------------
  alpha Z        PSCENC =         0.00523035
  Ewald energy   TEWEN  =       151.89276684
  -Hartree energ DENC   =      -545.24783041
  -exchange      EXHF   =         0.00000000
  -V(xc)+E(xc)   XCENC  =        34.11079552
  PAW double counting   =       551.55723915     -553.65281389
  entropy T*S    EENTRO =        -0.00000000
  eigenvalues    EBANDS =      -110.25880319
  atomic energy  EATOM  =       457.35320486
  Solvation  Ediel_sol  =         0.00000000
  ---------------------------------------------------
  free energy    TOTEN  =       -14.24021077 eV

  energy without entropy =      -14.24021077  energy(sigma->0) =      -14.24021077


--------------------------------------------------------------------------------------------------------




--------------------------------------- Iteration      1(  19)  ---------------------------------------


    POTLOK:  cpu time   13.0389: real time   13.0611
    SETDIJ:  cpu time    0.0471: real time    0.0471
     EDDAV:  cpu time   16.9300: real time   16.9651
       DOS:  cpu time    0.0058: real time    0.0058
    CHARGE:  cpu time    5.1448: real time    5.1522
    MIXING:  cpu time    0.3595: real time    0.3603
    --------------------------------------------
      LOOP:  cpu time   35.5259: real time   35.5915

 eigenvalue-minimisations  :   128
 total energy-change (2. order) :-0.4208197E-04  (-0.3079945E-07)
 number of electron       7.9999999 magnetization 
 augmentation part        0.6951544 magnetization 

 Broyden mixing:
  rms(total) = 0.21507E-04    rms(broyden)= 0.21507E-04
  rms(prec ) = 0.25991E-04
  weight for this iteration     100.00

 eigenvalues of (default mixing * dielectric matrix)
  average eigenvalue GAMMA=   2.7588
  9.4798  6.4616  4.5539  3.5112  2.6846  2.4793  2.3194  1.2520  1.1232  0.8604
  0.9491  0.9491  0.9998  0.9998

 Free energy of the ion-electron system (eV)
  ---------------------------------------------------
  alpha Z        PSCENC =         0.00523035
  Ewald energy   TEWEN  =       151.89276684
  -Hartree energ DENC   =      -545.24935474
  -exchange      EXHF   =         0.00000000
  -V(xc)+E(xc)   XCENC  =        34.11083265
  PAW double counting   =       551.54333938     -553.63892543
  entropy T*S    EENTRO =        -0.00000000
  eigenvalues    EBANDS =      -110.25734676
  atomic energy  EATOM  =       457.35320486
  Solvation  Ediel_sol  =         0.00000000
  ---------------------------------------------------
  free energy    TOTEN  =       -14.24025285 eV

  energy without entropy =      -14.24025285  energy(sigma->0) =      -14.24025285


--------------------------------------------------------------------------------------------------------




--------------------------------------- Iteration      1(  20)  ---------------------------------------


    POTLOK:  cpu time   13.0927: real time   13.1158
    SETDIJ:  cpu time    0.0470: real time    0.0470
     EDDAV:  cpu time   16.9442: real time   16.9805
       DOS:  cpu time    0.0057: real time    0.0057
    CHARGE:  cpu time    5.0037: real time    5.0110
    MIXING:  cpu time    0.3778: real time    0.3785
    --------------------------------------------
      LOOP:  cpu time   35.4711: real time   35.5387

 eigenvalue-minimisations  :   128
 total energy-change (2. order) :-0.1124482E-04  (-0.6981237E-08)
 number of electron       7.9999999 magnetization 
 augmentation part        0.6951542 magnetization 

 Broyden mixing:
  rms(total) = 0.14502E-04    rms(broyden)= 0.14502E-04
  rms(prec ) = 0.16766E-04
  weight for this iteration     100.00

 eigenvalues of (default mixing * dielectric matrix)
  average eigenvalue GAMMA=   2.8521
  9.6324  6.8347  5.0862  3.7551  3.2443  2.5440  2.5440  2.2581  1.1113  0.8609
  0.9496  0.9496  1.0183  1.0183  0.9753

 Free energy of the ion-electron system (eV)
  ---------------------------------------------------
  alpha Z        PSCENC =         0.00523035
  Ewald energy   TEWEN  =       151.89276684
  -Hartree energ DENC   =      -545.24942240
  -exchange      EXHF   =         0.00000000
  -V(xc)+E(xc)   XCENC  =        34.11083161
  PAW double counting   =       551.54644146     -553.64202801
  entropy T*S    EENTRO =        -0.00000000
  eigenvalues    EBANDS =      -110.25728881
  atomic energy  EATOM  =       457.35320486
  Solvation  Ediel_sol  =         0.00000000
  ---------------------------------------------------
  free energy    TOTEN  =       -14.24026410 eV

  energy without entropy =      -14.24026410  energy(sigma->0) =      -14.24026410


--------------------------------------------------------------------------------------------------------




--------------------------------------- Iteration      1(  21)  ---------------------------------------


    POTLOK:  cpu time   13.0484: real time   13.0714
    SETDIJ:  cpu time    0.0471: real time    0.0471
     EDDAV:  cpu time   10.2083: real time   10.2296
       DOS:  cpu time    0.0140: real time    0.0140
    CHARGE:  cpu time    5.0303: real time    5.0377
    MIXING:  cpu time    0.3891: real time    0.3900
    --------------------------------------------
      LOOP:  cpu time   28.7372: real time   28.7898

 eigenvalue-minimisations  :    64
 total energy-change (2. order) :-0.7589741E-05  (-0.4849785E-08)
 number of electron       7.9999999 magnetization 
 augmentation part        0.6951561 magnetization 

 Broyden mixing:
  rms(total) = 0.78124E-05    rms(broyden)= 0.78124E-05
  rms(prec ) = 0.85075E-05
  weight for this iteration     100.00

 eigenvalues of (default mixing * dielectric matrix)
  average eigenvalue GAMMA=   2.8109
  9.6372  7.0684  5.1667  3.8825  3.2088  2.5341  2.5341  2.3834  1.7153  1.1154
  0.8614  0.9493  0.9493  1.0100  0.9791  0.9791

 Free energy of the ion-electron system (eV)
  ---------------------------------------------------
  alpha Z        PSCENC =         0.00523035
  Ewald energy   TEWEN  =       151.89276684
  -Hartree energ DENC   =      -545.24924982
  -exchange      EXHF   =         0.00000000
  -V(xc)+E(xc)   XCENC  =        34.11080607
  PAW double counting   =       551.54790399     -553.64348309
  entropy T*S    EENTRO =        -0.00000000
  eigenvalues    EBANDS =      -110.25745089
  atomic energy  EATOM  =       457.35320486
  Solvation  Ediel_sol  =         0.00000000
  ---------------------------------------------------
  free energy    TOTEN  =       -14.24027169 eV

  energy without entropy =      -14.24027169  energy(sigma->0) =      -14.24027169


--------------------------------------------------------------------------------------------------------




--------------------------------------- Iteration      1(  22)  ---------------------------------------


    POTLOK:  cpu time   13.0932: real time   13.1160
    SETDIJ:  cpu time    0.0470: real time    0.0470
     EDDAV:  cpu time   17.0138: real time   17.0490
       DOS:  cpu time    0.0059: real time    0.0059
    CHARGE:  cpu time    5.0365: real time    5.0438
    MIXING:  cpu time    0.4258: real time    0.4267
    --------------------------------------------
      LOOP:  cpu time   35.6222: real time   35.6885

 eigenvalue-minimisations  :   128
 total energy-change (2. order) :-0.1490904E-05  (-0.1307292E-08)
 number of electron       7.9999999 magnetization 
 augmentation part        0.6951560 magnetization 

 Broyden mixing:
  rms(total) = 0.44592E-05    rms(broyden)= 0.44592E-05
  rms(prec ) = 0.48978E-05
  weight for this iteration     100.00

 eigenvalues of (default mixing * dielectric matrix)
  average eigenvalue GAMMA=   2.8046
  9.7195  7.3440  5.3940  4.2572  3.0306  3.0306  2.3919  2.3919  2.2615  1.1120
  0.8613  0.9495  0.9495  1.0333  1.0333  0.9592  0.9592

 Free energy of the ion-electron system (eV)
  ---------------------------------------------------
  alpha Z        PSCENC =         0.00523035
  Ewald energy   TEWEN  =       151.89276684
  -Hartree energ DENC   =      -545.24921203
  -exchange      EXHF   =         0.00000000
  -V(xc)+E(xc)   XCENC  =        34.11080207
  PAW double counting   =       551.54704871     -553.64262929
  entropy T*S    EENTRO =        -0.00000000
  eigenvalues    EBANDS =      -110.25748470
  atomic energy  EATOM  =       457.35320486
  Solvation  Ediel_sol  =         0.00000000
  ---------------------------------------------------
  free energy    TOTEN  =       -14.24027318 eV

  energy without entropy =      -14.24027318  energy(sigma->0) =      -14.24027318


--------------------------------------------------------------------------------------------------------




--------------------------------------- Iteration      1(  23)  ---------------------------------------


    POTLOK:  cpu time   13.1211: real time   13.1441
    SETDIJ:  cpu time    0.0471: real time    0.0471
     EDDAV:  cpu time   10.2439: real time   10.2645
       DOS:  cpu time    0.0161: real time    0.0162
    CHARGE:  cpu time    5.0116: real time    5.0191
    MIXING:  cpu time    0.4367: real time    0.4376
    --------------------------------------------
      LOOP:  cpu time   28.8765: real time   28.9285

 eigenvalue-minimisations  :    64
 total energy-change (2. order) :-0.8318847E-06  (-0.1038181E-08)
 number of electron       7.9999999 magnetization 
 augmentation part        0.6951556 magnetization 

 Broyden mixing:
  rms(total) = 0.20754E-05    rms(broyden)= 0.20754E-05
  rms(prec ) = 0.23618E-05
  weight for this iteration     100.00

 eigenvalues of (default mixing * dielectric matrix)
  average eigenvalue GAMMA=   2.8865
  9.7693  7.7111  5.8445  4.5989  3.6808  2.9143  2.6067  2.6067  2.3614  1.9922
  1.1145  0.8612  0.9492  0.9492  1.0442  0.9881  0.9881  0.9760

 Free energy of the ion-electron system (eV)
  ---------------------------------------------------
  alpha Z        PSCENC =         0.00523035
  Ewald energy   TEWEN  =       151.89276684
  -Hartree energ DENC   =      -545.24918307
  -exchange      EXHF   =         0.00000000
  -V(xc)+E(xc)   XCENC  =        34.11080171
  PAW double counting   =       551.54729523     -553.64287723
  entropy T*S    EENTRO =        -0.00000000
  eigenvalues    EBANDS =      -110.25751271
  atomic energy  EATOM  =       457.35320486
  Solvation  Ediel_sol  =         0.00000000
  ---------------------------------------------------
  free energy    TOTEN  =       -14.24027401 eV

  energy without entropy =      -14.24027401  energy(sigma->0) =      -14.24027401


--------------------------------------------------------------------------------------------------------




--------------------------------------- Iteration      1(  24)  ---------------------------------------


    POTLOK:  cpu time   13.0555: real time   13.0796
    SETDIJ:  cpu time    0.0470: real time    0.0470
     EDDAV:  cpu time   13.5749: real time   13.6031
       DOS:  cpu time    0.0075: real time    0.0075
    CHARGE:  cpu time    4.9708: real time    4.9782
    MIXING:  cpu time    0.4964: real time    0.4974
    --------------------------------------------
      LOOP:  cpu time   32.1521: real time   32.2129

 eigenvalue-minimisations  :    96
 total energy-change (2. order) :-0.5191141E-06  (-0.7235190E-09)
 number of electron       7.9999999 magnetization 
 augmentation part        0.6951558 magnetization 

 Broyden mixing:
  rms(total) = 0.89941E-06    rms(broyden)= 0.89941E-06
  rms(prec ) = 0.10058E-05
  weight for this iteration     100.00

 eigenvalues of (default mixing * dielectric matrix)
  average eigenvalue GAMMA=   2.8369
  9.7874  7.8218  6.0249  4.7120  3.7844  3.0066  2.7290  2.4456  2.0939  2.0939
  1.5480  1.1131  0.8613  0.9492  0.9492  0.9883  0.9883  1.0295  0.9748

 Free energy of the ion-electron system (eV)
  ---------------------------------------------------
  alpha Z        PSCENC =         0.00523035
  Ewald energy   TEWEN  =       151.89276684
  -Hartree energ DENC   =      -545.24919293
  -exchange      EXHF   =         0.00000000
  -V(xc)+E(xc)   XCENC  =        34.11080180
  PAW double counting   =       551.54700840     -553.64258964
  entropy T*S    EENTRO =        -0.00000000
  eigenvalues    EBANDS =      -110.25750422
  atomic energy  EATOM  =       457.35320486
  Solvation  Ediel_sol  =         0.00000000
  ---------------------------------------------------
  free energy    TOTEN  =       -14.24027453 eV

  energy without entropy =      -14.24027453  energy(sigma->0) =      -14.24027453


--------------------------------------------------------------------------------------------------------




--------------------------------------- Iteration      1(  25)  ---------------------------------------


    POTLOK:  cpu time   13.0202: real time   13.0422
    SETDIJ:  cpu time    0.0482: real time    0.0483
     EDDAV:  cpu time   16.9644: real time   17.0012
       DOS:  cpu time    0.0060: real time    0.0061
    --------------------------------------------
      LOOP:  cpu time   30.0388: real time   30.0977

 eigenvalue-minimisations  :   128
 total energy-change (2. order) :-0.8672782E-07  (-0.5418936E-09)
 number of electron       7.9999999 magnetization 
 augmentation part        0.6951558 magnetization 

 Free energy of the ion-electron system (eV)
  ---------------------------------------------------
  alpha Z        PSCENC =         0.00523035
  Ewald energy   TEWEN  =       151.89276684
  -Hartree energ DENC   =      -545.24921875
  -exchange      EXHF   =         0.00000000
  -V(xc)+E(xc)   XCENC  =        34.11080280
  PAW double counting   =       551.54713858     -553.64272057
  entropy T*S    EENTRO =        -0.00000000
  eigenvalues    EBANDS =      -110.25747873
  atomic energy  EATOM  =       457.35320486
  Solvation  Ediel_sol  =         0.00000000
  ---------------------------------------------------
  free energy    TOTEN  =       -14.24027462 eV

  energy without entropy =      -14.24027462  energy(sigma->0) =      -14.24027462


--------------------------------------------------------------------------------------------------------




 average (electrostatic) potential at core
  the test charge radii are     0.7215  0.5201
  (the norm of the test charge is              1.0000)
       1 -80.5820       2 -44.7932       3 -44.7932
 
 
 
 E-fermi :  -7.1860     XC(G=0):  -0.0231     alpha+bet : -0.0030


 k-point     1 :       0.0000    0.0000    0.0000
  band No.  band energies     occupation 
      1     -25.4169      2.00000
      2     -13.1687      2.00000
      3      -9.3042      2.00000
      4      -7.2390      2.00000
      5      -0.9619      0.00000
      6      -0.0040      0.00000
      7       0.1021      0.00000
      8       0.1080      0.00000
      9       0.1103      0.00000
     10       0.1139      0.00000
     11       0.1165      0.00000
     12       0.1374      0.00000
     13       0.1967      0.00000
     14       0.2224      0.00000
     15       0.2244      0.00000
     16       0.2352      0.00000
     17       0.2354      0.00000
     18       0.2358      0.00000
     19       0.2364      0.00000
     20       0.2382      0.00000
     21       0.2400      0.00000
     22       0.2404      0.00000
     23       0.2410      0.00000
     24       0.2845      0.00000
     25       0.3227      0.00000
     26       0.3475      0.00000
     27       0.3524      0.00000
     28       0.3578      0.00000
     29       0.3594      0.00000
     30       0.3607      0.00000
     31       0.3615      0.00000
     32       0.3968      0.00000


--------------------------------------------------------------------------------------------------------


 soft charge-density along one line, spin component            1
         0         1         2         3         4         5         6         7         8         9
 total charge-density along one line
 
 pseudopotential strength for first ion, spin component:            1
 13.809 -16.930  -0.107   0.005  -0.004   0.131  -0.006   0.005
-16.930  20.786   0.136  -0.006   0.005  -0.167   0.008  -0.006
 -0.107   0.136 -10.489  -0.004  -0.004  12.994   0.005   0.006
  0.005  -0.006  -0.004 -10.575   0.002   0.005  13.107  -0.003
 -0.004   0.005  -0.004   0.002 -10.363   0.006  -0.003  12.828
  0.131  -0.167  12.994   0.005   0.006 -16.024  -0.007  -0.008
 -0.006   0.008   0.005  13.107  -0.003  -0.007 -16.175   0.004
  0.005  -0.006   0.006  -0.003  12.828  -0.008   0.004 -15.804
 total augmentation occupancy for first ion, spin component:            1
  2.725   0.441   0.449  -0.021   0.017   0.178  -0.008   0.007
  0.441   0.127   0.425  -0.020   0.016   0.078  -0.004   0.003
  0.449   0.425   2.327   0.006   0.007   0.342   0.007   0.007
 -0.021  -0.020   0.006   2.449  -0.004   0.007   0.480  -0.004
  0.017   0.016   0.007  -0.004   2.138   0.007  -0.004   0.140
  0.178   0.078   0.342   0.007   0.007   0.055   0.002   0.002
 -0.008  -0.004   0.007   0.480  -0.004   0.002   0.094  -0.001
  0.007   0.003   0.007  -0.004   0.140   0.002  -0.001   0.009


------------------------ aborting loop because EDIFF is reached ----------------------------------------



 DIPCOR: dipole corrections for dipol
 direction  1 min pos   296, direction  2 min pos   372, direction  3 min pos   364,
 dipolmoment          -0.013937     -0.379427      0.017873 electrons x Angstroem
 Tr[quadrupol]         0.505274

 energy correction for charged system         0.000000 eV
 dipol+quadrupol energy correction            0.000102 eV
 added-field ion interaction          0.000000 eV  (added to PSCEN)

 
  *************** adding dipol energy to TOTEN NOW **************** 
    CHARGE:  cpu time    5.3493: real time    5.3574
    FORLOC:  cpu time    0.4346: real time    0.4351
    FORNL :  cpu time    0.2154: real time    0.2158
    STRESS:  cpu time    9.2358: real time    9.2536
    FORCOR:  cpu time   11.5365: real time   11.5552
    FORHAR:  cpu time    3.1300: real time    3.1360
    MIXING:  cpu time    0.4621: real time    0.4630
    OFIELD:  cpu time    0.0000: real time    0.0000

  Hirshfeld charges:
            ion         q(e)     
   ------------------------------
      1     O          -0.294
      2     H           0.147
      3     H           0.147

  Hirshfeld-I charges:
            ion         q(e)        dq(e)    
   ------------------------------------------
      1     O          -0.908     -0.370E-04
      2     H           0.454      0.185E-04
      3     H           0.454      0.185E-04

   Hirshfeld-I converged in  18 cycles. Convergence criterion |dq|< 0.500E-04 e

  Atomic reference data used in the T-S method for vdW correction:
            C6at              R0at           ALPHAat      REFSTATE
            (au)              (au)            (au)                
   ---------------------------------------------------------------
   O          15.600          3.194          5.400         0
   H           6.500          3.099          4.500         0

  Tkatchenko/Scheffler method for vdW energy calculation
  ---------------------------------------------------------------------------------------------

  Parameters of vdW forcefield:
            C6ts              R0ts           ALPHAts        RELVOL
            (au)              (au)            (au)                
   ---------------------------------------------------------------
   O          25.721          3.471          6.934          1.28405701
   H           0.587          2.076          1.352          0.30046525
   H           0.587          2.076          1.352          0.30046434

  vdW correction parametrized for the method pbe       

  IVDW =  21
  VDW_RADIUS =    50.000 A
  VDW_IDAMPF =  0
  VDW_S6 =     1.000
  VDW_SR =     0.950
  VDW_D =    20.000
  LVDW_ONECELL = F F F
  LVDW_SAMETYPE T T
  LVDW_EWALD = F

  Number of pair interactions contributing to vdW energy:     101
  Edisp (eV):   -0.00013
    FORVDW:  cpu time   60.0630: real time   60.1070

  FORCE on cell =-STRESS in cart. coord.  units (eV):
  Direction    XX          YY          ZZ          XY          YZ          ZX
  --------------------------------------------------------------------------------------
  Alpha Z     0.00523     0.00523     0.00523
  Ewald     -12.35134    55.54820   108.69565     2.42663     2.55434    -1.39927
  Hartree   170.70281   182.81986   191.72650     0.43321     0.42820    -0.24349
  E(xc)     -36.51394   -36.21565   -36.02418     0.01069     0.00923    -0.00570
  Local    -267.65507  -326.60185  -373.45121    -2.10588    -2.25089     1.22207
  n-local   -30.98448   -31.24380   -30.41138    -0.00987     0.03951    -0.00563
  augment     8.19070     6.75803     5.78983    -0.05130    -0.04663     0.02791
  Kinetic   168.60175   149.24661   134.36075    -0.69204    -0.71583     0.39619
  Fock        0.00000     0.00000     0.00000     0.00000     0.00000     0.00000
  vdW         0.00000     0.00001     0.00103    -0.00000     0.00005    -0.00001
  -------------------------------------------------------------------------------------
  Total      -0.00434     0.31664     0.69222     0.01142     0.01797    -0.00794
  in kB      -0.00016     0.01183     0.02587     0.00043     0.00067    -0.00030
  external pressure =        0.01 kB  Pullay stress =        0.00 kB


 VOLUME and BASIS-vectors are now :
 -----------------------------------------------------------------------------
  energy-cutoff  :     1000.00
  volume of cell :    42875.00
      direct lattice vectors                 reciprocal lattice vectors
    35.000000000  0.000000000  0.000000000     0.028571429  0.000000000  0.000000000
     0.000000000 35.000000000  0.000000000     0.000000000  0.028571429  0.000000000
     0.000000000  0.000000000 35.000000000     0.000000000  0.000000000  0.028571429

  length of vectors
    35.000000000 35.000000000 35.000000000     0.028571429  0.028571429  0.028571429


 FORCES acting on ions
    electron-ion (+dipol)            ewald-force                    non-local-force                 convergence-correction
 -----------------------------------------------------------------------------------------------
   0.237E+01 0.646E+02 -.304E+01   -.422E+01 -.115E+03 0.540E+01   0.182E+01 0.496E+02 -.233E+01   -.561E-06 -.108E-04 0.274E-06
   -.268E+01 -.486E+02 0.749E+02   0.295E+01 0.536E+02 -.826E+02   -.260E+00 -.475E+01 0.721E+01   -.139E-06 -.284E-05 0.254E-05
   -.114E+01 -.555E+02 -.700E+02   0.126E+01 0.612E+02 0.772E+02   -.113E+00 -.541E+01 -.674E+01   -.855E-07 -.306E-05 -.226E-05
 -----------------------------------------------------------------------------------------------
   -.145E+01 -.394E+02 0.186E+01   -.222E-15 0.711E-14 0.000E+00   0.145E+01 0.394E+02 -.186E+01   -.785E-06 -.167E-04 0.556E-06
 
 
 POSITION                                       TOTAL-FORCE (eV/Angst)
 -----------------------------------------------------------------------------------
      0.00000      2.72721      0.00000        -0.019933     -0.542857      0.025546
      0.02970      3.28138     34.21499         0.014860      0.249615     -0.472472
      0.01365      3.35327      0.72944         0.005073      0.293242      0.446926
 -----------------------------------------------------------------------------------
    total drift:                               -0.000022      0.000002      0.000040


--------------------------------------------------------------------------------------------------------



  FREE ENERGIE OF THE ION-ELECTRON SYSTEM (eV)
  ---------------------------------------------------
  free  energy   TOTEN  =       -14.24030567 eV

  energy  without entropy=      -14.24030567  energy(sigma->0) =      -14.24030567
 


--------------------------------------------------------------------------------------------------------


    POTLOK:  cpu time   14.3411: real time   14.3647


--------------------------------------------------------------------------------------------------------


 writing wavefunctions
     LOOP+:  cpu time 1205.8844: real time 1207.6425
    4ORBIT:  cpu time    0.0000: real time    0.0000

 total amount of memory used by VASP MPI-rank0  3934008. kBytes
=======================================================================

   base      :      30000. kBytes
   nonl-proj :     270904. kBytes
   fftplans  :     676185. kBytes
   grid      :    2932288. kBytes
   one-center:          4. kBytes
   wavefun   :      24627. kBytes
 
  
  
 General timing and accounting informations for this job:
 ========================================================
  
                  Total CPU time used (sec):     2644.516
                            User time (sec):     2531.130
                          System time (sec):      113.386
                         Elapsed time (sec):     2650.452
  
                   Maximum memory used (kb):     5302520.
                   Average memory used (kb):           0.
  
                          Minor page faults:     63528523
                          Major page faults:          903
                 Voluntary context switches:        13339
