 vasp.6.1.2 22Jul20 (build Jan  6 2021 09:55:43) gamma-only                      
 executed on             LinuxPGI date 2023.10.20  08:10:56
 running on   32 total cores
 distrk:  each k-point on   32 cores,    1 groups
 distr:  one band on NCORE=   1 cores,   32 groups


--------------------------------------------------------------------------------------------------------


 INCAR:
 POTCAR:    PAW_PBE H 15Jun2001                   
 POTCAR:    PAW_PBE C 08Apr2002                   
 POTCAR:    PAW_PBE O 08Apr2002                   
 -----------------------------------------------------------------------------
|                                                                             |
|           W    W    AA    RRRRR   N    N  II  N    N   GGGG   !!!           |
|           W    W   A  A   R    R  NN   N  II  NN   N  G    G  !!!           |
|           W    W  A    A  R    R  N N  N  II  N N  N  G       !!!           |
|           W WW W  AAAAAA  RRRRR   N  N N  II  N  N N  G  GGG   !            |
|           WW  WW  A    A  R   R   N   NN  II  N   NN  G    G                |
|           W    W  A    A  R    R  N    N  II  N    N   GGGG   !!!           |
|                                                                             |
|     For optimal performance we recommend to set                             |
|       NCORE = 4 - approx SQRT(number of cores).                             |
|     NCORE specifies how many cores store one orbital (NPAR=cpu/NCORE).      |
|     This setting can greatly improve the performance of VASP for DFT.       |
|     The default, NCORE=1 might be grossly inefficient on modern             |
|     multi-core architectures or massively parallel machines. Do your        |
|     own testing!!!!                                                         |
|     Unfortunately you need to use the default for GW and RPA                |
|     calculations (for HF NCORE is supported but not extensively tested      |
|     yet).                                                                   |
|                                                                             |
 -----------------------------------------------------------------------------

 POTCAR:    PAW_PBE H 15Jun2001                   
   VRHFIN =H: ultrasoft test                                                                        
   LEXCH  = PE                                                                                      
   EATOM  =    12.4884 eV,    0.9179 Ry                                                             
                                                                                                    
   TITEL  = PAW_PBE H 15Jun2001                                                                     
   LULTRA =        F    use ultrasoft PP ?                                                          
   IUNSCR =        0    unscreen: 0-lin 1-nonlin 2-no                                               
   RPACOR =    0.000    partial core radius                                                         
   POMASS =    1.000; ZVAL   =    1.000    mass and valenz                                          
   RCORE  =    1.100    outmost cutoff radius                                                       
   RWIGS  =    0.700; RWIGS  =    0.370    wigner-seitz radius (au A)                               
   ENMAX  =  250.000; ENMIN  =  200.000 eV                                                          
   RCLOC  =    0.701    cutoff for local pot                                                        
   LCOR   =        T    correct aug charges                                                         
   LPAW   =        T    paw PP                                                                      
   EAUG   =  400.000                                                                                
   RMAX   =    1.123    core radius for proj-oper                                                   
   RAUG   =    1.200    factor for augmentation sphere                                              
   RDEP   =    1.112    radius for radial grids                                                     
   RDEPT  =    0.926    core radius for aug-charge                                                  
                                                                                                    
   Atomic configuration                                                                             
    2 entries                                                                                       
     n  l   j            E        occ.                                                              
     1  0  0.50        -6.4927   1.0000                                                             
     2  1  0.50        -3.4015   0.0000                                                             
   Description                                                                                      
     l       E           TYP  RCUT    TYP  RCUT                                                     
     0     -6.4927494     23  1.100                                                                 
     0      6.8029130     23  1.100                                                                 
     1     -4.0817478     23  1.100                                                                 
  local pseudopotential read in
  atomic valenz-charges read in
  non local Contribution for L=            0  read in
    real space projection operators read in
  non local Contribution for L=            0  read in
    real space projection operators read in
  non local Contribution for L=            1  read in
    real space projection operators read in
    PAW grid and wavefunctions read in
 
   number of l-projection  operators is LMAX  =            3
   number of lm-projection operators is LMMAX =            5
 
 POTCAR:    PAW_PBE C 08Apr2002                   
   VRHFIN =C: s2p2                                                                                  
   LEXCH  = PE                                                                                      
   EATOM  =   147.1560 eV,   10.8157 Ry                                                             
                                                                                                    
   TITEL  = PAW_PBE C 08Apr2002                                                                     
   LULTRA =        F    use ultrasoft PP ?                                                          
   IUNSCR =        1    unscreen: 0-lin 1-nonlin 2-no                                               
   RPACOR =    1.200    partial core radius                                                         
   POMASS =   12.011; ZVAL   =    4.000    mass and valenz                                          
   RCORE  =    1.500    outmost cutoff radius                                                       
   RWIGS  =    1.630; RWIGS  =    0.863    wigner-seitz radius (au A)                               
   ENMAX  =  400.000; ENMIN  =  300.000 eV                                                          
   ICORE  =        2    local potential                                                             
   LCOR   =        T    correct aug charges                                                         
   LPAW   =        T    paw PP                                                                      
   EAUG   =  644.873                                                                                
   DEXC   =    0.000                                                                                
   RMAX   =    1.529    core radius for proj-oper                                                   
   RAUG   =    1.300    factor for augmentation sphere                                              
   RDEP   =    1.501    radius for radial grids                                                     
   RDEPT  =    1.300    core radius for aug-charge                                                  
                                                                                                    
   Atomic configuration                                                                             
    4 entries                                                                                       
     n  l   j            E        occ.                                                              
     1  0  0.50      -273.3789   2.0000                                                             
     2  0  0.50       -13.7508   2.0000                                                             
     2  1  0.50        -5.2854   2.0000                                                             
     3  2  1.50        -5.4423   0.0000                                                             
   Description                                                                                      
     l       E           TYP  RCUT    TYP  RCUT                                                     
     0    -13.7508458     23  1.200                                                                 
     0     -8.2022199     23  1.200                                                                 
     1     -5.2854383     23  1.500                                                                 
     1     34.0145650     23  1.500                                                                 
     2     -5.4423304      7  1.500                                                                 
  local pseudopotential read in
  partial core-charges read in
  partial kinetic energy density read in
  atomic valenz-charges read in
  non local Contribution for L=            0  read in
    real space projection operators read in
  non local Contribution for L=            0  read in
    real space projection operators read in
  non local Contribution for L=            1  read in
    real space projection operators read in
  non local Contribution for L=            1  read in
    real space projection operators read in
    PAW grid and wavefunctions read in
 
   number of l-projection  operators is LMAX  =            4
   number of lm-projection operators is LMMAX =            8
 
 POTCAR:    PAW_PBE O 08Apr2002                   
   VRHFIN =O: s2p4                                                                                  
   LEXCH  = PE                                                                                      
   EATOM  =   432.3788 eV,   31.7789 Ry                                                             
                                                                                                    
   TITEL  = PAW_PBE O 08Apr2002                                                                     
   LULTRA =        F    use ultrasoft PP ?                                                          
   IUNSCR =        1    unscreen: 0-lin 1-nonlin 2-no                                               
   RPACOR =    1.200    partial core radius                                                         
   POMASS =   16.000; ZVAL   =    6.000    mass and valenz                                          
   RCORE  =    1.520    outmost cutoff radius                                                       
   RWIGS  =    1.550; RWIGS  =    0.820    wigner-seitz radius (au A)                               
   ENMAX  =  400.000; ENMIN  =  300.000 eV                                                          
   ICORE  =        2    local potential                                                             
   LCOR   =        T    correct aug charges                                                         
   LPAW   =        T    paw PP                                                                      
   EAUG   =  605.392                                                                                
   DEXC   =    0.000                                                                                
   RMAX   =    1.553    core radius for proj-oper                                                   
   RAUG   =    1.300    factor for augmentation sphere                                              
   RDEP   =    1.550    radius for radial grids                                                     
   RDEPT  =    1.329    core radius for aug-charge                                                  
                                                                                                    
   Atomic configuration                                                                             
    4 entries                                                                                       
     n  l   j            E        occ.                                                              
     1  0  0.50      -514.6923   2.0000                                                             
     2  0  0.50       -23.9615   2.0000                                                             
     2  1  0.50        -9.0305   4.0000                                                             
     3  2  1.50        -9.5241   0.0000                                                             
   Description                                                                                      
     l       E           TYP  RCUT    TYP  RCUT                                                     
     0    -23.9615318     23  1.200                                                                 
     0     -9.5240782     23  1.200                                                                 
     1     -9.0304911     23  1.520                                                                 
     1      8.1634956     23  1.520                                                                 
     2     -9.5240782      7  1.500                                                                 
  local pseudopotential read in
  partial core-charges read in
  partial kinetic energy density read in
  kinetic energy density of atom read in
  atomic valenz-charges read in
  non local Contribution for L=            0  read in
    real space projection operators read in
  non local Contribution for L=            0  read in
    real space projection operators read in
  non local Contribution for L=            1  read in
    real space projection operators read in
  non local Contribution for L=            1  read in
    real space projection operators read in
    PAW grid and wavefunctions read in
 
   number of l-projection  operators is LMAX  =            4
   number of lm-projection operators is LMMAX =            8
 
  PAW_PBE H 15Jun2001                   :
 energy of atom  1       EATOM=  -12.4884
 kinetic energy error for atom=    0.0001 (will be added to EATOM!!)
  PAW_PBE C 08Apr2002                   :
 energy of atom  2       EATOM= -147.1560
 kinetic energy error for atom=    0.0010 (will be added to EATOM!!)
  PAW_PBE O 08Apr2002                   :
 energy of atom  3       EATOM= -432.3788
 kinetic energy error for atom=    0.0022 (will be added to EATOM!!)
 
 
 POSCAR:  H  C  O
  positions in cartesian coordinates
  No initial velocities read in
 exchange correlation table for  LEXCH =        8
   RHO(1)=    0.500       N(1)  =     2000
   RHO(2)=  100.500       N(2)  =     4000
 


--------------------------------------------------------------------------------------------------------


 ion  position               nearest neighbor table
   1  0.001  0.162  0.978-   5 0.96
   2  0.000  0.164  0.021-   5 0.96
   3  0.000  0.003  0.000-   4 1.14
   4  0.000  0.035  0.000-   3 1.14
   5  0.000  0.146  0.000-   2 0.96   1 0.96
 
  LATTYP: Found a simple cubic cell.
 ALAT       =    35.0000000000
  
  Lattice vectors:
  
 A1 = (  35.0000000000,   0.0000000000,   0.0000000000)
 A2 = (   0.0000000000,  35.0000000000,   0.0000000000)
 A3 = (   0.0000000000,   0.0000000000,  35.0000000000)


Analysis of symmetry for initial positions (statically):
=====================================================================
 Subroutine PRICEL returns:
 Original cell was already a primitive cell.
 

 Routine SETGRP: Setting up the symmetry group for a 
 simple cubic supercell.


 Subroutine GETGRP returns: Found  1 space group operations
 (whereof  1 operations were pure point group operations)
 out of a pool of 48 trial point group operations.


The static configuration has the point symmetry C_1 .


Analysis of symmetry for dynamics (positions and initial velocities):
=====================================================================
 Subroutine PRICEL returns:
 Original cell was already a primitive cell.
 

 Routine SETGRP: Setting up the symmetry group for a 
 simple cubic supercell.


 Subroutine GETGRP returns: Found  1 space group operations
 (whereof  1 operations were pure point group operations)
 out of a pool of 48 trial point group operations.


The dynamic configuration has the point symmetry C_1 .


 Subroutine INISYM returns: Found  1 space group operations
 (whereof  1 operations are pure point group operations),
 and found     1 'primitive' translations


----------------------------------------------------------------------------------------

                                     Primitive cell                                     

  volume of cell :   42875.0000

  direct lattice vectors                    reciprocal lattice vectors
    35.000000000  0.000000000  0.000000000     0.028571429  0.000000000  0.000000000
     0.000000000 35.000000000  0.000000000     0.000000000  0.028571429  0.000000000
     0.000000000  0.000000000 35.000000000     0.000000000  0.000000000  0.028571429

  length of vectors
    35.000000000 35.000000000 35.000000000     0.028571429  0.028571429  0.028571429

  position of ions in fractional coordinates (direct lattice)
     0.000848682  0.162325070  0.977571084
     0.000390051  0.164379243  0.020841195
     0.000000000  0.002521600  0.000000000
     0.000000000  0.035063029  0.000000000
     0.000000000  0.146491600  0.000000000

  ion indices of the primitive-cell ions
   primitive index   ion index
                 1           1
                 2           2
                 3           3
                 4           4
                 5           5

----------------------------------------------------------------------------------------

 
 
 KPOINTS: g                                       

Automatic generation of k-mesh.
Space group operators:
 irot       det(A)        alpha          n_x          n_y          n_z        tau_x        tau_y        tau_z
    1     1.000000     0.000000     1.000000     0.000000     0.000000     0.000000     0.000000     0.000000
 
 Subroutine IBZKPT returns following result:
 ===========================================
 
 Found      1 irreducible k-points:
 
 Following reciprocal coordinates:
            Coordinates               Weight
  0.000000  0.000000  0.000000      1.000000
 
 Following cartesian coordinates:
            Coordinates               Weight
  0.000000  0.000000  0.000000      1.000000
 


--------------------------------------------------------------------------------------------------------




 Dimension of arrays:
   k-points           NKPTS =      1   k-points in BZ     NKDIM =      1   number of bands    NBANDS=     32
   number of dos      NEDOS =    301   number of ions     NIONS =      5
   non local maximal  LDIM  =      4   non local SUM 2l+1 LMDIM =      8
   total plane-waves  NPLWV = ******
   max r-space proj   IRMAX =      1   max aug-charges    IRDMAX=  16541
   dimension x,y,z NGX =   378 NGY =  378 NGZ =  378
   dimension x,y,z NGXF=   756 NGYF=  756 NGZF=  756
   support grid    NGXF=   756 NGYF=  756 NGZF=  756
   ions per type =               2   1   2
   NGX,Y,Z   is equivalent  to a cutoff of  17.95, 17.95, 17.95 a.u.
   NGXF,Y,Z  is equivalent  to a cutoff of  35.91, 35.91, 35.91 a.u.

 SYSTEM =  C                                       
 POSCAR =   H  C  O                                

 Startparameter for this run:
   NWRITE =      2    write-flag & timer
   PREC   = acc       normal or accurate (medium, high low for compatibility)
   ISTART =      0    job   : 0-new  1-cont  2-samecut
   ICHARG =      2    charge: 1-file 2-atom 10-const
   ISPIN  =      1    spin polarized calculation?
   LNONCOLLINEAR =      F non collinear calculations
   LSORBIT =      F    spin-orbit coupling
   INIWAV =      1    electr: 0-lowe 1-rand  2-diag
   LASPH  =      T    aspherical Exc in radial PAW
   METAGGA=      F    non-selfconsistent MetaGGA calc.

 Electronic Relaxation 1
   ENCUT  = 1000.0 eV  73.50 Ry    8.57 a.u.  90.25 90.25 90.25*2*pi/ulx,y,z
   ENINI  = 1000.0     initial cutoff
   ENAUG  =  644.9 eV  augmentation charge cutoff
   NELM   =     60;   NELMIN=  2; NELMDL= -5     # of ELM steps 
   EDIFF  = 0.1E-06   stopping-criterion for ELM
   LREAL  =      F    real-space projection
   NLSPLINE    = F    spline interpolate recip. space projectors
   LCOMPAT=      F    compatible to vasp.4.4
   GGA_COMPAT  = T    GGA compatible to vasp.4.4-vasp.4.6
   LMAXPAW     = -100 max onsite density
   LMAXMIX     =    2 max onsite mixed and CHGCAR
   VOSKOWN=      0    Vosko Wilk Nusair interpolation
   ROPT   =    0.00000   0.00000   0.00000
 Ionic relaxation
   EDIFFG = 0.1E-05   stopping-criterion for IOM
   NSW    =      0    number of steps for IOM
   NBLOCK =      1;   KBLOCK =      1    inner block; outer block 
   IBRION =     -1    ionic relax: 0-MD 1-quasi-New 2-CG
   NFREE  =      0    steps in history (QN), initial steepest desc. (CG)
   ISIF   =      2    stress and relaxation
   IWAVPR =     10    prediction:  0-non 1-charg 2-wave 3-comb
   ISYM   =      2    0-nonsym 1-usesym 2-fastsym
   LCORR  =      T    Harris-Foulkes like correction to forces

   POTIM  = 0.5000    time-step for ionic-motion
   TEIN   =    0.0    initial temperature
   TEBEG  =    0.0;   TEEND  =   0.0 temperature during run
   SMASS  =  -3.00    Nose mass-parameter (am)
   estimated Nose-frequenzy (Omega)   =  0.10E-29 period in steps = 0.13E+47 mass=  -0.280E-25a.u.
   SCALEE = 1.0000    scale energy and forces
   NPACO  =    256;   APACO  = 16.0  distance and # of slots for P.C.
   PSTRESS=    0.0 pullay stress

  Mass of Ions in am
   POMASS =   1.00 12.01 16.00
  Ionic Valenz
   ZVAL   =   1.00  4.00  6.00
  Atomic Wigner-Seitz radii
   RWIGS  =  -1.00 -1.00 -1.00
  virtual crystal weights 
   VCA    =   1.00  1.00  1.00
   NELECT =      18.0000    total number of electrons
   NUPDOWN=      -1.0000    fix difference up-down

 DOS related values:
   EMIN   =  10.00;   EMAX   =-10.00  energy-range for DOS
   EFERMI =   0.00
   ISMEAR =     0;   SIGMA  =   0.01  broadening in eV -4-tet -1-fermi 0-gaus

 Electronic relaxation 2 (details)
   IALGO  =     38    algorithm
   LDIAG  =      T    sub-space diagonalisation (order eigenvalues)
   LSUBROT=      F    optimize rotation matrix (better conditioning)
   TURBO    =      0    0=normal 1=particle mesh
   IRESTART =      0    0=no restart 2=restart with 2 vectors
   NREBOOT  =      0    no. of reboots
   NMIN     =      0    reboot dimension
   EREF     =   0.00    reference energy to select bands
   IMIX   =      4    mixing-type and parameters
     AMIX     =   0.40;   BMIX     =  1.00
     AMIX_MAG =   1.60;   BMIX_MAG =  1.00
     AMIN     =   0.10
     WC   =   100.;   INIMIX=   1;  MIXPRE=   1;  MAXMIX= -45

 Intra band minimization:
   WEIMIN = 0.0000     energy-eigenvalue tresh-hold
   EBREAK =  0.78E-09  absolut break condition
   DEPER  =   0.30     relativ break condition  

   TIME   =   0.40     timestep for ELM

  volume/ion in A,a.u.               =    8575.00     57866.96
  Fermi-wavevector in a.u.,A,eV,Ry     =   0.122583  0.231649  0.204450  0.015027
  Thomas-Fermi vector in A             =   0.746568
 
 Write flags
   LWAVE        =      T    write WAVECAR
   LDOWNSAMPLE  =      F    k-point downsampling of WAVECAR
   LCHARG       =      T    write CHGCAR
   LVTOT        =      F    write LOCPOT, total local potential
   LVHAR        =      F    write LOCPOT, Hartree potential only
   LELF         =      F    write electronic localiz. function (ELF)
   LORBIT       =      0    0 simple, 1 ext, 2 COOP (PROOUT), +10 PAW based schemes


 Dipole corrections
   LMONO  =      F    monopole corrections only (constant potential shift)
   LDIPOL =      F    correct potential (dipole corrections)
   IDIPOL =      4    1-x, 2-y, 3-z, 4-all directions 
   EPSILON=  1.0000000 bulk dielectric constant

 Exchange correlation treatment:
   GGA     =    --    GGA type
   LEXCH   =     8    internal setting for exchange type
   VOSKOWN=      0    Vosko Wilk Nusair interpolation
   LHFCALC =     F    Hartree Fock is set to
   LHFONE  =     F    Hartree Fock one center treatment
   AEXX    =    0.0000 exact exchange contribution

 Linear response parameters
   LEPSILON=     F    determine dielectric tensor
   LRPA    =     F    only Hartree local field effects (RPA)
   LNABLA  =     F    use nabla operator in PAW spheres
   LVEL    =     F    velocity operator in full k-point grid
   LINTERFAST=   F  fast interpolation
   KINTER  =     0    interpolate to denser k-point grid
   CSHIFT  =0.1000    complex shift for real part using Kramers Kronig
   OMEGAMAX=  -1.0    maximum frequency
   DEG_THRESHOLD= 0.2000000E-02 threshold for treating states as degnerate
   RTIME   =   -0.100 relaxation time in fs
  (WPLASMAI=    0.000 imaginary part of plasma frequency in eV, 0.658/RTIME)
   DFIELD  = 0.0000000 0.0000000 0.0000000 field for delta impulse in time
 
 Orbital magnetization related:
   ORBITALMAG=     F  switch on orbital magnetization
   LCHIMAG   =     F  perturbation theory with respect to B field
   DQ        =  0.001000  dq finite difference perturbation B field
   LLRAUG    =     F  two centre corrections for induced B field



--------------------------------------------------------------------------------------------------------


 Static calculation
 charge density and potential will be updated during run
 non-spin polarized calculation
 Variant of blocked Davidson
 Davidson routine will perform the subspace rotation
 perform sub-space diagonalisation
    after iterative eigenvector-optimisation
 modified Broyden-mixing scheme, WC =      100.0
 initial mixing is a Kerker type mixing with AMIX =  0.4000 and BMIX =      1.0000
 Hartree-type preconditioning will be used
 using additional bands            23
 reciprocal scheme for non local part
 use partial core corrections
 calculate Harris-corrections to forces 
   (improved forces if not selfconsistent)
 use gradient corrections 
 use of overlap-Matrix (Vanderbilt PP)
 Gauss-broadening in eV      SIGMA  =   0.01


--------------------------------------------------------------------------------------------------------


  energy-cutoff  :     1000.00
  volume of cell :    42875.00
      direct lattice vectors                 reciprocal lattice vectors
    35.000000000  0.000000000  0.000000000     0.028571429  0.000000000  0.000000000
     0.000000000 35.000000000  0.000000000     0.000000000  0.028571429  0.000000000
     0.000000000  0.000000000 35.000000000     0.000000000  0.000000000  0.028571429

  length of vectors
    35.000000000 35.000000000 35.000000000     0.028571429  0.028571429  0.028571429


 
 k-points in units of 2pi/SCALE and weight: g                                       
   0.00000000  0.00000000  0.00000000       1.000
 
 k-points in reciprocal lattice and weights: g                                       
   0.00000000  0.00000000  0.00000000       1.000
 
 position of ions in fractional coordinates (direct lattice) 
   0.00084868  0.16232507  0.97757108
   0.00039005  0.16437924  0.02084119
   0.00000000  0.00252160  0.00000000
   0.00000000  0.03506303  0.00000000
   0.00000000  0.14649160  0.00000000
 
 position of ions in cartesian coordinates  (Angst):
   0.02970387  5.68137746 34.21498793
   0.01365177  5.75327352  0.72944182
   0.00000000  0.08825600  0.00000000
   0.00000000  1.22720600  0.00000000
   0.00000000  5.12720600  0.00000000
 


--------------------------------------------------------------------------------------------------------


 use serial FFT for orbitals x direction half grid
 k-point   1 :   0.0000 0.0000 0.0000  plane waves: 1539209

 maximum and minimum number of plane-waves per node :   1539209  1539209

 maximum number of plane-waves:   1539209
 maximum index in each direction: 
   IXMAX=   90   IYMAX=   90   IZMAX=   90
   IXMIN=    0   IYMIN=  -90   IZMIN=  -90


 serial   3D FFT for wavefunctions
 parallel 3D FFT for charge:
    minimum data exchange during FFTs selected (reduces bandwidth)


 total amount of memory used by VASP MPI-rank0  4191804. kBytes
=======================================================================

   base      :      30000. kBytes
   nonl-proj :     418671. kBytes
   fftplans  :     676185. kBytes
   grid      :    3042313. kBytes
   one-center:          7. kBytes
   wavefun   :      24628. kBytes
 
     INWAV:  cpu time    0.0000: real time    0.0000
 Broyden mixing: mesh for mixing (old mesh)
   NGX =181   NGY =181   NGZ =181
  (NGX  =756   NGY  =756   NGZ  =756)
  gives a total of ****** points

 initial charge density was supplied:
 charge density of overlapping atoms calculated
 number of electron      18.0000000 magnetization 
 keeping initial charge density in first step


--------------------------------------------------------------------------------------------------------


 Maximum index for augmentation-charges           765 (set IRDMAX)


--------------------------------------------------------------------------------------------------------


 First call to EWALD:  gamma=   0.051
 Maximum number of real-space cells 3x 3x 3
 Maximum number of reciprocal cells 3x 3x 3

    FEWALD:  cpu time    0.0012: real time    0.0012


--------------------------------------- Iteration      1(   1)  ---------------------------------------


    POTLOK:  cpu time   15.2638: real time   15.2887
    SETDIJ:  cpu time    0.0490: real time    0.0493
     EDDAV:  cpu time   22.7846: real time   22.8282
       DOS:  cpu time    0.0004: real time    0.0004
    --------------------------------------------
      LOOP:  cpu time   38.0978: real time   38.1667

 eigenvalue-minimisations  :    96
 total energy-change (2. order) : 0.1599991E+03  (-0.2938923E+03)
 number of electron      18.0000000 magnetization 
 augmentation part       18.0000000 magnetization 

 Free energy of the ion-electron system (eV)
  ---------------------------------------------------
  alpha Z        PSCENC =         0.03011286
  Ewald energy   TEWEN  =       564.53250184
  -Hartree energ DENC   =     -1381.18644071
  -exchange      EXHF   =         0.00000000
  -V(xc)+E(xc)   XCENC  =        71.44469366
  PAW double counting   =       805.88905503     -810.07355774
  entropy T*S    EENTRO =        -0.00000000
  eigenvalues    EBANDS =      -127.52212293
  atomic energy  EATOM  =      1036.88490136
  Solvation  Ediel_sol  =         0.00000000
  ---------------------------------------------------
  free energy    TOTEN  =       159.99914337 eV

  energy without entropy =      159.99914337  energy(sigma->0) =      159.99914337


--------------------------------------------------------------------------------------------------------




--------------------------------------- Iteration      1(   2)  ---------------------------------------


     EDDAV:  cpu time   28.3243: real time   28.3781
       DOS:  cpu time    0.0002: real time    0.0002
    --------------------------------------------
      LOOP:  cpu time   28.3245: real time   28.3783

 eigenvalue-minimisations  :   128
 total energy-change (2. order) :-0.1268172E+03  (-0.1268172E+03)
 number of electron      18.0000000 magnetization 
 augmentation part       18.0000000 magnetization 

 Free energy of the ion-electron system (eV)
  ---------------------------------------------------
  alpha Z        PSCENC =         0.03011286
  Ewald energy   TEWEN  =       564.53250184
  -Hartree energ DENC   =     -1381.18644071
  -exchange      EXHF   =         0.00000000
  -V(xc)+E(xc)   XCENC  =        71.44469366
  PAW double counting   =       805.88905503     -810.07355774
  entropy T*S    EENTRO =        -0.00000000
  eigenvalues    EBANDS =      -254.33937072
  atomic energy  EATOM  =      1036.88490136
  Solvation  Ediel_sol  =         0.00000000
  ---------------------------------------------------
  free energy    TOTEN  =        33.18189559 eV

  energy without entropy =       33.18189559  energy(sigma->0) =       33.18189559


--------------------------------------------------------------------------------------------------------




--------------------------------------- Iteration      1(   3)  ---------------------------------------


     EDDAV:  cpu time   17.2152: real time   17.2513
       DOS:  cpu time    0.0002: real time    0.0002
    --------------------------------------------
      LOOP:  cpu time   17.2154: real time   17.2515

 eigenvalue-minimisations  :    64
 total energy-change (2. order) :-0.5918833E+02  (-0.5918833E+02)
 number of electron      18.0000000 magnetization 
 augmentation part       18.0000000 magnetization 

 Free energy of the ion-electron system (eV)
  ---------------------------------------------------
  alpha Z        PSCENC =         0.03011286
  Ewald energy   TEWEN  =       564.53250184
  -Hartree energ DENC   =     -1381.18644071
  -exchange      EXHF   =         0.00000000
  -V(xc)+E(xc)   XCENC  =        71.44469366
  PAW double counting   =       805.88905503     -810.07355774
  entropy T*S    EENTRO =        -0.00000000
  eigenvalues    EBANDS =      -313.52770006
  atomic energy  EATOM  =      1036.88490136
  Solvation  Ediel_sol  =         0.00000000
  ---------------------------------------------------
  free energy    TOTEN  =       -26.00643376 eV

  energy without entropy =      -26.00643376  energy(sigma->0) =      -26.00643376


--------------------------------------------------------------------------------------------------------




--------------------------------------- Iteration      1(   4)  ---------------------------------------


     EDDAV:  cpu time   28.4070: real time   28.4559
       DOS:  cpu time    0.0002: real time    0.0002
    --------------------------------------------
      LOOP:  cpu time   28.4072: real time   28.4561

 eigenvalue-minimisations  :   128
 total energy-change (2. order) :-0.5959007E+01  (-0.5959007E+01)
 number of electron      18.0000000 magnetization 
 augmentation part       18.0000000 magnetization 

 Free energy of the ion-electron system (eV)
  ---------------------------------------------------
  alpha Z        PSCENC =         0.03011286
  Ewald energy   TEWEN  =       564.53250184
  -Hartree energ DENC   =     -1381.18644071
  -exchange      EXHF   =         0.00000000
  -V(xc)+E(xc)   XCENC  =        71.44469366
  PAW double counting   =       805.88905503     -810.07355774
  entropy T*S    EENTRO =        -0.00000000
  eigenvalues    EBANDS =      -319.48670744
  atomic energy  EATOM  =      1036.88490136
  Solvation  Ediel_sol  =         0.00000000
  ---------------------------------------------------
  free energy    TOTEN  =       -31.96544114 eV

  energy without entropy =      -31.96544114  energy(sigma->0) =      -31.96544114


--------------------------------------------------------------------------------------------------------




--------------------------------------- Iteration      1(   5)  ---------------------------------------


     EDDAV:  cpu time   17.2409: real time   17.2712
       DOS:  cpu time    0.0002: real time    0.0002
    CHARGE:  cpu time    6.4959: real time    6.5047
    MIXING:  cpu time    0.2889: real time    0.2971
    --------------------------------------------
      LOOP:  cpu time   24.0260: real time   24.0732

 eigenvalue-minimisations  :    64
 total energy-change (2. order) :-0.9166089E-02  (-0.9166107E-02)
 number of electron      17.9999999 magnetization 
 augmentation part        1.5723106 magnetization 

 Broyden mixing:
  rms(total) = 0.10679E+01    rms(broyden)= 0.10679E+01
  rms(prec ) = 0.10956E+01
  weight for this iteration     100.00

 Free energy of the ion-electron system (eV)
  ---------------------------------------------------
  alpha Z        PSCENC =         0.03011286
  Ewald energy   TEWEN  =       564.53250184
  -Hartree energ DENC   =     -1381.18644071
  -exchange      EXHF   =         0.00000000
  -V(xc)+E(xc)   XCENC  =        71.44469366
  PAW double counting   =       805.88905503     -810.07355774
  entropy T*S    EENTRO =        -0.00000000
  eigenvalues    EBANDS =      -319.49587353
  atomic energy  EATOM  =      1036.88490136
  Solvation  Ediel_sol  =         0.00000000
  ---------------------------------------------------
  free energy    TOTEN  =       -31.97460723 eV

  energy without entropy =      -31.97460723  energy(sigma->0) =      -31.97460723


--------------------------------------------------------------------------------------------------------




--------------------------------------- Iteration      1(   6)  ---------------------------------------


    POTLOK:  cpu time   14.8725: real time   14.8977
    SETDIJ:  cpu time    0.0484: real time    0.0485
     EDDAV:  cpu time   16.7223: real time   16.7512
       DOS:  cpu time    0.0102: real time    0.0102
    CHARGE:  cpu time    6.3277: real time    6.3365
    MIXING:  cpu time    0.3077: real time    0.3106
    --------------------------------------------
      LOOP:  cpu time   38.2889: real time   38.3547

 eigenvalue-minimisations  :    64
 total energy-change (2. order) : 0.2576345E+01  (-0.1348062E+01)
 number of electron      17.9999999 magnetization 
 augmentation part        1.3502669 magnetization 

 Broyden mixing:
  rms(total) = 0.49728E+00    rms(broyden)= 0.49728E+00
  rms(prec ) = 0.50448E+00
  weight for this iteration     100.00

 eigenvalues of (default mixing * dielectric matrix)
  average eigenvalue GAMMA=   0.9713
  0.9713

 Free energy of the ion-electron system (eV)
  ---------------------------------------------------
  alpha Z        PSCENC =         0.03011286
  Ewald energy   TEWEN  =       564.53250184
  -Hartree energ DENC   =     -1420.31676571
  -exchange      EXHF   =         0.00000000
  -V(xc)+E(xc)   XCENC  =        73.62159008
  PAW double counting   =      1041.64249929    -1046.37684843
  entropy T*S    EENTRO =        -0.00000000
  eigenvalues    EBANDS =      -279.41625331
  atomic energy  EATOM  =      1036.88490136
  Solvation  Ediel_sol  =         0.00000000
  ---------------------------------------------------
  free energy    TOTEN  =       -29.39826201 eV

  energy without entropy =      -29.39826201  energy(sigma->0) =      -29.39826201


--------------------------------------------------------------------------------------------------------




--------------------------------------- Iteration      1(   7)  ---------------------------------------


    POTLOK:  cpu time   14.9305: real time   14.9568
    SETDIJ:  cpu time    0.0484: real time    0.0484
     EDDAV:  cpu time   16.7259: real time   16.7551
       DOS:  cpu time    0.0093: real time    0.0093
    CHARGE:  cpu time    6.3040: real time    6.3131
    MIXING:  cpu time    0.3332: real time    0.3344
    --------------------------------------------
      LOOP:  cpu time   38.3513: real time   38.4171

 eigenvalue-minimisations  :    64
 total energy-change (2. order) : 0.2366956E+00  (-0.7391928E-01)
 number of electron      17.9999999 magnetization 
 augmentation part        1.3689775 magnetization 

 Broyden mixing:
  rms(total) = 0.28238E+00    rms(broyden)= 0.28238E+00
  rms(prec ) = 0.28677E+00
  weight for this iteration     100.00

 eigenvalues of (default mixing * dielectric matrix)
  average eigenvalue GAMMA=   1.4169
  0.9327  1.9011

 Free energy of the ion-electron system (eV)
  ---------------------------------------------------
  alpha Z        PSCENC =         0.03011286
  Ewald energy   TEWEN  =       564.53250184
  -Hartree energ DENC   =     -1425.90803512
  -exchange      EXHF   =         0.00000000
  -V(xc)+E(xc)   XCENC  =        73.93252774
  PAW double counting   =      1176.76900159    -1181.42915261
  entropy T*S    EENTRO =        -0.00000000
  eigenvalues    EBANDS =      -273.97342408
  atomic energy  EATOM  =      1036.88490136
  Solvation  Ediel_sol  =         0.00000000
  ---------------------------------------------------
  free energy    TOTEN  =       -29.16156642 eV

  energy without entropy =      -29.16156642  energy(sigma->0) =      -29.16156642


--------------------------------------------------------------------------------------------------------




--------------------------------------- Iteration      1(   8)  ---------------------------------------


    POTLOK:  cpu time   14.9113: real time   14.9364
    SETDIJ:  cpu time    0.0483: real time    0.0484
     EDDAV:  cpu time   27.6071: real time   27.6573
       DOS:  cpu time    0.0002: real time    0.0002
    CHARGE:  cpu time    6.3572: real time    6.3658
    MIXING:  cpu time    0.3314: real time    0.3320
    --------------------------------------------
      LOOP:  cpu time   49.2554: real time   49.3401

 eigenvalue-minimisations  :   128
 total energy-change (2. order) : 0.1222453E+00  (-0.2497271E-01)
 number of electron      17.9999999 magnetization 
 augmentation part        1.3485714 magnetization 

 Broyden mixing:
  rms(total) = 0.94160E-01    rms(broyden)= 0.94160E-01
  rms(prec ) = 0.96562E-01
  weight for this iteration     100.00

 eigenvalues of (default mixing * dielectric matrix)
  average eigenvalue GAMMA=   1.3945
  2.3628  1.0760  0.7447

 Free energy of the ion-electron system (eV)
  ---------------------------------------------------
  alpha Z        PSCENC =         0.03011286
  Ewald energy   TEWEN  =       564.53250184
  -Hartree energ DENC   =     -1435.32907964
  -exchange      EXHF   =         0.00000000
  -V(xc)+E(xc)   XCENC  =        74.44988512
  PAW double counting   =      1345.05302337    -1349.69297844
  entropy T*S    EENTRO =        -0.00000000
  eigenvalues    EBANDS =      -264.96768763
  atomic energy  EATOM  =      1036.88490136
  Solvation  Ediel_sol  =         0.00000000
  ---------------------------------------------------
  free energy    TOTEN  =       -29.03932116 eV

  energy without entropy =      -29.03932116  energy(sigma->0) =      -29.03932116


--------------------------------------------------------------------------------------------------------




--------------------------------------- Iteration      1(   9)  ---------------------------------------


    POTLOK:  cpu time   14.8589: real time   14.8926
    SETDIJ:  cpu time    0.0485: real time    0.0486
     EDDAV:  cpu time   16.6890: real time   16.7195
       DOS:  cpu time    0.0075: real time    0.0075
    CHARGE:  cpu time    6.2906: real time    6.2992
    MIXING:  cpu time    0.3713: real time    0.3719
    --------------------------------------------
      LOOP:  cpu time   38.2658: real time   38.3392

 eigenvalue-minimisations  :    64
 total energy-change (2. order) : 0.1634628E-01  (-0.3193321E-02)
 number of electron      17.9999999 magnetization 
 augmentation part        1.3535999 magnetization 

 Broyden mixing:
  rms(total) = 0.23187E-01    rms(broyden)= 0.23187E-01
  rms(prec ) = 0.26100E-01
  weight for this iteration     100.00

 eigenvalues of (default mixing * dielectric matrix)
  average eigenvalue GAMMA=   1.4681
  2.3358  1.7580  1.0175  0.7613

 Free energy of the ion-electron system (eV)
  ---------------------------------------------------
  alpha Z        PSCENC =         0.03011286
  Ewald energy   TEWEN  =       564.53250184
  -Hartree energ DENC   =     -1437.22011905
  -exchange      EXHF   =         0.00000000
  -V(xc)+E(xc)   XCENC  =        74.53593919
  PAW double counting   =      1398.84375299    -1403.44372290
  entropy T*S    EENTRO =        -0.00000000
  eigenvalues    EBANDS =      -263.18634116
  atomic energy  EATOM  =      1036.88490136
  Solvation  Ediel_sol  =         0.00000000
  ---------------------------------------------------
  free energy    TOTEN  =       -29.02297488 eV

  energy without entropy =      -29.02297488  energy(sigma->0) =      -29.02297488


--------------------------------------------------------------------------------------------------------




--------------------------------------- Iteration      1(  10)  ---------------------------------------


    POTLOK:  cpu time   14.9587: real time   14.9841
    SETDIJ:  cpu time    0.0484: real time    0.0484
     EDDAV:  cpu time   22.1632: real time   22.2015
       DOS:  cpu time    0.0031: real time    0.0031
    CHARGE:  cpu time    6.2996: real time    6.3083
    MIXING:  cpu time    0.3640: real time    0.3647
    --------------------------------------------
      LOOP:  cpu time   43.8369: real time   43.9102

 eigenvalue-minimisations  :    96
 total energy-change (2. order) :-0.1813501E-02  (-0.5147453E-03)
 number of electron      17.9999999 magnetization 
 augmentation part        1.3532688 magnetization 

 Broyden mixing:
  rms(total) = 0.10983E-01    rms(broyden)= 0.10983E-01
  rms(prec ) = 0.13667E-01
  weight for this iteration     100.00

 eigenvalues of (default mixing * dielectric matrix)
  average eigenvalue GAMMA=   1.4659
  2.5031  2.0253  1.0167  1.0167  0.7679

 Free energy of the ion-electron system (eV)
  ---------------------------------------------------
  alpha Z        PSCENC =         0.03011286
  Ewald energy   TEWEN  =       564.53250184
  -Hartree energ DENC   =     -1437.94401334
  -exchange      EXHF   =         0.00000000
  -V(xc)+E(xc)   XCENC  =        74.53422114
  PAW double counting   =      1400.34026765    -1404.92235638
  entropy T*S    EENTRO =        -0.00000000
  eigenvalues    EBANDS =      -262.48042352
  atomic energy  EATOM  =      1036.88490136
  Solvation  Ediel_sol  =         0.00000000
  ---------------------------------------------------
  free energy    TOTEN  =       -29.02478838 eV

  energy without entropy =      -29.02478838  energy(sigma->0) =      -29.02478838


--------------------------------------------------------------------------------------------------------




--------------------------------------- Iteration      1(  11)  ---------------------------------------


    POTLOK:  cpu time   14.8676: real time   14.8933
    SETDIJ:  cpu time    0.0484: real time    0.0484
     EDDAV:  cpu time   21.9991: real time   22.0376
       DOS:  cpu time    0.0102: real time    0.0102
    CHARGE:  cpu time    6.3193: real time    6.3279
    MIXING:  cpu time    0.3774: real time    0.3782
    --------------------------------------------
      LOOP:  cpu time   43.6220: real time   43.6957

 eigenvalue-minimisations  :    96
 total energy-change (2. order) :-0.3308419E-02  (-0.1129412E-03)
 number of electron      17.9999999 magnetization 
 augmentation part        1.3529383 magnetization 

 Broyden mixing:
  rms(total) = 0.60237E-02    rms(broyden)= 0.60237E-02
  rms(prec ) = 0.82881E-02
  weight for this iteration     100.00

 eigenvalues of (default mixing * dielectric matrix)
  average eigenvalue GAMMA=   1.6096
  2.9049  2.4637  1.6314  0.7763  0.8828  0.9983

 Free energy of the ion-electron system (eV)
  ---------------------------------------------------
  alpha Z        PSCENC =         0.03011286
  Ewald energy   TEWEN  =       564.53250184
  -Hartree energ DENC   =     -1438.81328581
  -exchange      EXHF   =         0.00000000
  -V(xc)+E(xc)   XCENC  =        74.54823239
  PAW double counting   =      1401.86897998    -1406.44218500
  entropy T*S    EENTRO =        -0.00000000
  eigenvalues    EBANDS =      -261.63735443
  atomic energy  EATOM  =      1036.88490136
  Solvation  Ediel_sol  =         0.00000000
  ---------------------------------------------------
  free energy    TOTEN  =       -29.02809680 eV

  energy without entropy =      -29.02809680  energy(sigma->0) =      -29.02809680


--------------------------------------------------------------------------------------------------------




--------------------------------------- Iteration      1(  12)  ---------------------------------------


    POTLOK:  cpu time   14.8811: real time   14.9100
    SETDIJ:  cpu time    0.0488: real time    0.0488
     EDDAV:  cpu time   16.6411: real time   16.6698
       DOS:  cpu time    0.0115: real time    0.0115
    CHARGE:  cpu time    6.3347: real time    6.3433
    MIXING:  cpu time    0.4681: real time    0.4690
    --------------------------------------------
      LOOP:  cpu time   38.3853: real time   38.4524

 eigenvalue-minimisations  :    64
 total energy-change (2. order) :-0.4454877E-02  (-0.1195456E-03)
 number of electron      17.9999999 magnetization 
 augmentation part        1.3525282 magnetization 

 Broyden mixing:
  rms(total) = 0.32598E-02    rms(broyden)= 0.32598E-02
  rms(prec ) = 0.48383E-02
  weight for this iteration     100.00

 eigenvalues of (default mixing * dielectric matrix)
  average eigenvalue GAMMA=   1.7554
  3.9096  2.4835  1.6565  1.5514  0.7716  0.9577  0.9577

 Free energy of the ion-electron system (eV)
  ---------------------------------------------------
  alpha Z        PSCENC =         0.03011286
  Ewald energy   TEWEN  =       564.53250184
  -Hartree energ DENC   =     -1439.70174857
  -exchange      EXHF   =         0.00000000
  -V(xc)+E(xc)   XCENC  =        74.56039051
  PAW double counting   =      1399.22604133    -1403.79647787
  entropy T*S    EENTRO =        -0.00000000
  eigenvalues    EBANDS =      -260.76827314
  atomic energy  EATOM  =      1036.88490136
  Solvation  Ediel_sol  =         0.00000000
  ---------------------------------------------------
  free energy    TOTEN  =       -29.03255168 eV

  energy without entropy =      -29.03255168  energy(sigma->0) =      -29.03255168


--------------------------------------------------------------------------------------------------------




--------------------------------------- Iteration      1(  13)  ---------------------------------------


    POTLOK:  cpu time   14.9727: real time   14.9987
    SETDIJ:  cpu time    0.0485: real time    0.0485
     EDDAV:  cpu time   22.0011: real time   22.0399
       DOS:  cpu time    0.0016: real time    0.0016
    CHARGE:  cpu time    6.3042: real time    6.3127
    MIXING:  cpu time    0.4325: real time    0.4332
    --------------------------------------------
      LOOP:  cpu time   43.7607: real time   43.8347

 eigenvalue-minimisations  :    96
 total energy-change (2. order) :-0.4190582E-02  (-0.8773512E-04)
 number of electron      17.9999999 magnetization 
 augmentation part        1.3519973 magnetization 

 Broyden mixing:
  rms(total) = 0.19330E-02    rms(broyden)= 0.19330E-02
  rms(prec ) = 0.28349E-02
  weight for this iteration     100.00

 eigenvalues of (default mixing * dielectric matrix)
  average eigenvalue GAMMA=   1.9319
  4.9379  2.7855  2.3256  1.7098  0.7725  0.9932  0.9932  0.9371

 Free energy of the ion-electron system (eV)
  ---------------------------------------------------
  alpha Z        PSCENC =         0.03011286
  Ewald energy   TEWEN  =       564.53250184
  -Hartree energ DENC   =     -1440.35102968
  -exchange      EXHF   =         0.00000000
  -V(xc)+E(xc)   XCENC  =        74.56522450
  PAW double counting   =      1398.08279905    -1402.65287482
  entropy T*S    EENTRO =        -0.00000000
  eigenvalues    EBANDS =      -260.12837737
  atomic energy  EATOM  =      1036.88490136
  Solvation  Ediel_sol  =         0.00000000
  ---------------------------------------------------
  free energy    TOTEN  =       -29.03674226 eV

  energy without entropy =      -29.03674226  energy(sigma->0) =      -29.03674226


--------------------------------------------------------------------------------------------------------




--------------------------------------- Iteration      1(  14)  ---------------------------------------


    POTLOK:  cpu time   14.9401: real time   14.9656
    SETDIJ:  cpu time    0.0484: real time    0.0484
     EDDAV:  cpu time   22.0093: real time   22.0553
       DOS:  cpu time    0.0002: real time    0.0002
    CHARGE:  cpu time    6.3136: real time    6.3219
    MIXING:  cpu time    0.4490: real time    0.4498
    --------------------------------------------
      LOOP:  cpu time   43.7607: real time   43.8413

 eigenvalue-minimisations  :    96
 total energy-change (2. order) :-0.3594594E-02  (-0.4868129E-04)
 number of electron      17.9999999 magnetization 
 augmentation part        1.3520820 magnetization 

 Broyden mixing:
  rms(total) = 0.11456E-02    rms(broyden)= 0.11456E-02
  rms(prec ) = 0.15616E-02
  weight for this iteration     100.00

 eigenvalues of (default mixing * dielectric matrix)
  average eigenvalue GAMMA=   2.0748
  5.9253  3.2526  2.4593  1.6931  1.6931  0.7730  0.9927  0.9927  0.8915

 Free energy of the ion-electron system (eV)
  ---------------------------------------------------
  alpha Z        PSCENC =         0.03011286
  Ewald energy   TEWEN  =       564.53250184
  -Hartree energ DENC   =     -1440.67907275
  -exchange      EXHF   =         0.00000000
  -V(xc)+E(xc)   XCENC  =        74.56193484
  PAW double counting   =      1397.87597821    -1402.44571590
  entropy T*S    EENTRO =        -0.00000000
  eigenvalues    EBANDS =      -259.80097731
  atomic energy  EATOM  =      1036.88490136
  Solvation  Ediel_sol  =         0.00000000
  ---------------------------------------------------
  free energy    TOTEN  =       -29.04033685 eV

  energy without entropy =      -29.04033685  energy(sigma->0) =      -29.04033685


--------------------------------------------------------------------------------------------------------




--------------------------------------- Iteration      1(  15)  ---------------------------------------


    POTLOK:  cpu time   14.8707: real time   14.8960
    SETDIJ:  cpu time    0.0483: real time    0.0484
     EDDAV:  cpu time   16.6519: real time   16.6808
       DOS:  cpu time    0.0002: real time    0.0002
    CHARGE:  cpu time    6.2575: real time    6.2659
    MIXING:  cpu time    0.4736: real time    0.4744
    --------------------------------------------
      LOOP:  cpu time   38.3022: real time   38.3657

 eigenvalue-minimisations  :    64
 total energy-change (2. order) :-0.1945621E-02  (-0.1901945E-04)
 number of electron      17.9999999 magnetization 
 augmentation part        1.3518470 magnetization 

 Broyden mixing:
  rms(total) = 0.84567E-03    rms(broyden)= 0.84567E-03
  rms(prec ) = 0.10164E-02
  weight for this iteration     100.00

 eigenvalues of (default mixing * dielectric matrix)
  average eigenvalue GAMMA=   2.2030
  7.0000  3.7101  2.4555  2.4555  1.6931  0.7727  1.1135  0.9677  0.9677  0.8938

 Free energy of the ion-electron system (eV)
  ---------------------------------------------------
  alpha Z        PSCENC =         0.03011286
  Ewald energy   TEWEN  =       564.53250184
  -Hartree energ DENC   =     -1440.84353942
  -exchange      EXHF   =         0.00000000
  -V(xc)+E(xc)   XCENC  =        74.56188160
  PAW double counting   =      1398.22816973    -1402.79795677
  entropy T*S    EENTRO =        -0.00000000
  eigenvalues    EBANDS =      -259.63835367
  atomic energy  EATOM  =      1036.88490136
  Solvation  Ediel_sol  =         0.00000000
  ---------------------------------------------------
  free energy    TOTEN  =       -29.04228247 eV

  energy without entropy =      -29.04228247  energy(sigma->0) =      -29.04228247


--------------------------------------------------------------------------------------------------------




--------------------------------------- Iteration      1(  16)  ---------------------------------------


    POTLOK:  cpu time   14.8786: real time   14.9035
    SETDIJ:  cpu time    0.0855: real time    0.0856
     EDDAV:  cpu time   27.2890: real time   27.3361
       DOS:  cpu time    0.0017: real time    0.0017
    CHARGE:  cpu time    6.2936: real time    6.3071
    MIXING:  cpu time    0.5148: real time    0.5156
    --------------------------------------------
      LOOP:  cpu time   49.0632: real time   49.1496

 eigenvalue-minimisations  :   128
 total energy-change (2. order) :-0.9703259E-03  (-0.6980986E-05)
 number of electron      17.9999999 magnetization 
 augmentation part        1.3518836 magnetization 

 Broyden mixing:
  rms(total) = 0.33317E-03    rms(broyden)= 0.33317E-03
  rms(prec ) = 0.44107E-03
  weight for this iteration     100.00

 eigenvalues of (default mixing * dielectric matrix)
  average eigenvalue GAMMA=   2.3003
  7.7025  4.2476  2.7931  2.5108  1.7343  1.7343  0.7726  1.0196  0.9490  0.9490
  0.8908

 Free energy of the ion-electron system (eV)
  ---------------------------------------------------
  alpha Z        PSCENC =         0.03011286
  Ewald energy   TEWEN  =       564.53250184
  -Hartree energ DENC   =     -1440.87587664
  -exchange      EXHF   =         0.00000000
  -V(xc)+E(xc)   XCENC  =        74.55971241
  PAW double counting   =      1398.10014799    -1402.66903991
  entropy T*S    EENTRO =        -0.00000000
  eigenvalues    EBANDS =      -259.60571271
  atomic energy  EATOM  =      1036.88490136
  Solvation  Ediel_sol  =         0.00000000
  ---------------------------------------------------
  free energy    TOTEN  =       -29.04325280 eV

  energy without entropy =      -29.04325280  energy(sigma->0) =      -29.04325280


--------------------------------------------------------------------------------------------------------




--------------------------------------- Iteration      1(  17)  ---------------------------------------


    POTLOK:  cpu time   14.9142: real time   14.9391
    SETDIJ:  cpu time    0.0483: real time    0.0484
     EDDAV:  cpu time   27.3358: real time   27.3838
       DOS:  cpu time    0.0003: real time    0.0003
    CHARGE:  cpu time    6.2998: real time    6.3079
    MIXING:  cpu time    0.5200: real time    0.5209
    --------------------------------------------
      LOOP:  cpu time   49.1185: real time   49.2004

 eigenvalue-minimisations  :   128
 total energy-change (2. order) :-0.4633364E-03  (-0.1991419E-05)
 number of electron      17.9999999 magnetization 
 augmentation part        1.3519387 magnetization 

 Broyden mixing:
  rms(total) = 0.37398E-03    rms(broyden)= 0.37398E-03
  rms(prec ) = 0.40803E-03
  weight for this iteration     100.00

 eigenvalues of (default mixing * dielectric matrix)
  average eigenvalue GAMMA=   2.3681
  8.2198  4.9037  3.0749  2.4486  2.4486  1.6566  0.7727  1.1118  0.9645  0.9645
  0.9636  0.8877

 Free energy of the ion-electron system (eV)
  ---------------------------------------------------
  alpha Z        PSCENC =         0.03011286
  Ewald energy   TEWEN  =       564.53250184
  -Hartree energ DENC   =     -1440.87812803
  -exchange      EXHF   =         0.00000000
  -V(xc)+E(xc)   XCENC  =        74.55812911
  PAW double counting   =      1398.01269479    -1402.58138573
  entropy T*S    EENTRO =        -0.00000000
  eigenvalues    EBANDS =      -259.60254234
  atomic energy  EATOM  =      1036.88490136
  Solvation  Ediel_sol  =         0.00000000
  ---------------------------------------------------
  free energy    TOTEN  =       -29.04371614 eV

  energy without entropy =      -29.04371614  energy(sigma->0) =      -29.04371614


--------------------------------------------------------------------------------------------------------




--------------------------------------- Iteration      1(  18)  ---------------------------------------


    POTLOK:  cpu time   14.8342: real time   14.8591
    SETDIJ:  cpu time    0.0483: real time    0.0484
     EDDAV:  cpu time   27.3201: real time   27.3739
       DOS:  cpu time    0.0010: real time    0.0010
    CHARGE:  cpu time    6.2775: real time    6.2859
    MIXING:  cpu time    0.5470: real time    0.5481
    --------------------------------------------
      LOOP:  cpu time   49.0282: real time   49.1164

 eigenvalue-minimisations  :   128
 total energy-change (2. order) :-0.1948718E-03  (-0.7285724E-06)
 number of electron      17.9999999 magnetization 
 augmentation part        1.3518742 magnetization 

 Broyden mixing:
  rms(total) = 0.13277E-03    rms(broyden)= 0.13277E-03
  rms(prec ) = 0.15619E-03
  weight for this iteration     100.00

 eigenvalues of (default mixing * dielectric matrix)
  average eigenvalue GAMMA=   2.3861
  8.6443  5.1064  3.2597  2.6092  2.3798  1.7283  1.7283  0.7727  1.0653  0.9450
  0.9450  0.8956  0.9399

 Free energy of the ion-electron system (eV)
  ---------------------------------------------------
  alpha Z        PSCENC =         0.03011286
  Ewald energy   TEWEN  =       564.53250184
  -Hartree energ DENC   =     -1440.89767657
  -exchange      EXHF   =         0.00000000
  -V(xc)+E(xc)   XCENC  =        74.55867545
  PAW double counting   =      1398.02126650    -1402.59039163
  entropy T*S    EENTRO =        -0.00000000
  eigenvalues    EBANDS =      -259.58330083
  atomic energy  EATOM  =      1036.88490136
  Solvation  Ediel_sol  =         0.00000000
  ---------------------------------------------------
  free energy    TOTEN  =       -29.04391101 eV

  energy without entropy =      -29.04391101  energy(sigma->0) =      -29.04391101


--------------------------------------------------------------------------------------------------------




--------------------------------------- Iteration      1(  19)  ---------------------------------------


    POTLOK:  cpu time   14.8319: real time   14.8560
    SETDIJ:  cpu time    0.0484: real time    0.0485
     EDDAV:  cpu time   27.1667: real time   27.2189
       DOS:  cpu time    0.0010: real time    0.0010
    CHARGE:  cpu time    6.3675: real time    6.3800
    MIXING:  cpu time    0.5800: real time    0.5811
    --------------------------------------------
      LOOP:  cpu time   48.9955: real time   49.0854

 eigenvalue-minimisations  :   128
 total energy-change (2. order) :-0.9167812E-04  (-0.1020428E-06)
 number of electron      17.9999999 magnetization 
 augmentation part        1.3518829 magnetization 

 Broyden mixing:
  rms(total) = 0.55894E-04    rms(broyden)= 0.55894E-04
  rms(prec ) = 0.70937E-04
  weight for this iteration     100.00

 eigenvalues of (default mixing * dielectric matrix)
  average eigenvalue GAMMA=   2.4518
  9.0223  5.6576  3.8609  2.6492  2.4606  2.4606  1.6600  1.1080  0.7727  0.9482
  0.9482  0.9645  0.9064  0.9064

 Free energy of the ion-electron system (eV)
  ---------------------------------------------------
  alpha Z        PSCENC =         0.03011286
  Ewald energy   TEWEN  =       564.53250184
  -Hartree energ DENC   =     -1440.89813745
  -exchange      EXHF   =         0.00000000
  -V(xc)+E(xc)   XCENC  =        74.55839942
  PAW double counting   =      1398.00148208    -1402.57059408
  entropy T*S    EENTRO =        -0.00000000
  eigenvalues    EBANDS =      -259.58266871
  atomic energy  EATOM  =      1036.88490136
  Solvation  Ediel_sol  =         0.00000000
  ---------------------------------------------------
  free energy    TOTEN  =       -29.04400269 eV

  energy without entropy =      -29.04400269  energy(sigma->0) =      -29.04400269


--------------------------------------------------------------------------------------------------------




--------------------------------------- Iteration      1(  20)  ---------------------------------------


    POTLOK:  cpu time   14.8904: real time   14.9158
    SETDIJ:  cpu time    0.0485: real time    0.0485
     EDDAV:  cpu time   27.1220: real time   27.1736
       DOS:  cpu time    0.0018: real time    0.0018
    CHARGE:  cpu time    6.3774: real time    6.3861
    MIXING:  cpu time    0.6629: real time    0.6640
    --------------------------------------------
      LOOP:  cpu time   49.1029: real time   49.1899

 eigenvalue-minimisations  :   128
 total energy-change (2. order) :-0.4361514E-04  (-0.4676327E-07)
 number of electron      17.9999999 magnetization 
 augmentation part        1.3518909 magnetization 

 Broyden mixing:
  rms(total) = 0.36821E-04    rms(broyden)= 0.36821E-04
  rms(prec ) = 0.43795E-04
  weight for this iteration     100.00

 eigenvalues of (default mixing * dielectric matrix)
  average eigenvalue GAMMA=   2.5128
  9.2002  6.1244  4.2186  2.9758  2.4591  2.2353  2.2353  1.6769  0.7727  0.9474
  0.9474  1.0759  0.8916  0.9658  0.9658

 Free energy of the ion-electron system (eV)
  ---------------------------------------------------
  alpha Z        PSCENC =         0.03011286
  Ewald energy   TEWEN  =       564.53250184
  -Hartree energ DENC   =     -1440.89892544
  -exchange      EXHF   =         0.00000000
  -V(xc)+E(xc)   XCENC  =        74.55829081
  PAW double counting   =      1398.01842590    -1402.58747572
  entropy T*S    EENTRO =        -0.00000000
  eigenvalues    EBANDS =      -259.58187791
  atomic energy  EATOM  =      1036.88490136
  Solvation  Ediel_sol  =         0.00000000
  ---------------------------------------------------
  free energy    TOTEN  =       -29.04404630 eV

  energy without entropy =      -29.04404630  energy(sigma->0) =      -29.04404630


--------------------------------------------------------------------------------------------------------




--------------------------------------- Iteration      1(  21)  ---------------------------------------


    POTLOK:  cpu time   14.9066: real time   14.9358
    SETDIJ:  cpu time    0.0586: real time    0.0586
     EDDAV:  cpu time   27.2096: real time   27.2568
       DOS:  cpu time    0.0023: real time    0.0023
    CHARGE:  cpu time    6.3506: real time    6.3593
    MIXING:  cpu time    0.6531: real time    0.6543
    --------------------------------------------
      LOOP:  cpu time   49.1807: real time   49.2671

 eigenvalue-minimisations  :   128
 total energy-change (2. order) :-0.2274298E-04  (-0.1595981E-07)
 number of electron      17.9999999 magnetization 
 augmentation part        1.3518896 magnetization 

 Broyden mixing:
  rms(total) = 0.16320E-04    rms(broyden)= 0.16320E-04
  rms(prec ) = 0.19792E-04
  weight for this iteration     100.00

 eigenvalues of (default mixing * dielectric matrix)
  average eigenvalue GAMMA=   2.5129
  9.3892  6.3983  4.5450  3.2216  2.5459  2.4210  2.2623  1.6646  0.7727  1.2033
  0.9467  0.9467  0.8941  1.0143  1.0143  0.9665

 Free energy of the ion-electron system (eV)
  ---------------------------------------------------
  alpha Z        PSCENC =         0.03011286
  Ewald energy   TEWEN  =       564.53250184
  -Hartree energ DENC   =     -1440.90090519
  -exchange      EXHF   =         0.00000000
  -V(xc)+E(xc)   XCENC  =        74.55834207
  PAW double counting   =      1398.02333870    -1402.59239083
  entropy T*S    EENTRO =        -0.00000000
  eigenvalues    EBANDS =      -259.57996986
  atomic energy  EATOM  =      1036.88490136
  Solvation  Ediel_sol  =         0.00000000
  ---------------------------------------------------
  free energy    TOTEN  =       -29.04406905 eV

  energy without entropy =      -29.04406905  energy(sigma->0) =      -29.04406905


--------------------------------------------------------------------------------------------------------




--------------------------------------- Iteration      1(  22)  ---------------------------------------


    POTLOK:  cpu time   14.8498: real time   14.8745
    SETDIJ:  cpu time    0.0484: real time    0.0484
     EDDAV:  cpu time   27.1132: real time   27.1607
       DOS:  cpu time    0.0110: real time    0.0110
    CHARGE:  cpu time    6.2985: real time    6.3071
    MIXING:  cpu time    0.6878: real time    0.6890
    --------------------------------------------
      LOOP:  cpu time   49.0085: real time   49.0907

 eigenvalue-minimisations  :   128
 total energy-change (2. order) :-0.7410918E-05  (-0.6064958E-08)
 number of electron      17.9999999 magnetization 
 augmentation part        1.3518861 magnetization 

 Broyden mixing:
  rms(total) = 0.10931E-04    rms(broyden)= 0.10931E-04
  rms(prec ) = 0.12898E-04
  weight for this iteration     100.00

 eigenvalues of (default mixing * dielectric matrix)
  average eigenvalue GAMMA=   2.5899
  9.5712  6.7320  5.0045  3.6261  2.7735  2.5757  2.2814  2.1604  1.6696  0.7727
  0.9484  0.9484  1.1024  0.8961  1.0092  1.0092  0.9466

 Free energy of the ion-electron system (eV)
  ---------------------------------------------------
  alpha Z        PSCENC =         0.03011286
  Ewald energy   TEWEN  =       564.53250184
  -Hartree energ DENC   =     -1440.90149058
  -exchange      EXHF   =         0.00000000
  -V(xc)+E(xc)   XCENC  =        74.55836206
  PAW double counting   =      1398.02380893    -1402.59286188
  entropy T*S    EENTRO =        -0.00000000
  eigenvalues    EBANDS =      -259.57941104
  atomic energy  EATOM  =      1036.88490136
  Solvation  Ediel_sol  =         0.00000000
  ---------------------------------------------------
  free energy    TOTEN  =       -29.04407646 eV

  energy without entropy =      -29.04407646  energy(sigma->0) =      -29.04407646


--------------------------------------------------------------------------------------------------------




--------------------------------------- Iteration      1(  23)  ---------------------------------------


    POTLOK:  cpu time   14.8723: real time   14.8970
    SETDIJ:  cpu time    0.0484: real time    0.0484
     EDDAV:  cpu time   27.1203: real time   27.1675
       DOS:  cpu time    0.0054: real time    0.0054
    CHARGE:  cpu time    6.3351: real time    6.3465
    MIXING:  cpu time    0.8063: real time    0.8076
    --------------------------------------------
      LOOP:  cpu time   49.1877: real time   49.2723

 eigenvalue-minimisations  :   128
 total energy-change (2. order) :-0.5007560E-05  (-0.5342384E-08)
 number of electron      17.9999999 magnetization 
 augmentation part        1.3518884 magnetization 

 Broyden mixing:
  rms(total) = 0.41030E-05    rms(broyden)= 0.41030E-05
  rms(prec ) = 0.50324E-05
  weight for this iteration     100.00

 eigenvalues of (default mixing * dielectric matrix)
  average eigenvalue GAMMA=   2.5468
  9.5447  7.0382  5.1174  3.9046  2.8217  2.4657  2.3320  2.1160  1.6815  0.7727
  1.1879  0.9492  0.9492  1.0639  1.0639  0.8953  0.9692  0.9692

 Free energy of the ion-electron system (eV)
  ---------------------------------------------------
  alpha Z        PSCENC =         0.03011286
  Ewald energy   TEWEN  =       564.53250184
  -Hartree energ DENC   =     -1440.90093301
  -exchange      EXHF   =         0.00000000
  -V(xc)+E(xc)   XCENC  =        74.55832274
  PAW double counting   =      1398.02031538    -1402.58937160
  entropy T*S    EENTRO =        -0.00000000
  eigenvalues    EBANDS =      -259.57993102
  atomic energy  EATOM  =      1036.88490136
  Solvation  Ediel_sol  =         0.00000000
  ---------------------------------------------------
  free energy    TOTEN  =       -29.04408146 eV

  energy without entropy =      -29.04408146  energy(sigma->0) =      -29.04408146


--------------------------------------------------------------------------------------------------------




--------------------------------------- Iteration      1(  24)  ---------------------------------------


    POTLOK:  cpu time   14.8849: real time   14.9098
    SETDIJ:  cpu time    0.0484: real time    0.0484
     EDDAV:  cpu time   27.0875: real time   27.1357
       DOS:  cpu time    0.0004: real time    0.0004
    CHARGE:  cpu time    6.3608: real time    6.3700
    MIXING:  cpu time    0.7707: real time    0.7734
    --------------------------------------------
      LOOP:  cpu time   49.1526: real time   49.2378

 eigenvalue-minimisations  :   128
 total energy-change (2. order) :-0.8764889E-06  (-0.3263860E-08)
 number of electron      17.9999999 magnetization 
 augmentation part        1.3518879 magnetization 

 Broyden mixing:
  rms(total) = 0.23641E-05    rms(broyden)= 0.23641E-05
  rms(prec ) = 0.31274E-05
  weight for this iteration     100.00

 eigenvalues of (default mixing * dielectric matrix)
  average eigenvalue GAMMA=   2.6293
  9.6303  7.4099  5.5276  4.2972  3.2836  2.5860  2.5860  2.2464  2.0571  1.6808
  0.7727  0.9497  0.9497  1.1056  1.0416  1.0416  0.8965  0.9476  0.9476

 Free energy of the ion-electron system (eV)
  ---------------------------------------------------
  alpha Z        PSCENC =         0.03011286
  Ewald energy   TEWEN  =       564.53250184
  -Hartree energ DENC   =     -1440.90102748
  -exchange      EXHF   =         0.00000000
  -V(xc)+E(xc)   XCENC  =        74.55832921
  PAW double counting   =      1398.02136823    -1402.59042539
  entropy T*S    EENTRO =        -0.00000000
  eigenvalues    EBANDS =      -259.57984298
  atomic energy  EATOM  =      1036.88490136
  Solvation  Ediel_sol  =         0.00000000
  ---------------------------------------------------
  free energy    TOTEN  =       -29.04408234 eV

  energy without entropy =      -29.04408234  energy(sigma->0) =      -29.04408234


--------------------------------------------------------------------------------------------------------




--------------------------------------- Iteration      1(  25)  ---------------------------------------


    POTLOK:  cpu time   14.8303: real time   14.8566
    SETDIJ:  cpu time    0.0485: real time    0.0485
     EDDAV:  cpu time   27.1431: real time   27.1910
       DOS:  cpu time    0.0024: real time    0.0024
    CHARGE:  cpu time    6.3574: real time    6.3665
    MIXING:  cpu time    0.8765: real time    0.8781
    --------------------------------------------
      LOOP:  cpu time   49.2583: real time   49.3431

 eigenvalue-minimisations  :   128
 total energy-change (2. order) :-0.1159698E-05  (-0.2497119E-08)
 number of electron      17.9999999 magnetization 
 augmentation part        1.3518879 magnetization 

 Broyden mixing:
  rms(total) = 0.10883E-05    rms(broyden)= 0.10883E-05
  rms(prec ) = 0.13569E-05
  weight for this iteration     100.00

 eigenvalues of (default mixing * dielectric matrix)
  average eigenvalue GAMMA=   2.6241
  9.6761  7.6124  5.7527  4.5461  3.4913  2.7926  2.3891  2.3891  1.8916  1.7095
  1.5678  0.7727  0.9492  0.9492  1.1016  1.0514  1.0514  0.8981  0.9587  0.9309

 Free energy of the ion-electron system (eV)
  ---------------------------------------------------
  alpha Z        PSCENC =         0.03011286
  Ewald energy   TEWEN  =       564.53250184
  -Hartree energ DENC   =     -1440.90102570
  -exchange      EXHF   =         0.00000000
  -V(xc)+E(xc)   XCENC  =        74.55832660
  PAW double counting   =      1398.02178991    -1402.59084736
  entropy T*S    EENTRO =        -0.00000000
  eigenvalues    EBANDS =      -259.57984301
  atomic energy  EATOM  =      1036.88490136
  Solvation  Ediel_sol  =         0.00000000
  ---------------------------------------------------
  free energy    TOTEN  =       -29.04408350 eV

  energy without entropy =      -29.04408350  energy(sigma->0) =      -29.04408350


--------------------------------------------------------------------------------------------------------




--------------------------------------- Iteration      1(  26)  ---------------------------------------


    POTLOK:  cpu time   14.9016: real time   14.9273
    SETDIJ:  cpu time    0.0483: real time    0.0484
     EDDAV:  cpu time   27.0720: real time   27.1191
       DOS:  cpu time    0.0003: real time    0.0003
    CHARGE:  cpu time    6.3071: real time    6.3165
    MIXING:  cpu time    0.8613: real time    0.8628
    --------------------------------------------
      LOOP:  cpu time   49.1906: real time   49.2743

 eigenvalue-minimisations  :   128
 total energy-change (2. order) :-0.2422673E-06  (-0.1756533E-08)
 number of electron      17.9999999 magnetization 
 augmentation part        1.3518881 magnetization 

 Broyden mixing:
  rms(total) = 0.98183E-06    rms(broyden)= 0.98183E-06
  rms(prec ) = 0.11122E-05
  weight for this iteration     100.00

 eigenvalues of (default mixing * dielectric matrix)
  average eigenvalue GAMMA=   2.6796
  9.7083  7.8810  6.1445  4.8026  3.9077  2.9590  2.8065  2.3682  2.3682  1.9175
  1.6857  0.7727  0.9492  0.9492  1.1109  1.1109  1.0244  1.0244  0.8965  0.9426
  0.9426

 Free energy of the ion-electron system (eV)
  ---------------------------------------------------
  alpha Z        PSCENC =         0.03011286
  Ewald energy   TEWEN  =       564.53250184
  -Hartree energ DENC   =     -1440.90096690
  -exchange      EXHF   =         0.00000000
  -V(xc)+E(xc)   XCENC  =        74.55832368
  PAW double counting   =      1398.02146993    -1402.59052665
  entropy T*S    EENTRO =        -0.00000000
  eigenvalues    EBANDS =      -259.57989986
  atomic energy  EATOM  =      1036.88490136
  Solvation  Ediel_sol  =         0.00000000
  ---------------------------------------------------
  free energy    TOTEN  =       -29.04408374 eV

  energy without entropy =      -29.04408374  energy(sigma->0) =      -29.04408374


--------------------------------------------------------------------------------------------------------




--------------------------------------- Iteration      1(  27)  ---------------------------------------


    POTLOK:  cpu time   14.7765: real time   14.8018
    SETDIJ:  cpu time    0.0484: real time    0.0484
     EDDAV:  cpu time   27.0913: real time   27.1391
       DOS:  cpu time    0.0019: real time    0.0019
    CHARGE:  cpu time    6.3476: real time    6.3580
    MIXING:  cpu time    0.8932: real time    0.9041
    --------------------------------------------
      LOOP:  cpu time   49.1589: real time   49.2533

 eigenvalue-minimisations  :   128
 total energy-change (2. order) :-0.1790836E-06  (-0.1401530E-08)
 number of electron      17.9999999 magnetization 
 augmentation part        1.3518879 magnetization 

 Broyden mixing:
  rms(total) = 0.40667E-06    rms(broyden)= 0.40667E-06
  rms(prec ) = 0.46506E-06
  weight for this iteration     100.00

 eigenvalues of (default mixing * dielectric matrix)
  average eigenvalue GAMMA=   2.6880
  9.7202  8.0714  6.3425  5.0004  4.0583  3.2129  2.5919  2.5919  2.3412  1.9794
  1.8871  1.6844  0.7727  0.9495  0.9495  1.0919  1.0919  1.0151  1.0151  0.8952
  0.9371  0.9371

 Free energy of the ion-electron system (eV)
  ---------------------------------------------------
  alpha Z        PSCENC =         0.03011286
  Ewald energy   TEWEN  =       564.53250184
  -Hartree energ DENC   =     -1440.90102216
  -exchange      EXHF   =         0.00000000
  -V(xc)+E(xc)   XCENC  =        74.55832687
  PAW double counting   =      1398.02177674    -1402.59083303
  entropy T*S    EENTRO =        -0.00000000
  eigenvalues    EBANDS =      -259.57984839
  atomic energy  EATOM  =      1036.88490136
  Solvation  Ediel_sol  =         0.00000000
  ---------------------------------------------------
  free energy    TOTEN  =       -29.04408392 eV

  energy without entropy =      -29.04408392  energy(sigma->0) =      -29.04408392


--------------------------------------------------------------------------------------------------------




--------------------------------------- Iteration      1(  28)  ---------------------------------------


    POTLOK:  cpu time   14.8035: real time   14.8378
    SETDIJ:  cpu time    0.0484: real time    0.0484
     EDDAV:  cpu time   27.0760: real time   27.1270
       DOS:  cpu time    0.0072: real time    0.0072
    --------------------------------------------
      LOOP:  cpu time   41.9351: real time   42.0204

 eigenvalue-minimisations  :   128
 total energy-change (2. order) :-0.4808476E-07  (-0.1273996E-08)
 number of electron      17.9999999 magnetization 
 augmentation part        1.3518879 magnetization 

 Free energy of the ion-electron system (eV)
  ---------------------------------------------------
  alpha Z        PSCENC =         0.03011286
  Ewald energy   TEWEN  =       564.53250184
  -Hartree energ DENC   =     -1440.90100094
  -exchange      EXHF   =         0.00000000
  -V(xc)+E(xc)   XCENC  =        74.55832586
  PAW double counting   =      1398.02159559    -1402.59065230
  entropy T*S    EENTRO =        -0.00000000
  eigenvalues    EBANDS =      -259.57986823
  atomic energy  EATOM  =      1036.88490136
  Solvation  Ediel_sol  =         0.00000000
  ---------------------------------------------------
  free energy    TOTEN  =       -29.04408397 eV

  energy without entropy =      -29.04408397  energy(sigma->0) =      -29.04408397


--------------------------------------------------------------------------------------------------------




 average (electrostatic) potential at core
  the test charge radii are     0.5201  0.6991  0.7215
  (the norm of the test charge is              1.0000)
       1 -44.7795       2 -44.7795       3 -61.4559       4 -83.2805       5 -80.5669
 
 
 
 E-fermi :  -7.1248     XC(G=0):  -0.0334     alpha+bet : -0.0071


 k-point     1 :       0.0000    0.0000    0.0000
  band No.  band energies     occupation 
      1     -29.0668      2.00000
      2     -25.4021      2.00000
      3     -13.7611      2.00000
      4     -13.1541      2.00000
      5     -11.5282      2.00000
      6     -11.5266      2.00000
      7      -9.2860      2.00000
      8      -8.8414      2.00000
      9      -7.2237      2.00000
     10      -1.8917      0.00000
     11      -1.8900      0.00000
     12      -0.9673      0.00000
     13      -0.0019      0.00000
     14       0.0770      0.00000
     15       0.1023      0.00000
     16       0.1137      0.00000
     17       0.1179      0.00000
     18       0.1199      0.00000
     19       0.1309      0.00000
     20       0.1790      0.00000
     21       0.1932      0.00000
     22       0.2229      0.00000
     23       0.2392      0.00000
     24       0.2395      0.00000
     25       0.2401      0.00000
     26       0.2417      0.00000
     27       0.2425      0.00000
     28       0.2440      0.00000
     29       0.2447      0.00000
     30       0.2447      0.00000
     31       0.2726      0.00000
     32       0.3231      0.00000


--------------------------------------------------------------------------------------------------------


 soft charge-density along one line, spin component            1
         0         1         2         3         4         5         6         7         8         9
 total charge-density along one line
 
 pseudopotential strength for first ion, spin component:            1
 -2.380  -4.111   0.009  -0.014   0.000
 -4.111  -7.014   0.018  -0.028   0.001
  0.009   0.018  -0.314  -0.014   0.001
 -0.014  -0.028  -0.014  -0.301  -0.001
  0.000   0.001   0.001  -0.001  -0.324
 total augmentation occupancy for first ion, spin component:            1
  3.788  -0.791  -0.424   0.620  -0.023
 -0.791   0.220   0.089  -0.121   0.005
 -0.424   0.089   0.069  -0.057   0.002
  0.620  -0.121  -0.057   0.109  -0.003
 -0.023   0.005   0.002  -0.003   0.044


------------------------ aborting loop because EDIFF is reached ----------------------------------------



 DIPCOR: dipole corrections for dipol
 direction  1 min pos   454, direction  2 min pos   462, direction  3 min pos   409,
 dipolmoment          -0.013815     -0.430212      0.017455 electrons x Angstroem
 Tr[quadrupol]         7.663915

 energy correction for charged system         0.000000 eV
 dipol+quadrupol energy correction            0.000131 eV
 added-field ion interaction          0.000000 eV  (added to PSCEN)

 
  *************** adding dipol energy to TOTEN NOW **************** 
    CHARGE:  cpu time    6.3474: real time    6.3567
    FORLOC:  cpu time    0.5735: real time    0.5745
    FORNL :  cpu time    0.4742: real time    0.4749
    STRESS:  cpu time   17.5331: real time   17.5644
    FORCOR:  cpu time   12.5024: real time   12.5240
    FORHAR:  cpu time    3.6284: real time    3.6379
    MIXING:  cpu time    0.9440: real time    0.9458
    OFIELD:  cpu time    0.0001: real time    0.0001

  Hirshfeld charges:
            ion         q(e)     
   ------------------------------
      1     H           0.147
      2     H           0.147
      3     C           0.065
      4     O          -0.067
      5     O          -0.292

  Hirshfeld-I charges:
            ion         q(e)        dq(e)    
   ------------------------------------------
      1     H           0.454      0.200E-04
      2     H           0.454      0.200E-04
      3     C           0.126     -0.335E-06
      4     O          -0.124      0.569E-06
      5     O          -0.909     -0.403E-04

   Hirshfeld-I converged in  18 cycles. Convergence criterion |dq|< 0.500E-04 e

  Atomic reference data used in the T-S method for vdW correction:
            C6at              R0at           ALPHAat      REFSTATE
            (au)              (au)            (au)                
   ---------------------------------------------------------------
   H           6.500          3.099          4.500         0
   C          46.600          3.590         12.000         0
   O          15.600          3.194          5.400         0

  Tkatchenko/Scheffler method for vdW energy calculation
  ---------------------------------------------------------------------------------------------

  Parameters of vdW forcefield:
            C6ts              R0ts           ALPHAts        RELVOL
            (au)              (au)            (au)                
   ---------------------------------------------------------------
   H           0.595          2.081          1.362          0.30262625
   H           0.594          2.080          1.361          0.30235171
   C          29.069          3.319          9.478          0.78980115
   O          13.642          3.123          5.050          0.93513534
   O          26.387          3.486          7.023          1.30057479

  vdW correction parametrized for the method pbe       

  IVDW =  21
  VDW_RADIUS =    50.000 A
  VDW_IDAMPF =  0
  VDW_S6 =     1.000
  VDW_SR =     0.950
  VDW_D =    20.000
  LVDW_ONECELL = F F F
  LVDW_SAMETYPE T T T
  LVDW_EWALD = F

  Number of pair interactions contributing to vdW energy:     234
  Edisp (eV):   -0.00477
    FORVDW:  cpu time  100.6982: real time  100.7612

  FORCE on cell =-STRESS in cart. coord.  units (eV):
  Direction    XX          YY          ZZ          XY          YZ          ZX
  --------------------------------------------------------------------------------------
  Alpha Z     0.03011     0.03011     0.03011
  Ewald     -63.51206   569.07638    58.96763     2.67807     2.12793    -1.41623
  Hartree   350.88702   717.63066   372.38330     0.60937     0.17488    -0.24938
  E(xc)     -80.54217   -79.13749   -80.05218     0.01069     0.00918    -0.00571
  Local    -531.53308 -1483.11199  -639.21598    -2.53262    -1.57453     1.24469
  n-local   -49.23901   -61.03801   -48.66471    -0.00980     0.03933    -0.00564
  augment    14.40734    12.48014    12.00625    -0.05134    -0.04651     0.02791
  Kinetic   359.49155   324.82553   325.23082    -0.69289    -0.71202     0.39642
  Fock        0.00000     0.00000     0.00000     0.00000     0.00000     0.00000
  vdW        -0.00000    -0.02544     0.00093    -0.00001     0.00009    -0.00001
  -------------------------------------------------------------------------------------
  Total      -0.01030     0.72989     0.68617     0.01145     0.01834    -0.00794
  in kB      -0.00038     0.02727     0.02564     0.00043     0.00069    -0.00030
  external pressure =        0.02 kB  Pullay stress =        0.00 kB


 VOLUME and BASIS-vectors are now :
 -----------------------------------------------------------------------------
  energy-cutoff  :     1000.00
  volume of cell :    42875.00
      direct lattice vectors                 reciprocal lattice vectors
    35.000000000  0.000000000  0.000000000     0.028571429  0.000000000  0.000000000
     0.000000000 35.000000000  0.000000000     0.000000000  0.028571429  0.000000000
     0.000000000  0.000000000 35.000000000     0.000000000  0.000000000  0.028571429

  length of vectors
    35.000000000 35.000000000 35.000000000     0.028571429  0.028571429  0.028571429


 FORCES acting on ions
    electron-ion (+dipol)            ewald-force                    non-local-force                 convergence-correction
 -----------------------------------------------------------------------------------------------
   -.272E+01 -.545E+02 0.759E+02   0.299E+01 0.595E+02 -.836E+02   -.260E+00 -.474E+01 0.721E+01   -.159E-07 -.494E-06 0.661E-06
   -.116E+01 -.612E+02 -.709E+02   0.128E+01 0.669E+02 0.780E+02   -.113E+00 -.541E+01 -.674E+01   -.137E-08 -.548E-06 -.635E-06
   0.136E-01 0.255E+03 -.255E-01   -.135E-01 -.283E+03 0.252E-01   -.181E-03 0.279E+02 0.688E-03   0.100E-05 0.154E-05 -.269E-06
   0.371E-01 -.164E+03 -.681E-01   -.396E-01 0.224E+03 0.785E-01   0.261E-02 -.602E+02 -.111E-01   0.135E-05 0.264E-05 -.377E-06
   0.237E+01 0.173E+02 -.304E+01   -.422E+01 -.674E+02 0.540E+01   0.182E+01 0.496E+02 -.233E+01   0.471E-07 -.124E-05 -.126E-06
 -----------------------------------------------------------------------------------------------
   -.145E+01 -.717E+01 0.187E+01   0.000E+00 0.711E-13 -.799E-14   0.145E+01 0.717E+01 -.187E+01   0.238E-05 0.190E-05 -.745E-06
 
 
 POSITION                                       TOTAL-FORCE (eV/Angst)
 -----------------------------------------------------------------------------------
      0.02970      5.68138     34.21499         0.014903      0.250142     -0.472480
      0.01365      5.75327      0.72944         0.005125      0.294273      0.446782
      0.00000      0.08826      0.00000        -0.000081     -0.384119      0.000424
      0.00000      1.22721      0.00000         0.000116      0.388800     -0.000674
      0.00000      5.12721      0.00000        -0.020063     -0.549095      0.025949
 -----------------------------------------------------------------------------------
    total drift:                               -0.000010     -0.000205      0.000018


--------------------------------------------------------------------------------------------------------



  FREE ENERGIE OF THE ION-ELECTRON SYSTEM (eV)
  ---------------------------------------------------
  free  energy   TOTEN  =       -29.04871951 eV

  energy  without entropy=      -29.04871951  energy(sigma->0) =      -29.04871951
 


--------------------------------------------------------------------------------------------------------


    POTLOK:  cpu time   15.4849: real time   15.5103


--------------------------------------------------------------------------------------------------------


 writing wavefunctions
     LOOP+:  cpu time 1716.4130: real time 1720.7462
    4ORBIT:  cpu time    0.0000: real time    0.0000

 total amount of memory used by VASP MPI-rank0  4191804. kBytes
=======================================================================

   base      :      30000. kBytes
   nonl-proj :     418671. kBytes
   fftplans  :     676185. kBytes
   grid      :    3042313. kBytes
   one-center:          7. kBytes
   wavefun   :      24628. kBytes
 
  
  
 General timing and accounting informations for this job:
 ========================================================
  
                  Total CPU time used (sec):     3150.839
                            User time (sec):     2951.195
                          System time (sec):      199.644
                         Elapsed time (sec):     3173.368
  
                   Maximum memory used (kb):     5567256.
                   Average memory used (kb):           0.
  
                          Minor page faults:     79768431
                          Major page faults:          843
                 Voluntary context switches:        14521
