 vasp.6.1.2 22Jul20 (build Jan  6 2021 09:55:43) gamma-only                      
 executed on             LinuxPGI date 2023.10.20  07:14:34
 running on   32 total cores
 distrk:  each k-point on   32 cores,    1 groups
 distr:  one band on NCORE=   1 cores,   32 groups


--------------------------------------------------------------------------------------------------------


 INCAR:
 POTCAR:    PAW_PBE H 15Jun2001                   
 POTCAR:    PAW_PBE C 08Apr2002                   
 POTCAR:    PAW_PBE O 08Apr2002                   
 -----------------------------------------------------------------------------
|                                                                             |
|           W    W    AA    RRRRR   N    N  II  N    N   GGGG   !!!           |
|           W    W   A  A   R    R  NN   N  II  NN   N  G    G  !!!           |
|           W    W  A    A  R    R  N N  N  II  N N  N  G       !!!           |
|           W WW W  AAAAAA  RRRRR   N  N N  II  N  N N  G  GGG   !            |
|           WW  WW  A    A  R   R   N   NN  II  N   NN  G    G                |
|           W    W  A    A  R    R  N    N  II  N    N   GGGG   !!!           |
|                                                                             |
|     For optimal performance we recommend to set                             |
|       NCORE = 4 - approx SQRT(number of cores).                             |
|     NCORE specifies how many cores store one orbital (NPAR=cpu/NCORE).      |
|     This setting can greatly improve the performance of VASP for DFT.       |
|     The default, NCORE=1 might be grossly inefficient on modern             |
|     multi-core architectures or massively parallel machines. Do your        |
|     own testing!!!!                                                         |
|     Unfortunately you need to use the default for GW and RPA                |
|     calculations (for HF NCORE is supported but not extensively tested      |
|     yet).                                                                   |
|                                                                             |
 -----------------------------------------------------------------------------

 POTCAR:    PAW_PBE H 15Jun2001                   
   VRHFIN =H: ultrasoft test                                                                        
   LEXCH  = PE                                                                                      
   EATOM  =    12.4884 eV,    0.9179 Ry                                                             
                                                                                                    
   TITEL  = PAW_PBE H 15Jun2001                                                                     
   LULTRA =        F    use ultrasoft PP ?                                                          
   IUNSCR =        0    unscreen: 0-lin 1-nonlin 2-no                                               
   RPACOR =    0.000    partial core radius                                                         
   POMASS =    1.000; ZVAL   =    1.000    mass and valenz                                          
   RCORE  =    1.100    outmost cutoff radius                                                       
   RWIGS  =    0.700; RWIGS  =    0.370    wigner-seitz radius (au A)                               
   ENMAX  =  250.000; ENMIN  =  200.000 eV                                                          
   RCLOC  =    0.701    cutoff for local pot                                                        
   LCOR   =        T    correct aug charges                                                         
   LPAW   =        T    paw PP                                                                      
   EAUG   =  400.000                                                                                
   RMAX   =    1.123    core radius for proj-oper                                                   
   RAUG   =    1.200    factor for augmentation sphere                                              
   RDEP   =    1.112    radius for radial grids                                                     
   RDEPT  =    0.926    core radius for aug-charge                                                  
                                                                                                    
   Atomic configuration                                                                             
    2 entries                                                                                       
     n  l   j            E        occ.                                                              
     1  0  0.50        -6.4927   1.0000                                                             
     2  1  0.50        -3.4015   0.0000                                                             
   Description                                                                                      
     l       E           TYP  RCUT    TYP  RCUT                                                     
     0     -6.4927494     23  1.100                                                                 
     0      6.8029130     23  1.100                                                                 
     1     -4.0817478     23  1.100                                                                 
  local pseudopotential read in
  atomic valenz-charges read in
  non local Contribution for L=            0  read in
    real space projection operators read in
  non local Contribution for L=            0  read in
    real space projection operators read in
  non local Contribution for L=            1  read in
    real space projection operators read in
    PAW grid and wavefunctions read in
 
   number of l-projection  operators is LMAX  =            3
   number of lm-projection operators is LMMAX =            5
 
 POTCAR:    PAW_PBE C 08Apr2002                   
   VRHFIN =C: s2p2                                                                                  
   LEXCH  = PE                                                                                      
   EATOM  =   147.1560 eV,   10.8157 Ry                                                             
                                                                                                    
   TITEL  = PAW_PBE C 08Apr2002                                                                     
   LULTRA =        F    use ultrasoft PP ?                                                          
   IUNSCR =        1    unscreen: 0-lin 1-nonlin 2-no                                               
   RPACOR =    1.200    partial core radius                                                         
   POMASS =   12.011; ZVAL   =    4.000    mass and valenz                                          
   RCORE  =    1.500    outmost cutoff radius                                                       
   RWIGS  =    1.630; RWIGS  =    0.863    wigner-seitz radius (au A)                               
   ENMAX  =  400.000; ENMIN  =  300.000 eV                                                          
   ICORE  =        2    local potential                                                             
   LCOR   =        T    correct aug charges                                                         
   LPAW   =        T    paw PP                                                                      
   EAUG   =  644.873                                                                                
   DEXC   =    0.000                                                                                
   RMAX   =    1.529    core radius for proj-oper                                                   
   RAUG   =    1.300    factor for augmentation sphere                                              
   RDEP   =    1.501    radius for radial grids                                                     
   RDEPT  =    1.300    core radius for aug-charge                                                  
                                                                                                    
   Atomic configuration                                                                             
    4 entries                                                                                       
     n  l   j            E        occ.                                                              
     1  0  0.50      -273.3789   2.0000                                                             
     2  0  0.50       -13.7508   2.0000                                                             
     2  1  0.50        -5.2854   2.0000                                                             
     3  2  1.50        -5.4423   0.0000                                                             
   Description                                                                                      
     l       E           TYP  RCUT    TYP  RCUT                                                     
     0    -13.7508458     23  1.200                                                                 
     0     -8.2022199     23  1.200                                                                 
     1     -5.2854383     23  1.500                                                                 
     1     34.0145650     23  1.500                                                                 
     2     -5.4423304      7  1.500                                                                 
  local pseudopotential read in
  partial core-charges read in
  partial kinetic energy density read in
  atomic valenz-charges read in
  non local Contribution for L=            0  read in
    real space projection operators read in
  non local Contribution for L=            0  read in
    real space projection operators read in
  non local Contribution for L=            1  read in
    real space projection operators read in
  non local Contribution for L=            1  read in
    real space projection operators read in
    PAW grid and wavefunctions read in
 
   number of l-projection  operators is LMAX  =            4
   number of lm-projection operators is LMMAX =            8
 
 POTCAR:    PAW_PBE O 08Apr2002                   
   VRHFIN =O: s2p4                                                                                  
   LEXCH  = PE                                                                                      
   EATOM  =   432.3788 eV,   31.7789 Ry                                                             
                                                                                                    
   TITEL  = PAW_PBE O 08Apr2002                                                                     
   LULTRA =        F    use ultrasoft PP ?                                                          
   IUNSCR =        1    unscreen: 0-lin 1-nonlin 2-no                                               
   RPACOR =    1.200    partial core radius                                                         
   POMASS =   16.000; ZVAL   =    6.000    mass and valenz                                          
   RCORE  =    1.520    outmost cutoff radius                                                       
   RWIGS  =    1.550; RWIGS  =    0.820    wigner-seitz radius (au A)                               
   ENMAX  =  400.000; ENMIN  =  300.000 eV                                                          
   ICORE  =        2    local potential                                                             
   LCOR   =        T    correct aug charges                                                         
   LPAW   =        T    paw PP                                                                      
   EAUG   =  605.392                                                                                
   DEXC   =    0.000                                                                                
   RMAX   =    1.553    core radius for proj-oper                                                   
   RAUG   =    1.300    factor for augmentation sphere                                              
   RDEP   =    1.550    radius for radial grids                                                     
   RDEPT  =    1.329    core radius for aug-charge                                                  
                                                                                                    
   Atomic configuration                                                                             
    4 entries                                                                                       
     n  l   j            E        occ.                                                              
     1  0  0.50      -514.6923   2.0000                                                             
     2  0  0.50       -23.9615   2.0000                                                             
     2  1  0.50        -9.0305   4.0000                                                             
     3  2  1.50        -9.5241   0.0000                                                             
   Description                                                                                      
     l       E           TYP  RCUT    TYP  RCUT                                                     
     0    -23.9615318     23  1.200                                                                 
     0     -9.5240782     23  1.200                                                                 
     1     -9.0304911     23  1.520                                                                 
     1      8.1634956     23  1.520                                                                 
     2     -9.5240782      7  1.500                                                                 
  local pseudopotential read in
  partial core-charges read in
  partial kinetic energy density read in
  kinetic energy density of atom read in
  atomic valenz-charges read in
  non local Contribution for L=            0  read in
    real space projection operators read in
  non local Contribution for L=            0  read in
    real space projection operators read in
  non local Contribution for L=            1  read in
    real space projection operators read in
  non local Contribution for L=            1  read in
    real space projection operators read in
    PAW grid and wavefunctions read in
 
   number of l-projection  operators is LMAX  =            4
   number of lm-projection operators is LMMAX =            8
 
  PAW_PBE H 15Jun2001                   :
 energy of atom  1       EATOM=  -12.4884
 kinetic energy error for atom=    0.0001 (will be added to EATOM!!)
  PAW_PBE C 08Apr2002                   :
 energy of atom  2       EATOM= -147.1560
 kinetic energy error for atom=    0.0010 (will be added to EATOM!!)
  PAW_PBE O 08Apr2002                   :
 energy of atom  3       EATOM= -432.3788
 kinetic energy error for atom=    0.0022 (will be added to EATOM!!)
 
 
 POSCAR:  H  C  O
  positions in cartesian coordinates
  No initial velocities read in
 exchange correlation table for  LEXCH =        8
   RHO(1)=    0.500       N(1)  =     2000
   RHO(2)=  100.500       N(2)  =     4000
 


--------------------------------------------------------------------------------------------------------


 ion  position               nearest neighbor table
   1  0.001  0.111  0.978-   5 0.96
   2  0.000  0.113  0.021-   5 0.96
   3  0.000  0.003  0.000-   4 1.14
   4  0.000  0.035  0.000-   3 1.14
   5  0.000  0.095  0.000-   2 0.96   1 0.96
 
  LATTYP: Found a simple cubic cell.
 ALAT       =    35.0000000000
  
  Lattice vectors:
  
 A1 = (  35.0000000000,   0.0000000000,   0.0000000000)
 A2 = (   0.0000000000,  35.0000000000,   0.0000000000)
 A3 = (   0.0000000000,   0.0000000000,  35.0000000000)


Analysis of symmetry for initial positions (statically):
=====================================================================
 Subroutine PRICEL returns:
 Original cell was already a primitive cell.
 

 Routine SETGRP: Setting up the symmetry group for a 
 simple cubic supercell.


 Subroutine GETGRP returns: Found  1 space group operations
 (whereof  1 operations were pure point group operations)
 out of a pool of 48 trial point group operations.


The static configuration has the point symmetry C_1 .


Analysis of symmetry for dynamics (positions and initial velocities):
=====================================================================
 Subroutine PRICEL returns:
 Original cell was already a primitive cell.
 

 Routine SETGRP: Setting up the symmetry group for a 
 simple cubic supercell.


 Subroutine GETGRP returns: Found  1 space group operations
 (whereof  1 operations were pure point group operations)
 out of a pool of 48 trial point group operations.


The dynamic configuration has the point symmetry C_1 .


 Subroutine INISYM returns: Found  1 space group operations
 (whereof  1 operations are pure point group operations),
 and found     1 'primitive' translations


----------------------------------------------------------------------------------------

                                     Primitive cell                                     

  volume of cell :   42875.0000

  direct lattice vectors                    reciprocal lattice vectors
    35.000000000  0.000000000  0.000000000     0.028571429  0.000000000  0.000000000
     0.000000000 35.000000000  0.000000000     0.000000000  0.028571429  0.000000000
     0.000000000  0.000000000 35.000000000     0.000000000  0.000000000  0.028571429

  length of vectors
    35.000000000 35.000000000 35.000000000     0.028571429  0.028571429  0.028571429

  position of ions in fractional coordinates (direct lattice)
     0.000848682  0.110896499  0.977571084
     0.000390051  0.112950672  0.020841195
     0.000000000  0.002521600  0.000000000
     0.000000000  0.035063029  0.000000000
     0.000000000  0.095063029  0.000000000

  ion indices of the primitive-cell ions
   primitive index   ion index
                 1           1
                 2           2
                 3           3
                 4           4
                 5           5

----------------------------------------------------------------------------------------

 
 
 KPOINTS: g                                       

Automatic generation of k-mesh.
Space group operators:
 irot       det(A)        alpha          n_x          n_y          n_z        tau_x        tau_y        tau_z
    1     1.000000     0.000000     1.000000     0.000000     0.000000     0.000000     0.000000     0.000000
 
 Subroutine IBZKPT returns following result:
 ===========================================
 
 Found      1 irreducible k-points:
 
 Following reciprocal coordinates:
            Coordinates               Weight
  0.000000  0.000000  0.000000      1.000000
 
 Following cartesian coordinates:
            Coordinates               Weight
  0.000000  0.000000  0.000000      1.000000
 


--------------------------------------------------------------------------------------------------------




 Dimension of arrays:
   k-points           NKPTS =      1   k-points in BZ     NKDIM =      1   number of bands    NBANDS=     32
   number of dos      NEDOS =    301   number of ions     NIONS =      5
   non local maximal  LDIM  =      4   non local SUM 2l+1 LMDIM =      8
   total plane-waves  NPLWV = ******
   max r-space proj   IRMAX =      1   max aug-charges    IRDMAX=  16541
   dimension x,y,z NGX =   378 NGY =  378 NGZ =  378
   dimension x,y,z NGXF=   756 NGYF=  756 NGZF=  756
   support grid    NGXF=   756 NGYF=  756 NGZF=  756
   ions per type =               2   1   2
   NGX,Y,Z   is equivalent  to a cutoff of  17.95, 17.95, 17.95 a.u.
   NGXF,Y,Z  is equivalent  to a cutoff of  35.91, 35.91, 35.91 a.u.

 SYSTEM =  C                                       
 POSCAR =   H  C  O                                

 Startparameter for this run:
   NWRITE =      2    write-flag & timer
   PREC   = acc       normal or accurate (medium, high low for compatibility)
   ISTART =      0    job   : 0-new  1-cont  2-samecut
   ICHARG =      2    charge: 1-file 2-atom 10-const
   ISPIN  =      1    spin polarized calculation?
   LNONCOLLINEAR =      F non collinear calculations
   LSORBIT =      F    spin-orbit coupling
   INIWAV =      1    electr: 0-lowe 1-rand  2-diag
   LASPH  =      T    aspherical Exc in radial PAW
   METAGGA=      F    non-selfconsistent MetaGGA calc.

 Electronic Relaxation 1
   ENCUT  = 1000.0 eV  73.50 Ry    8.57 a.u.  90.25 90.25 90.25*2*pi/ulx,y,z
   ENINI  = 1000.0     initial cutoff
   ENAUG  =  644.9 eV  augmentation charge cutoff
   NELM   =     60;   NELMIN=  2; NELMDL= -5     # of ELM steps 
   EDIFF  = 0.1E-06   stopping-criterion for ELM
   LREAL  =      F    real-space projection
   NLSPLINE    = F    spline interpolate recip. space projectors
   LCOMPAT=      F    compatible to vasp.4.4
   GGA_COMPAT  = T    GGA compatible to vasp.4.4-vasp.4.6
   LMAXPAW     = -100 max onsite density
   LMAXMIX     =    2 max onsite mixed and CHGCAR
   VOSKOWN=      0    Vosko Wilk Nusair interpolation
   ROPT   =    0.00000   0.00000   0.00000
 Ionic relaxation
   EDIFFG = 0.1E-05   stopping-criterion for IOM
   NSW    =      0    number of steps for IOM
   NBLOCK =      1;   KBLOCK =      1    inner block; outer block 
   IBRION =     -1    ionic relax: 0-MD 1-quasi-New 2-CG
   NFREE  =      0    steps in history (QN), initial steepest desc. (CG)
   ISIF   =      2    stress and relaxation
   IWAVPR =     10    prediction:  0-non 1-charg 2-wave 3-comb
   ISYM   =      2    0-nonsym 1-usesym 2-fastsym
   LCORR  =      T    Harris-Foulkes like correction to forces

   POTIM  = 0.5000    time-step for ionic-motion
   TEIN   =    0.0    initial temperature
   TEBEG  =    0.0;   TEEND  =   0.0 temperature during run
   SMASS  =  -3.00    Nose mass-parameter (am)
   estimated Nose-frequenzy (Omega)   =  0.10E-29 period in steps = 0.13E+47 mass=  -0.280E-25a.u.
   SCALEE = 1.0000    scale energy and forces
   NPACO  =    256;   APACO  = 16.0  distance and # of slots for P.C.
   PSTRESS=    0.0 pullay stress

  Mass of Ions in am
   POMASS =   1.00 12.01 16.00
  Ionic Valenz
   ZVAL   =   1.00  4.00  6.00
  Atomic Wigner-Seitz radii
   RWIGS  =  -1.00 -1.00 -1.00
  virtual crystal weights 
   VCA    =   1.00  1.00  1.00
   NELECT =      18.0000    total number of electrons
   NUPDOWN=      -1.0000    fix difference up-down

 DOS related values:
   EMIN   =  10.00;   EMAX   =-10.00  energy-range for DOS
   EFERMI =   0.00
   ISMEAR =     0;   SIGMA  =   0.01  broadening in eV -4-tet -1-fermi 0-gaus

 Electronic relaxation 2 (details)
   IALGO  =     38    algorithm
   LDIAG  =      T    sub-space diagonalisation (order eigenvalues)
   LSUBROT=      F    optimize rotation matrix (better conditioning)
   TURBO    =      0    0=normal 1=particle mesh
   IRESTART =      0    0=no restart 2=restart with 2 vectors
   NREBOOT  =      0    no. of reboots
   NMIN     =      0    reboot dimension
   EREF     =   0.00    reference energy to select bands
   IMIX   =      4    mixing-type and parameters
     AMIX     =   0.40;   BMIX     =  1.00
     AMIX_MAG =   1.60;   BMIX_MAG =  1.00
     AMIN     =   0.10
     WC   =   100.;   INIMIX=   1;  MIXPRE=   1;  MAXMIX= -45

 Intra band minimization:
   WEIMIN = 0.0000     energy-eigenvalue tresh-hold
   EBREAK =  0.78E-09  absolut break condition
   DEPER  =   0.30     relativ break condition  

   TIME   =   0.40     timestep for ELM

  volume/ion in A,a.u.               =    8575.00     57866.96
  Fermi-wavevector in a.u.,A,eV,Ry     =   0.122583  0.231649  0.204450  0.015027
  Thomas-Fermi vector in A             =   0.746568
 
 Write flags
   LWAVE        =      T    write WAVECAR
   LDOWNSAMPLE  =      F    k-point downsampling of WAVECAR
   LCHARG       =      T    write CHGCAR
   LVTOT        =      F    write LOCPOT, total local potential
   LVHAR        =      F    write LOCPOT, Hartree potential only
   LELF         =      F    write electronic localiz. function (ELF)
   LORBIT       =      0    0 simple, 1 ext, 2 COOP (PROOUT), +10 PAW based schemes


 Dipole corrections
   LMONO  =      F    monopole corrections only (constant potential shift)
   LDIPOL =      F    correct potential (dipole corrections)
   IDIPOL =      4    1-x, 2-y, 3-z, 4-all directions 
   EPSILON=  1.0000000 bulk dielectric constant

 Exchange correlation treatment:
   GGA     =    --    GGA type
   LEXCH   =     8    internal setting for exchange type
   VOSKOWN=      0    Vosko Wilk Nusair interpolation
   LHFCALC =     F    Hartree Fock is set to
   LHFONE  =     F    Hartree Fock one center treatment
   AEXX    =    0.0000 exact exchange contribution

 Linear response parameters
   LEPSILON=     F    determine dielectric tensor
   LRPA    =     F    only Hartree local field effects (RPA)
   LNABLA  =     F    use nabla operator in PAW spheres
   LVEL    =     F    velocity operator in full k-point grid
   LINTERFAST=   F  fast interpolation
   KINTER  =     0    interpolate to denser k-point grid
   CSHIFT  =0.1000    complex shift for real part using Kramers Kronig
   OMEGAMAX=  -1.0    maximum frequency
   DEG_THRESHOLD= 0.2000000E-02 threshold for treating states as degnerate
   RTIME   =   -0.100 relaxation time in fs
  (WPLASMAI=    0.000 imaginary part of plasma frequency in eV, 0.658/RTIME)
   DFIELD  = 0.0000000 0.0000000 0.0000000 field for delta impulse in time
 
 Orbital magnetization related:
   ORBITALMAG=     F  switch on orbital magnetization
   LCHIMAG   =     F  perturbation theory with respect to B field
   DQ        =  0.001000  dq finite difference perturbation B field
   LLRAUG    =     F  two centre corrections for induced B field



--------------------------------------------------------------------------------------------------------


 Static calculation
 charge density and potential will be updated during run
 non-spin polarized calculation
 Variant of blocked Davidson
 Davidson routine will perform the subspace rotation
 perform sub-space diagonalisation
    after iterative eigenvector-optimisation
 modified Broyden-mixing scheme, WC =      100.0
 initial mixing is a Kerker type mixing with AMIX =  0.4000 and BMIX =      1.0000
 Hartree-type preconditioning will be used
 using additional bands            23
 reciprocal scheme for non local part
 use partial core corrections
 calculate Harris-corrections to forces 
   (improved forces if not selfconsistent)
 use gradient corrections 
 use of overlap-Matrix (Vanderbilt PP)
 Gauss-broadening in eV      SIGMA  =   0.01


--------------------------------------------------------------------------------------------------------


  energy-cutoff  :     1000.00
  volume of cell :    42875.00
      direct lattice vectors                 reciprocal lattice vectors
    35.000000000  0.000000000  0.000000000     0.028571429  0.000000000  0.000000000
     0.000000000 35.000000000  0.000000000     0.000000000  0.028571429  0.000000000
     0.000000000  0.000000000 35.000000000     0.000000000  0.000000000  0.028571429

  length of vectors
    35.000000000 35.000000000 35.000000000     0.028571429  0.028571429  0.028571429


 
 k-points in units of 2pi/SCALE and weight: g                                       
   0.00000000  0.00000000  0.00000000       1.000
 
 k-points in reciprocal lattice and weights: g                                       
   0.00000000  0.00000000  0.00000000       1.000
 
 position of ions in fractional coordinates (direct lattice) 
   0.00084868  0.11089650  0.97757108
   0.00039005  0.11295067  0.02084119
   0.00000000  0.00252160  0.00000000
   0.00000000  0.03506303  0.00000000
   0.00000000  0.09506303  0.00000000
 
 position of ions in cartesian coordinates  (Angst):
   0.02970387  3.88137746 34.21498793
   0.01365177  3.95327352  0.72944182
   0.00000000  0.08825600  0.00000000
   0.00000000  1.22720600  0.00000000
   0.00000000  3.32720600  0.00000000
 


--------------------------------------------------------------------------------------------------------


 use serial FFT for orbitals x direction half grid
 k-point   1 :   0.0000 0.0000 0.0000  plane waves: 1539209

 maximum and minimum number of plane-waves per node :   1539209  1539209

 maximum number of plane-waves:   1539209
 maximum index in each direction: 
   IXMAX=   90   IYMAX=   90   IZMAX=   90
   IXMIN=    0   IYMIN=  -90   IZMIN=  -90


 serial   3D FFT for wavefunctions
 parallel 3D FFT for charge:
    minimum data exchange during FFTs selected (reduces bandwidth)


 total amount of memory used by VASP MPI-rank0  4191804. kBytes
=======================================================================

   base      :      30000. kBytes
   nonl-proj :     418671. kBytes
   fftplans  :     676185. kBytes
   grid      :    3042313. kBytes
   one-center:          7. kBytes
   wavefun   :      24628. kBytes
 
     INWAV:  cpu time    0.0000: real time    0.0000
 Broyden mixing: mesh for mixing (old mesh)
   NGX =181   NGY =181   NGZ =181
  (NGX  =756   NGY  =756   NGZ  =756)
  gives a total of ****** points

 initial charge density was supplied:
 charge density of overlapping atoms calculated
 number of electron      18.0000000 magnetization 
 keeping initial charge density in first step


--------------------------------------------------------------------------------------------------------


 Maximum index for augmentation-charges           764 (set IRDMAX)


--------------------------------------------------------------------------------------------------------


 First call to EWALD:  gamma=   0.051
 Maximum number of real-space cells 3x 3x 3
 Maximum number of reciprocal cells 3x 3x 3

    FEWALD:  cpu time    0.0011: real time    0.0011


--------------------------------------- Iteration      1(   1)  ---------------------------------------


    POTLOK:  cpu time   13.0383: real time   13.0597
    SETDIJ:  cpu time    0.0406: real time    0.0410
     EDDAV:  cpu time   14.7298: real time   14.7743
       DOS:  cpu time    0.0123: real time    0.0123
    --------------------------------------------
      LOOP:  cpu time   27.8210: real time   27.8873

 eigenvalue-minimisations  :    96
 total energy-change (2. order) : 0.1599249E+03  (-0.2948543E+03)
 number of electron      18.0000000 magnetization 
 augmentation part       18.0000000 magnetization 

 Free energy of the ion-electron system (eV)
  ---------------------------------------------------
  alpha Z        PSCENC =         0.03011286
  Ewald energy   TEWEN  =       748.93646226
  -Hartree energ DENC   =     -1564.75114284
  -exchange      EXHF   =         0.00000000
  -V(xc)+E(xc)   XCENC  =        71.69812703
  PAW double counting   =       805.88905503     -810.07355774
  entropy T*S    EENTRO =        -0.00000000
  eigenvalues    EBANDS =      -128.68903847
  atomic energy  EATOM  =      1036.88490136
  Solvation  Ediel_sol  =         0.00000000
  ---------------------------------------------------
  free energy    TOTEN  =       159.92491949 eV

  energy without entropy =      159.92491949  energy(sigma->0) =      159.92491949


--------------------------------------------------------------------------------------------------------




--------------------------------------- Iteration      1(   2)  ---------------------------------------


     EDDAV:  cpu time   18.3335: real time   18.3808
       DOS:  cpu time    0.0095: real time    0.0095
    --------------------------------------------
      LOOP:  cpu time   18.3429: real time   18.3903

 eigenvalue-minimisations  :   128
 total energy-change (2. order) :-0.1282284E+03  (-0.1282284E+03)
 number of electron      18.0000000 magnetization 
 augmentation part       18.0000000 magnetization 

 Free energy of the ion-electron system (eV)
  ---------------------------------------------------
  alpha Z        PSCENC =         0.03011286
  Ewald energy   TEWEN  =       748.93646226
  -Hartree energ DENC   =     -1564.75114284
  -exchange      EXHF   =         0.00000000
  -V(xc)+E(xc)   XCENC  =        71.69812703
  PAW double counting   =       805.88905503     -810.07355774
  entropy T*S    EENTRO =        -0.00000000
  eigenvalues    EBANDS =      -256.91740063
  atomic energy  EATOM  =      1036.88490136
  Solvation  Ediel_sol  =         0.00000000
  ---------------------------------------------------
  free energy    TOTEN  =        31.69655733 eV

  energy without entropy =       31.69655733  energy(sigma->0) =       31.69655733


--------------------------------------------------------------------------------------------------------




--------------------------------------- Iteration      1(   3)  ---------------------------------------


     EDDAV:  cpu time   11.2016: real time   11.2267
       DOS:  cpu time    0.0101: real time    0.0101
    --------------------------------------------
      LOOP:  cpu time   11.2116: real time   11.2367

 eigenvalue-minimisations  :    64
 total energy-change (2. order) :-0.5705618E+02  (-0.5705618E+02)
 number of electron      18.0000000 magnetization 
 augmentation part       18.0000000 magnetization 

 Free energy of the ion-electron system (eV)
  ---------------------------------------------------
  alpha Z        PSCENC =         0.03011286
  Ewald energy   TEWEN  =       748.93646226
  -Hartree energ DENC   =     -1564.75114284
  -exchange      EXHF   =         0.00000000
  -V(xc)+E(xc)   XCENC  =        71.69812703
  PAW double counting   =       805.88905503     -810.07355774
  entropy T*S    EENTRO =        -0.00000000
  eigenvalues    EBANDS =      -313.97358075
  atomic energy  EATOM  =      1036.88490136
  Solvation  Ediel_sol  =         0.00000000
  ---------------------------------------------------
  free energy    TOTEN  =       -25.35962279 eV

  energy without entropy =      -25.35962279  energy(sigma->0) =      -25.35962279


--------------------------------------------------------------------------------------------------------




--------------------------------------- Iteration      1(   4)  ---------------------------------------


     EDDAV:  cpu time   18.3585: real time   18.3943
       DOS:  cpu time    0.0100: real time    0.0100
    --------------------------------------------
      LOOP:  cpu time   18.3685: real time   18.4043

 eigenvalue-minimisations  :   128
 total energy-change (2. order) :-0.6018906E+01  (-0.6018906E+01)
 number of electron      18.0000000 magnetization 
 augmentation part       18.0000000 magnetization 

 Free energy of the ion-electron system (eV)
  ---------------------------------------------------
  alpha Z        PSCENC =         0.03011286
  Ewald energy   TEWEN  =       748.93646226
  -Hartree energ DENC   =     -1564.75114284
  -exchange      EXHF   =         0.00000000
  -V(xc)+E(xc)   XCENC  =        71.69812703
  PAW double counting   =       805.88905503     -810.07355774
  entropy T*S    EENTRO =        -0.00000000
  eigenvalues    EBANDS =      -319.99248649
  atomic energy  EATOM  =      1036.88490136
  Solvation  Ediel_sol  =         0.00000000
  ---------------------------------------------------
  free energy    TOTEN  =       -31.37852853 eV

  energy without entropy =      -31.37852853  energy(sigma->0) =      -31.37852853


--------------------------------------------------------------------------------------------------------




--------------------------------------- Iteration      1(   5)  ---------------------------------------


     EDDAV:  cpu time   11.1448: real time   11.1760
       DOS:  cpu time    0.0067: real time    0.0067
    CHARGE:  cpu time    5.1850: real time    5.1993
    MIXING:  cpu time    0.2402: real time    0.2406
    --------------------------------------------
      LOOP:  cpu time   16.5767: real time   16.6226

 eigenvalue-minimisations  :    64
 total energy-change (2. order) :-0.1150258E-01  (-0.1150260E-01)
 number of electron      17.9999999 magnetization 
 augmentation part        1.5760004 magnetization 

 Broyden mixing:
  rms(total) = 0.10948E+01    rms(broyden)= 0.10948E+01
  rms(prec ) = 0.11236E+01
  weight for this iteration     100.00

 Free energy of the ion-electron system (eV)
  ---------------------------------------------------
  alpha Z        PSCENC =         0.03011286
  Ewald energy   TEWEN  =       748.93646226
  -Hartree energ DENC   =     -1564.75114284
  -exchange      EXHF   =         0.00000000
  -V(xc)+E(xc)   XCENC  =        71.69812703
  PAW double counting   =       805.88905503     -810.07355774
  entropy T*S    EENTRO =        -0.00000000
  eigenvalues    EBANDS =      -320.00398907
  atomic energy  EATOM  =      1036.88490136
  Solvation  Ediel_sol  =         0.00000000
  ---------------------------------------------------
  free energy    TOTEN  =       -31.39003111 eV

  energy without entropy =      -31.39003111  energy(sigma->0) =      -31.39003111


--------------------------------------------------------------------------------------------------------




--------------------------------------- Iteration      1(   6)  ---------------------------------------


    POTLOK:  cpu time   12.7956: real time   12.8203
    SETDIJ:  cpu time    0.0400: real time    0.0401
     EDDAV:  cpu time   11.1667: real time   11.1918
       DOS:  cpu time    0.0035: real time    0.0035
    CHARGE:  cpu time    5.0786: real time    5.0853
    MIXING:  cpu time    0.2273: real time    0.2301
    --------------------------------------------
      LOOP:  cpu time   29.3117: real time   29.3712

 eigenvalue-minimisations  :    64
 total energy-change (2. order) : 0.2696604E+01  (-0.1457094E+01)
 number of electron      17.9999999 magnetization 
 augmentation part        1.3398630 magnetization 

 Broyden mixing:
  rms(total) = 0.51152E+00    rms(broyden)= 0.51152E+00
  rms(prec ) = 0.51896E+00
  weight for this iteration     100.00

 eigenvalues of (default mixing * dielectric matrix)
  average eigenvalue GAMMA=   0.9642
  0.9642

 Free energy of the ion-electron system (eV)
  ---------------------------------------------------
  alpha Z        PSCENC =         0.03011286
  Ewald energy   TEWEN  =       748.93646226
  -Hartree energ DENC   =     -1606.51041954
  -exchange      EXHF   =         0.00000000
  -V(xc)+E(xc)   XCENC  =        73.86831097
  PAW double counting   =      1044.69129620    -1049.42430639
  entropy T*S    EENTRO =        -0.00000000
  eigenvalues    EBANDS =      -277.16978503
  atomic energy  EATOM  =      1036.88490136
  Solvation  Ediel_sol  =         0.00000000
  ---------------------------------------------------
  free energy    TOTEN  =       -28.69342729 eV

  energy without entropy =      -28.69342729  energy(sigma->0) =      -28.69342729


--------------------------------------------------------------------------------------------------------




--------------------------------------- Iteration      1(   7)  ---------------------------------------


    POTLOK:  cpu time   12.7725: real time   12.7937
    SETDIJ:  cpu time    0.0409: real time    0.0409
     EDDAV:  cpu time   11.1821: real time   11.2104
       DOS:  cpu time    0.0085: real time    0.0085
    CHARGE:  cpu time    5.1514: real time    5.1581
    MIXING:  cpu time    0.2496: real time    0.2511
    --------------------------------------------
      LOOP:  cpu time   29.4049: real time   29.4627

 eigenvalue-minimisations  :    64
 total energy-change (2. order) : 0.2549574E+00  (-0.8925668E-01)
 number of electron      17.9999999 magnetization 
 augmentation part        1.3624636 magnetization 

 Broyden mixing:
  rms(total) = 0.28877E+00    rms(broyden)= 0.28877E+00
  rms(prec ) = 0.29314E+00
  weight for this iteration     100.00

 eigenvalues of (default mixing * dielectric matrix)
  average eigenvalue GAMMA=   1.3848
  0.9209  1.8488

 Free energy of the ion-electron system (eV)
  ---------------------------------------------------
  alpha Z        PSCENC =         0.03011286
  Ewald energy   TEWEN  =       748.93646226
  -Hartree energ DENC   =     -1612.56687738
  -exchange      EXHF   =         0.00000000
  -V(xc)+E(xc)   XCENC  =        74.19402075
  PAW double counting   =      1180.52878105    -1185.15917917
  entropy T*S    EENTRO =        -0.00000000
  eigenvalues    EBANDS =      -271.28669162
  atomic energy  EATOM  =      1036.88490136
  Solvation  Ediel_sol  =         0.00000000
  ---------------------------------------------------
  free energy    TOTEN  =       -28.43846990 eV

  energy without entropy =      -28.43846990  energy(sigma->0) =      -28.43846990


--------------------------------------------------------------------------------------------------------




--------------------------------------- Iteration      1(   8)  ---------------------------------------


    POTLOK:  cpu time   12.8824: real time   12.9040
    SETDIJ:  cpu time    0.0400: real time    0.0400
     EDDAV:  cpu time   18.3608: real time   18.4132
       DOS:  cpu time    0.0151: real time    0.0151
    CHARGE:  cpu time    5.1288: real time    5.1356
    MIXING:  cpu time    0.2381: real time    0.2385
    --------------------------------------------
      LOOP:  cpu time   36.6652: real time   36.7465

 eigenvalue-minimisations  :   128
 total energy-change (2. order) : 0.1218631E+00  (-0.2961807E-01)
 number of electron      17.9999999 magnetization 
 augmentation part        1.3396310 magnetization 

 Broyden mixing:
  rms(total) = 0.99543E-01    rms(broyden)= 0.99543E-01
  rms(prec ) = 0.10182E+00
  weight for this iteration     100.00

 eigenvalues of (default mixing * dielectric matrix)
  average eigenvalue GAMMA=   1.3879
  2.3451  1.0747  0.7440

 Free energy of the ion-electron system (eV)
  ---------------------------------------------------
  alpha Z        PSCENC =         0.03011286
  Ewald energy   TEWEN  =       748.93646226
  -Hartree energ DENC   =     -1623.16203081
  -exchange      EXHF   =         0.00000000
  -V(xc)+E(xc)   XCENC  =        74.72088970
  PAW double counting   =      1349.18082987    -1353.76922339
  entropy T*S    EENTRO =        -0.00000000
  eigenvalues    EBANDS =      -261.13854866
  atomic energy  EATOM  =      1036.88490136
  Solvation  Ediel_sol  =         0.00000000
  ---------------------------------------------------
  free energy    TOTEN  =       -28.31660681 eV

  energy without entropy =      -28.31660681  energy(sigma->0) =      -28.31660681


--------------------------------------------------------------------------------------------------------




--------------------------------------- Iteration      1(   9)  ---------------------------------------


    POTLOK:  cpu time   12.8237: real time   12.8452
    SETDIJ:  cpu time    0.0400: real time    0.0401
     EDDAV:  cpu time   11.1748: real time   11.1981
       DOS:  cpu time    0.0106: real time    0.0106
    CHARGE:  cpu time    5.1146: real time    5.1225
    MIXING:  cpu time    0.2538: real time    0.2545
    --------------------------------------------
      LOOP:  cpu time   29.4175: real time   29.4709

 eigenvalue-minimisations  :    64
 total energy-change (2. order) : 0.1839411E-01  (-0.3510118E-02)
 number of electron      17.9999999 magnetization 
 augmentation part        1.3447066 magnetization 

 Broyden mixing:
  rms(total) = 0.24577E-01    rms(broyden)= 0.24577E-01
  rms(prec ) = 0.27101E-01
  weight for this iteration     100.00

 eigenvalues of (default mixing * dielectric matrix)
  average eigenvalue GAMMA=   1.4795
  2.3338  1.8012  1.0218  0.7611

 Free energy of the ion-electron system (eV)
  ---------------------------------------------------
  alpha Z        PSCENC =         0.03011286
  Ewald energy   TEWEN  =       748.93646226
  -Hartree energ DENC   =     -1625.71077937
  -exchange      EXHF   =         0.00000000
  -V(xc)+E(xc)   XCENC  =        74.82913806
  PAW double counting   =      1408.48222353    -1413.01607552
  entropy T*S    EENTRO =        -0.00000000
  eigenvalues    EBANDS =      -258.73419589
  atomic energy  EATOM  =      1036.88490136
  Solvation  Ediel_sol  =         0.00000000
  ---------------------------------------------------
  free energy    TOTEN  =       -28.29821270 eV

  energy without entropy =      -28.29821270  energy(sigma->0) =      -28.29821270


--------------------------------------------------------------------------------------------------------




--------------------------------------- Iteration      1(  10)  ---------------------------------------


    POTLOK:  cpu time   12.8392: real time   12.8678
    SETDIJ:  cpu time    0.0400: real time    0.0400
     EDDAV:  cpu time   14.8146: real time   14.8433
       DOS:  cpu time    0.0123: real time    0.0123
    CHARGE:  cpu time    5.1638: real time    5.1705
    MIXING:  cpu time    0.2487: real time    0.2492
    --------------------------------------------
      LOOP:  cpu time   33.1186: real time   33.1832

 eigenvalue-minimisations  :    96
 total energy-change (2. order) : 0.9831608E-03  (-0.5550964E-03)
 number of electron      17.9999999 magnetization 
 augmentation part        1.3448596 magnetization 

 Broyden mixing:
  rms(total) = 0.10579E-01    rms(broyden)= 0.10579E-01
  rms(prec ) = 0.13139E-01
  weight for this iteration     100.00

 eigenvalues of (default mixing * dielectric matrix)
  average eigenvalue GAMMA=   1.4393
  2.4442  1.9992  0.9882  0.9882  0.7767

 Free energy of the ion-electron system (eV)
  ---------------------------------------------------
  alpha Z        PSCENC =         0.03011286
  Ewald energy   TEWEN  =       748.93646226
  -Hartree energ DENC   =     -1626.69108065
  -exchange      EXHF   =         0.00000000
  -V(xc)+E(xc)   XCENC  =        74.83253213
  PAW double counting   =      1411.04602549    -1415.55686579
  entropy T*S    EENTRO =        -0.00000000
  eigenvalues    EBANDS =      -257.77931720
  atomic energy  EATOM  =      1036.88490136
  Solvation  Ediel_sol  =         0.00000000
  ---------------------------------------------------
  free energy    TOTEN  =       -28.29722954 eV

  energy without entropy =      -28.29722954  energy(sigma->0) =      -28.29722954


--------------------------------------------------------------------------------------------------------




--------------------------------------- Iteration      1(  11)  ---------------------------------------


    POTLOK:  cpu time   12.8215: real time   12.8428
    SETDIJ:  cpu time    0.0400: real time    0.0401
     EDDAV:  cpu time   11.1709: real time   11.1926
       DOS:  cpu time    0.0041: real time    0.0041
    CHARGE:  cpu time    5.1418: real time    5.1489
    MIXING:  cpu time    0.2765: real time    0.2770
    --------------------------------------------
      LOOP:  cpu time   29.4549: real time   29.5054

 eigenvalue-minimisations  :    64
 total energy-change (2. order) :-0.7245581E-03  (-0.7063539E-04)
 number of electron      17.9999999 magnetization 
 augmentation part        1.3442801 magnetization 

 Broyden mixing:
  rms(total) = 0.58293E-02    rms(broyden)= 0.58293E-02
  rms(prec ) = 0.82960E-02
  weight for this iteration     100.00

 eigenvalues of (default mixing * dielectric matrix)
  average eigenvalue GAMMA=   1.6036
  2.8641  2.4525  1.6371  0.7849  0.8679  1.0152

 Free energy of the ion-electron system (eV)
  ---------------------------------------------------
  alpha Z        PSCENC =         0.03011286
  Ewald energy   TEWEN  =       748.93646226
  -Hartree energ DENC   =     -1627.59724349
  -exchange      EXHF   =         0.00000000
  -V(xc)+E(xc)   XCENC  =        74.85118065
  PAW double counting   =      1411.85486413    -1416.35769771
  entropy T*S    EENTRO =        -0.00000000
  eigenvalues    EBANDS =      -256.90053416
  atomic energy  EATOM  =      1036.88490136
  Solvation  Ediel_sol  =         0.00000000
  ---------------------------------------------------
  free energy    TOTEN  =       -28.29795410 eV

  energy without entropy =      -28.29795410  energy(sigma->0) =      -28.29795410


--------------------------------------------------------------------------------------------------------




--------------------------------------- Iteration      1(  12)  ---------------------------------------


    POTLOK:  cpu time   12.8816: real time   12.9033
    SETDIJ:  cpu time    0.0401: real time    0.0402
     EDDAV:  cpu time   11.1870: real time   11.2165
       DOS:  cpu time    0.0084: real time    0.0084
    CHARGE:  cpu time    5.1261: real time    5.1329
    MIXING:  cpu time    0.2829: real time    0.2834
    --------------------------------------------
      LOOP:  cpu time   29.5260: real time   29.5848

 eigenvalue-minimisations  :    64
 total energy-change (2. order) :-0.2311685E-02  (-0.1101331E-03)
 number of electron      17.9999999 magnetization 
 augmentation part        1.3438985 magnetization 

 Broyden mixing:
  rms(total) = 0.35199E-02    rms(broyden)= 0.35199E-02
  rms(prec ) = 0.50613E-02
  weight for this iteration     100.00

 eigenvalues of (default mixing * dielectric matrix)
  average eigenvalue GAMMA=   1.7190
  3.7809  2.4166  1.5358  1.5358  0.7752  0.9945  0.9945

 Free energy of the ion-electron system (eV)
  ---------------------------------------------------
  alpha Z        PSCENC =         0.03011286
  Ewald energy   TEWEN  =       748.93646226
  -Hartree energ DENC   =     -1628.74835394
  -exchange      EXHF   =         0.00000000
  -V(xc)+E(xc)   XCENC  =        74.87213732
  PAW double counting   =      1409.34276521    -1413.84069112
  entropy T*S    EENTRO =        -0.00000000
  eigenvalues    EBANDS =      -255.77759973
  atomic energy  EATOM  =      1036.88490136
  Solvation  Ediel_sol  =         0.00000000
  ---------------------------------------------------
  free energy    TOTEN  =       -28.30026578 eV

  energy without entropy =      -28.30026578  energy(sigma->0) =      -28.30026578


--------------------------------------------------------------------------------------------------------




--------------------------------------- Iteration      1(  13)  ---------------------------------------


    POTLOK:  cpu time   12.8390: real time   12.8612
    SETDIJ:  cpu time    0.0401: real time    0.0401
     EDDAV:  cpu time   14.7283: real time   14.7657
       DOS:  cpu time    0.0188: real time    0.0188
    CHARGE:  cpu time    5.1522: real time    5.1588
    MIXING:  cpu time    0.2941: real time    0.2946
    --------------------------------------------
      LOOP:  cpu time   33.0724: real time   33.1392

 eigenvalue-minimisations  :    96
 total energy-change (2. order) :-0.3370760E-02  (-0.6701442E-04)
 number of electron      17.9999999 magnetization 
 augmentation part        1.3435293 magnetization 

 Broyden mixing:
  rms(total) = 0.20850E-02    rms(broyden)= 0.20850E-02
  rms(prec ) = 0.29860E-02
  weight for this iteration     100.00

 eigenvalues of (default mixing * dielectric matrix)
  average eigenvalue GAMMA=   1.9270
  4.8852  2.8196  2.2695  1.7536  0.7746  0.9733  0.9733  0.9670

 Free energy of the ion-electron system (eV)
  ---------------------------------------------------
  alpha Z        PSCENC =         0.03011286
  Ewald energy   TEWEN  =       748.93646226
  -Hartree energ DENC   =     -1629.45560059
  -exchange      EXHF   =         0.00000000
  -V(xc)+E(xc)   XCENC  =        74.87937527
  PAW double counting   =      1408.32062685    -1412.81773878
  entropy T*S    EENTRO =        -0.00000000
  eigenvalues    EBANDS =      -255.08177577
  atomic energy  EATOM  =      1036.88490136
  Solvation  Ediel_sol  =         0.00000000
  ---------------------------------------------------
  free energy    TOTEN  =       -28.30363654 eV

  energy without entropy =      -28.30363654  energy(sigma->0) =      -28.30363654


--------------------------------------------------------------------------------------------------------




--------------------------------------- Iteration      1(  14)  ---------------------------------------


    POTLOK:  cpu time   12.8441: real time   12.8649
    SETDIJ:  cpu time    0.0401: real time    0.0402
     EDDAV:  cpu time   11.1866: real time   11.2104
       DOS:  cpu time    0.0097: real time    0.0097
    CHARGE:  cpu time    5.1280: real time    5.1350
    MIXING:  cpu time    0.3121: real time    0.3126
    --------------------------------------------
      LOOP:  cpu time   29.5206: real time   29.5727

 eigenvalue-minimisations  :    64
 total energy-change (2. order) :-0.3583572E-02  (-0.4798370E-04)
 number of electron      17.9999999 magnetization 
 augmentation part        1.3435875 magnetization 

 Broyden mixing:
  rms(total) = 0.13130E-02    rms(broyden)= 0.13130E-02
  rms(prec ) = 0.16784E-02
  weight for this iteration     100.00

 eigenvalues of (default mixing * dielectric matrix)
  average eigenvalue GAMMA=   1.9729
  5.6030  3.0542  2.4391  1.5021  1.5021  0.7760  0.9929  0.9929  0.8940

 Free energy of the ion-electron system (eV)
  ---------------------------------------------------
  alpha Z        PSCENC =         0.03011286
  Ewald energy   TEWEN  =       748.93646226
  -Hartree energ DENC   =     -1629.80264956
  -exchange      EXHF   =         0.00000000
  -V(xc)+E(xc)   XCENC  =        74.87666133
  PAW double counting   =      1407.57178562    -1412.07005065
  entropy T*S    EENTRO =        -0.00000000
  eigenvalues    EBANDS =      -254.73444334
  atomic energy  EATOM  =      1036.88490136
  Solvation  Ediel_sol  =         0.00000000
  ---------------------------------------------------
  free energy    TOTEN  =       -28.30722011 eV

  energy without entropy =      -28.30722011  energy(sigma->0) =      -28.30722011


--------------------------------------------------------------------------------------------------------




--------------------------------------- Iteration      1(  15)  ---------------------------------------


    POTLOK:  cpu time   12.8185: real time   12.8495
    SETDIJ:  cpu time    0.0400: real time    0.0400
     EDDAV:  cpu time   18.3446: real time   18.3812
       DOS:  cpu time    0.0131: real time    0.0131
    CHARGE:  cpu time    5.1387: real time    5.1454
    MIXING:  cpu time    0.3177: real time    0.3182
    --------------------------------------------
      LOOP:  cpu time   36.6726: real time   36.7474

 eigenvalue-minimisations  :   128
 total energy-change (2. order) :-0.1459321E-02  (-0.1686251E-04)
 number of electron      17.9999999 magnetization 
 augmentation part        1.3434809 magnetization 

 Broyden mixing:
  rms(total) = 0.10462E-02    rms(broyden)= 0.10462E-02
  rms(prec ) = 0.12534E-02
  weight for this iteration     100.00

 eigenvalues of (default mixing * dielectric matrix)
  average eigenvalue GAMMA=   2.1160
  6.7550  3.3887  2.4310  2.4310  1.5793  1.0177  1.0177  0.7741  0.8830  0.8830

 Free energy of the ion-electron system (eV)
  ---------------------------------------------------
  alpha Z        PSCENC =         0.03011286
  Ewald energy   TEWEN  =       748.93646226
  -Hartree energ DENC   =     -1629.93020681
  -exchange      EXHF   =         0.00000000
  -V(xc)+E(xc)   XCENC  =        74.87796464
  PAW double counting   =      1408.01453438    -1412.51291656
  entropy T*S    EENTRO =        -0.00000000
  eigenvalues    EBANDS =      -254.60953157
  atomic energy  EATOM  =      1036.88490136
  Solvation  Ediel_sol  =         0.00000000
  ---------------------------------------------------
  free energy    TOTEN  =       -28.30867943 eV

  energy without entropy =      -28.30867943  energy(sigma->0) =      -28.30867943


--------------------------------------------------------------------------------------------------------




--------------------------------------- Iteration      1(  16)  ---------------------------------------


    POTLOK:  cpu time   12.8292: real time   12.8502
    SETDIJ:  cpu time    0.0402: real time    0.0402
     EDDAV:  cpu time   11.1600: real time   11.1812
       DOS:  cpu time    0.0114: real time    0.0114
    CHARGE:  cpu time    5.0695: real time    5.0762
    MIXING:  cpu time    0.3575: real time    0.3581
    --------------------------------------------
      LOOP:  cpu time   29.4678: real time   29.5174

 eigenvalue-minimisations  :    64
 total energy-change (2. order) :-0.1265728E-02  (-0.1061404E-04)
 number of electron      17.9999999 magnetization 
 augmentation part        1.3434455 magnetization 

 Broyden mixing:
  rms(total) = 0.39139E-03    rms(broyden)= 0.39139E-03
  rms(prec ) = 0.51365E-03
  weight for this iteration     100.00

 eigenvalues of (default mixing * dielectric matrix)
  average eigenvalue GAMMA=   2.1223
  7.2822  3.8387  2.4320  2.4320  1.6385  1.0692  1.0692  0.7738  1.0452  0.8821
  0.8821

 Free energy of the ion-electron system (eV)
  ---------------------------------------------------
  alpha Z        PSCENC =         0.03011286
  Ewald energy   TEWEN  =       748.93646226
  -Hartree energ DENC   =     -1629.94089977
  -exchange      EXHF   =         0.00000000
  -V(xc)+E(xc)   XCENC  =        74.87426135
  PAW double counting   =      1408.04027694    -1412.53762071
  entropy T*S    EENTRO =        -0.00000000
  eigenvalues    EBANDS =      -254.59743945
  atomic energy  EATOM  =      1036.88490136
  Solvation  Ediel_sol  =         0.00000000
  ---------------------------------------------------
  free energy    TOTEN  =       -28.30994516 eV

  energy without entropy =      -28.30994516  energy(sigma->0) =      -28.30994516


--------------------------------------------------------------------------------------------------------




--------------------------------------- Iteration      1(  17)  ---------------------------------------


    POTLOK:  cpu time   12.8577: real time   12.8791
    SETDIJ:  cpu time    0.0400: real time    0.0401
     EDDAV:  cpu time   18.3378: real time   18.3798
       DOS:  cpu time    0.0158: real time    0.0158
    CHARGE:  cpu time    5.1646: real time    5.1745
    MIXING:  cpu time    0.3334: real time    0.3340
    --------------------------------------------
      LOOP:  cpu time   36.7494: real time   36.8233

 eigenvalue-minimisations  :   128
 total energy-change (2. order) :-0.3605779E-03  (-0.1678608E-05)
 number of electron      17.9999999 magnetization 
 augmentation part        1.3434526 magnetization 

 Broyden mixing:
  rms(total) = 0.25617E-03    rms(broyden)= 0.25617E-03
  rms(prec ) = 0.34075E-03
  weight for this iteration     100.00

 eigenvalues of (default mixing * dielectric matrix)
  average eigenvalue GAMMA=   2.2492
  8.0144  4.4242  2.7297  2.5320  2.1733  1.5981  1.0402  1.0402  0.7738  0.9112
  0.8767  0.8767

 Free energy of the ion-electron system (eV)
  ---------------------------------------------------
  alpha Z        PSCENC =         0.03011286
  Ewald energy   TEWEN  =       748.93646226
  -Hartree energ DENC   =     -1629.94193332
  -exchange      EXHF   =         0.00000000
  -V(xc)+E(xc)   XCENC  =        74.87358289
  PAW double counting   =      1408.04705530    -1412.54445550
  entropy T*S    EENTRO =        -0.00000000
  eigenvalues    EBANDS =      -254.59603160
  atomic energy  EATOM  =      1036.88490136
  Solvation  Ediel_sol  =         0.00000000
  ---------------------------------------------------
  free energy    TOTEN  =       -28.31030574 eV

  energy without entropy =      -28.31030574  energy(sigma->0) =      -28.31030574


--------------------------------------------------------------------------------------------------------




--------------------------------------- Iteration      1(  18)  ---------------------------------------


    POTLOK:  cpu time   12.9301: real time   12.9508
    SETDIJ:  cpu time    0.0400: real time    0.0400
     EDDAV:  cpu time   14.8272: real time   14.8657
       DOS:  cpu time    0.0115: real time    0.0115
    CHARGE:  cpu time    5.1362: real time    5.1429
    MIXING:  cpu time    0.3481: real time    0.3487
    --------------------------------------------
      LOOP:  cpu time   33.2931: real time   33.3595

 eigenvalue-minimisations  :    96
 total energy-change (2. order) :-0.3667870E-03  (-0.1599362E-05)
 number of electron      17.9999999 magnetization 
 augmentation part        1.3434851 magnetization 

 Broyden mixing:
  rms(total) = 0.16419E-03    rms(broyden)= 0.16419E-03
  rms(prec ) = 0.19697E-03
  weight for this iteration     100.00

 eigenvalues of (default mixing * dielectric matrix)
  average eigenvalue GAMMA=   2.2595
  8.3275  4.9346  3.0586  2.3765  2.1174  1.7425  1.2215  1.0882  1.0882  0.7736
  0.8682  0.8682  0.9084

 Free energy of the ion-electron system (eV)
  ---------------------------------------------------
  alpha Z        PSCENC =         0.03011286
  Ewald energy   TEWEN  =       748.93646226
  -Hartree energ DENC   =     -1629.93372951
  -exchange      EXHF   =         0.00000000
  -V(xc)+E(xc)   XCENC  =        74.87242861
  PAW double counting   =      1407.94161925    -1412.43901763
  entropy T*S    EENTRO =        -0.00000000
  eigenvalues    EBANDS =      -254.60344973
  atomic energy  EATOM  =      1036.88490136
  Solvation  Ediel_sol  =         0.00000000
  ---------------------------------------------------
  free energy    TOTEN  =       -28.31067253 eV

  energy without entropy =      -28.31067253  energy(sigma->0) =      -28.31067253


--------------------------------------------------------------------------------------------------------




--------------------------------------- Iteration      1(  19)  ---------------------------------------


    POTLOK:  cpu time   12.8461: real time   12.8671
    SETDIJ:  cpu time    0.0400: real time    0.0400
     EDDAV:  cpu time   18.3885: real time   18.4236
       DOS:  cpu time    0.0006: real time    0.0006
    CHARGE:  cpu time    5.1587: real time    5.1658
    MIXING:  cpu time    0.3441: real time    0.3448
    --------------------------------------------
      LOOP:  cpu time   36.7781: real time   36.8420

 eigenvalue-minimisations  :   128
 total energy-change (2. order) :-0.9700586E-04  (-0.1881244E-06)
 number of electron      17.9999999 magnetization 
 augmentation part        1.3434497 magnetization 

 Broyden mixing:
  rms(total) = 0.11340E-03    rms(broyden)= 0.11340E-03
  rms(prec ) = 0.13356E-03
  weight for this iteration     100.00

 eigenvalues of (default mixing * dielectric matrix)
  average eigenvalue GAMMA=   2.3715
  8.8678  5.5079  3.6147  2.7541  2.3609  1.9609  1.5974  1.0996  1.0062  1.0062
  0.7737  0.8772  0.8772  0.8976

 Free energy of the ion-electron system (eV)
  ---------------------------------------------------
  alpha Z        PSCENC =         0.03011286
  Ewald energy   TEWEN  =       748.93646226
  -Hartree energ DENC   =     -1629.94000564
  -exchange      EXHF   =         0.00000000
  -V(xc)+E(xc)   XCENC  =        74.87252707
  PAW double counting   =      1407.97069935    -1412.46818291
  entropy T*S    EENTRO =        -0.00000000
  eigenvalues    EBANDS =      -254.59728390
  atomic energy  EATOM  =      1036.88490136
  Solvation  Ediel_sol  =         0.00000000
  ---------------------------------------------------
  free energy    TOTEN  =       -28.31076953 eV

  energy without entropy =      -28.31076953  energy(sigma->0) =      -28.31076953


--------------------------------------------------------------------------------------------------------




--------------------------------------- Iteration      1(  20)  ---------------------------------------


    POTLOK:  cpu time   12.7975: real time   12.8189
    SETDIJ:  cpu time    0.0401: real time    0.0401
     EDDAV:  cpu time   18.4400: real time   18.4814
       DOS:  cpu time    0.0155: real time    0.0155
    CHARGE:  cpu time    5.1169: real time    5.1320
    MIXING:  cpu time    0.3600: real time    0.3607
    --------------------------------------------
      LOOP:  cpu time   36.7700: real time   36.8486

 eigenvalue-minimisations  :   128
 total energy-change (2. order) :-0.8652634E-04  (-0.1287486E-06)
 number of electron      17.9999999 magnetization 
 augmentation part        1.3434728 magnetization 

 Broyden mixing:
  rms(total) = 0.58355E-04    rms(broyden)= 0.58355E-04
  rms(prec ) = 0.65852E-04
  weight for this iteration     100.00

 eigenvalues of (default mixing * dielectric matrix)
  average eigenvalue GAMMA=   2.3810
  8.9815  5.8586  3.8579  2.7327  2.4528  2.1665  1.7522  1.4827  1.0288  1.0044
  1.0044  0.7739  0.8796  0.8796  0.8600

 Free energy of the ion-electron system (eV)
  ---------------------------------------------------
  alpha Z        PSCENC =         0.03011286
  Ewald energy   TEWEN  =       748.93646226
  -Hartree energ DENC   =     -1629.94077970
  -exchange      EXHF   =         0.00000000
  -V(xc)+E(xc)   XCENC  =        74.87237227
  PAW double counting   =      1407.93840993    -1412.43596498
  entropy T*S    EENTRO =        -0.00000000
  eigenvalues    EBANDS =      -254.59637006
  atomic energy  EATOM  =      1036.88490136
  Solvation  Ediel_sol  =         0.00000000
  ---------------------------------------------------
  free energy    TOTEN  =       -28.31085606 eV

  energy without entropy =      -28.31085606  energy(sigma->0) =      -28.31085606


--------------------------------------------------------------------------------------------------------




--------------------------------------- Iteration      1(  21)  ---------------------------------------


    POTLOK:  cpu time   12.7850: real time   12.8060
    SETDIJ:  cpu time    0.0400: real time    0.0400
     EDDAV:  cpu time   18.3343: real time   18.3693
       DOS:  cpu time    0.0171: real time    0.0171
    CHARGE:  cpu time    5.1345: real time    5.1411
    MIXING:  cpu time    0.3963: real time    0.3971
    --------------------------------------------
      LOOP:  cpu time   36.7072: real time   36.7707

 eigenvalue-minimisations  :   128
 total energy-change (2. order) :-0.2433611E-04  (-0.1289166E-07)
 number of electron      17.9999999 magnetization 
 augmentation part        1.3434675 magnetization 

 Broyden mixing:
  rms(total) = 0.32366E-04    rms(broyden)= 0.32366E-04
  rms(prec ) = 0.36833E-04
  weight for this iteration     100.00

 eigenvalues of (default mixing * dielectric matrix)
  average eigenvalue GAMMA=   2.4311
  9.2656  6.2531  4.4314  3.0294  2.6120  2.2867  2.0318  1.5785  1.1098  1.0002
  1.0002  0.7738  0.8828  0.8828  0.9052  0.8536

 Free energy of the ion-electron system (eV)
  ---------------------------------------------------
  alpha Z        PSCENC =         0.03011286
  Ewald energy   TEWEN  =       748.93646226
  -Hartree energ DENC   =     -1629.94304687
  -exchange      EXHF   =         0.00000000
  -V(xc)+E(xc)   XCENC  =        74.87243889
  PAW double counting   =      1407.96440110    -1412.46191732
  entropy T*S    EENTRO =        -0.00000000
  eigenvalues    EBANDS =      -254.59423268
  atomic energy  EATOM  =      1036.88490136
  Solvation  Ediel_sol  =         0.00000000
  ---------------------------------------------------
  free energy    TOTEN  =       -28.31088040 eV

  energy without entropy =      -28.31088040  energy(sigma->0) =      -28.31088040


--------------------------------------------------------------------------------------------------------




--------------------------------------- Iteration      1(  22)  ---------------------------------------


    POTLOK:  cpu time   12.7713: real time   12.7999
    SETDIJ:  cpu time    0.0401: real time    0.0402
     EDDAV:  cpu time   18.3399: real time   18.3791
       DOS:  cpu time    0.0078: real time    0.0078
    CHARGE:  cpu time    5.1519: real time    5.1585
    MIXING:  cpu time    0.4144: real time    0.4152
    --------------------------------------------
      LOOP:  cpu time   36.7254: real time   36.8006

 eigenvalue-minimisations  :   128
 total energy-change (2. order) :-0.1337719E-04  (-0.1043559E-07)
 number of electron      17.9999999 magnetization 
 augmentation part        1.3434622 magnetization 

 Broyden mixing:
  rms(total) = 0.14523E-04    rms(broyden)= 0.14523E-04
  rms(prec ) = 0.17117E-04
  weight for this iteration     100.00

 eigenvalues of (default mixing * dielectric matrix)
  average eigenvalue GAMMA=   2.4696
  9.4237  6.5028  4.6905  3.2688  2.5670  2.5670  2.0077  2.0077  1.5679  1.0661
  0.9958  0.9958  0.7737  0.8902  0.8902  0.8837  0.8837

 Free energy of the ion-electron system (eV)
  ---------------------------------------------------
  alpha Z        PSCENC =         0.03011286
  Ewald energy   TEWEN  =       748.93646226
  -Hartree energ DENC   =     -1629.94438168
  -exchange      EXHF   =         0.00000000
  -V(xc)+E(xc)   XCENC  =        74.87246412
  PAW double counting   =      1407.97132950    -1412.46883620
  entropy T*S    EENTRO =        -0.00000000
  eigenvalues    EBANDS =      -254.59294601
  atomic energy  EATOM  =      1036.88490136
  Solvation  Ediel_sol  =         0.00000000
  ---------------------------------------------------
  free energy    TOTEN  =       -28.31089377 eV

  energy without entropy =      -28.31089377  energy(sigma->0) =      -28.31089377


--------------------------------------------------------------------------------------------------------




--------------------------------------- Iteration      1(  23)  ---------------------------------------


    POTLOK:  cpu time   12.8382: real time   12.8589
    SETDIJ:  cpu time    0.0400: real time    0.0400
     EDDAV:  cpu time   18.3455: real time   18.3881
       DOS:  cpu time    0.0062: real time    0.0062
    CHARGE:  cpu time    5.0865: real time    5.0931
    MIXING:  cpu time    0.4077: real time    0.4085
    --------------------------------------------
      LOOP:  cpu time   36.7240: real time   36.7947

 eigenvalue-minimisations  :   128
 total energy-change (2. order) :-0.6606986E-05  (-0.5164406E-08)
 number of electron      17.9999999 magnetization 
 augmentation part        1.3434643 magnetization 

 Broyden mixing:
  rms(total) = 0.92815E-05    rms(broyden)= 0.92815E-05
  rms(prec ) = 0.10368E-04
  weight for this iteration     100.00

 eigenvalues of (default mixing * dielectric matrix)
  average eigenvalue GAMMA=   2.4991
  9.4965  6.9578  5.0451  3.7860  2.7843  2.3910  2.3910  1.9909  1.5862  1.1752
  1.0387  0.9955  0.9955  0.7738  0.8917  0.8917  0.8964  0.8964

 Free energy of the ion-electron system (eV)
  ---------------------------------------------------
  alpha Z        PSCENC =         0.03011286
  Ewald energy   TEWEN  =       748.93646226
  -Hartree energ DENC   =     -1629.94365042
  -exchange      EXHF   =         0.00000000
  -V(xc)+E(xc)   XCENC  =        74.87241685
  PAW double counting   =      1407.96196606    -1412.45947292
  entropy T*S    EENTRO =        -0.00000000
  eigenvalues    EBANDS =      -254.59363643
  atomic energy  EATOM  =      1036.88490136
  Solvation  Ediel_sol  =         0.00000000
  ---------------------------------------------------
  free energy    TOTEN  =       -28.31090038 eV

  energy without entropy =      -28.31090038  energy(sigma->0) =      -28.31090038


--------------------------------------------------------------------------------------------------------




--------------------------------------- Iteration      1(  24)  ---------------------------------------


    POTLOK:  cpu time   12.7825: real time   12.8039
    SETDIJ:  cpu time    0.0401: real time    0.0401
     EDDAV:  cpu time   18.3577: real time   18.3974
       DOS:  cpu time    0.0106: real time    0.0106
    CHARGE:  cpu time    5.1591: real time    5.1660
    MIXING:  cpu time    0.4359: real time    0.4367
    --------------------------------------------
      LOOP:  cpu time   36.7859: real time   36.8548

 eigenvalue-minimisations  :   128
 total energy-change (2. order) :-0.2324879E-05  (-0.3984644E-08)
 number of electron      17.9999999 magnetization 
 augmentation part        1.3434646 magnetization 

 Broyden mixing:
  rms(total) = 0.33012E-05    rms(broyden)= 0.33012E-05
  rms(prec ) = 0.40999E-05
  weight for this iteration     100.00

 eigenvalues of (default mixing * dielectric matrix)
  average eigenvalue GAMMA=   2.5625
  9.5593  7.2880  5.4030  4.0718  3.0841  2.5879  2.4724  2.2130  1.9899  1.5936
  0.7737  1.0665  0.9982  0.9982  1.0106  0.8910  0.8910  0.8976  0.8976

 Free energy of the ion-electron system (eV)
  ---------------------------------------------------
  alpha Z        PSCENC =         0.03011286
  Ewald energy   TEWEN  =       748.93646226
  -Hartree energ DENC   =     -1629.94368346
  -exchange      EXHF   =         0.00000000
  -V(xc)+E(xc)   XCENC  =        74.87241732
  PAW double counting   =      1407.96324944    -1412.46075887
  entropy T*S    EENTRO =        -0.00000000
  eigenvalues    EBANDS =      -254.59360361
  atomic energy  EATOM  =      1036.88490136
  Solvation  Ediel_sol  =         0.00000000
  ---------------------------------------------------
  free energy    TOTEN  =       -28.31090271 eV

  energy without entropy =      -28.31090271  energy(sigma->0) =      -28.31090271


--------------------------------------------------------------------------------------------------------




--------------------------------------- Iteration      1(  25)  ---------------------------------------


    POTLOK:  cpu time   12.8502: real time   12.8720
    SETDIJ:  cpu time    0.0400: real time    0.0400
     EDDAV:  cpu time   18.3452: real time   18.3871
       DOS:  cpu time    0.0069: real time    0.0069
    CHARGE:  cpu time    5.1193: real time    5.1269
    MIXING:  cpu time    0.4379: real time    0.4387
    --------------------------------------------
      LOOP:  cpu time   36.7995: real time   36.8717

 eigenvalue-minimisations  :   128
 total energy-change (2. order) :-0.1402945E-05  (-0.3070335E-08)
 number of electron      17.9999999 magnetization 
 augmentation part        1.3434647 magnetization 

 Broyden mixing:
  rms(total) = 0.19204E-05    rms(broyden)= 0.19203E-05
  rms(prec ) = 0.21887E-05
  weight for this iteration     100.00

 eigenvalues of (default mixing * dielectric matrix)
  average eigenvalue GAMMA=   2.5394
  9.5999  7.4847  5.5997  4.3699  3.2602  2.6686  2.3517  2.3517  1.9523  1.5914
  1.2091  1.0539  1.0001  1.0001  0.7737  0.9815  0.8887  0.8887  0.8808  0.8808

 Free energy of the ion-electron system (eV)
  ---------------------------------------------------
  alpha Z        PSCENC =         0.03011286
  Ewald energy   TEWEN  =       748.93646226
  -Hartree energ DENC   =     -1629.94371862
  -exchange      EXHF   =         0.00000000
  -V(xc)+E(xc)   XCENC  =        74.87241634
  PAW double counting   =      1407.96335337    -1412.46086540
  entropy T*S    EENTRO =        -0.00000000
  eigenvalues    EBANDS =      -254.59356629
  atomic energy  EATOM  =      1036.88490136
  Solvation  Ediel_sol  =         0.00000000
  ---------------------------------------------------
  free energy    TOTEN  =       -28.31090411 eV

  energy without entropy =      -28.31090411  energy(sigma->0) =      -28.31090411


--------------------------------------------------------------------------------------------------------




--------------------------------------- Iteration      1(  26)  ---------------------------------------


    POTLOK:  cpu time   12.7668: real time   12.7881
    SETDIJ:  cpu time    0.0400: real time    0.0400
     EDDAV:  cpu time   18.4082: real time   18.4472
       DOS:  cpu time    0.0028: real time    0.0028
    CHARGE:  cpu time    5.1641: real time    5.1726
    MIXING:  cpu time    0.4768: real time    0.4777
    --------------------------------------------
      LOOP:  cpu time   36.8587: real time   36.9284

 eigenvalue-minimisations  :   128
 total energy-change (2. order) :-0.2596248E-06  (-0.2435296E-08)
 number of electron      17.9999999 magnetization 
 augmentation part        1.3434647 magnetization 

 Broyden mixing:
  rms(total) = 0.14257E-05    rms(broyden)= 0.14257E-05
  rms(prec ) = 0.15968E-05
  weight for this iteration     100.00

 eigenvalues of (default mixing * dielectric matrix)
  average eigenvalue GAMMA=   2.6019
  9.6667  7.7634  5.9668  4.6615  3.6654  2.7616  2.6109  2.2967  2.2967  1.9159
  1.5994  0.7737  0.9981  0.9981  1.0600  1.0600  0.8910  0.8910  0.9811  0.8909
  0.8909

 Free energy of the ion-electron system (eV)
  ---------------------------------------------------
  alpha Z        PSCENC =         0.03011286
  Ewald energy   TEWEN  =       748.93646226
  -Hartree energ DENC   =     -1629.94370036
  -exchange      EXHF   =         0.00000000
  -V(xc)+E(xc)   XCENC  =        74.87241519
  PAW double counting   =      1407.96335225    -1412.46086395
  entropy T*S    EENTRO =        -0.00000000
  eigenvalues    EBANDS =      -254.59358398
  atomic energy  EATOM  =      1036.88490136
  Solvation  Ediel_sol  =         0.00000000
  ---------------------------------------------------
  free energy    TOTEN  =       -28.31090437 eV

  energy without entropy =      -28.31090437  energy(sigma->0) =      -28.31090437


--------------------------------------------------------------------------------------------------------




--------------------------------------- Iteration      1(  27)  ---------------------------------------


    POTLOK:  cpu time   12.7827: real time   12.8041
    SETDIJ:  cpu time    0.0404: real time    0.0404
     EDDAV:  cpu time   11.2126: real time   11.2360
       DOS:  cpu time    0.0030: real time    0.0030
    CHARGE:  cpu time    5.1016: real time    5.1083
    MIXING:  cpu time    0.4961: real time    0.4971
    --------------------------------------------
      LOOP:  cpu time   29.6364: real time   29.6889

 eigenvalue-minimisations  :    64
 total energy-change (2. order) :-0.2881907E-06  (-0.1756391E-08)
 number of electron      17.9999999 magnetization 
 augmentation part        1.3434645 magnetization 

 Broyden mixing:
  rms(total) = 0.52361E-06    rms(broyden)= 0.52361E-06
  rms(prec ) = 0.60572E-06
  weight for this iteration     100.00

 eigenvalues of (default mixing * dielectric matrix)
  average eigenvalue GAMMA=   2.6025
  9.6291  8.0095  6.0848  4.8702  3.8056  3.0476  2.4752  2.4752  2.2334  1.9411
  1.6251  1.6251  0.7737  0.9998  0.9998  0.8908  0.8908  1.0510  1.0510  0.9834
  0.8964  0.8964

 Free energy of the ion-electron system (eV)
  ---------------------------------------------------
  alpha Z        PSCENC =         0.03011286
  Ewald energy   TEWEN  =       748.93646226
  -Hartree energ DENC   =     -1629.94374034
  -exchange      EXHF   =         0.00000000
  -V(xc)+E(xc)   XCENC  =        74.87241708
  PAW double counting   =      1407.96373133    -1412.46124203
  entropy T*S    EENTRO =        -0.00000000
  eigenvalues    EBANDS =      -254.59354718
  atomic energy  EATOM  =      1036.88490136
  Solvation  Ediel_sol  =         0.00000000
  ---------------------------------------------------
  free energy    TOTEN  =       -28.31090466 eV

  energy without entropy =      -28.31090466  energy(sigma->0) =      -28.31090466


--------------------------------------------------------------------------------------------------------




--------------------------------------- Iteration      1(  28)  ---------------------------------------


    POTLOK:  cpu time   12.7255: real time   12.7465
    SETDIJ:  cpu time    0.0401: real time    0.0401
     EDDAV:  cpu time   18.3467: real time   18.3869
       DOS:  cpu time    0.0038: real time    0.0038
    --------------------------------------------
      LOOP:  cpu time   31.1162: real time   31.1774

 eigenvalue-minimisations  :   128
 total energy-change (2. order) :-0.7243875E-07  (-0.1522761E-08)
 number of electron      17.9999999 magnetization 
 augmentation part        1.3434645 magnetization 

 Free energy of the ion-electron system (eV)
  ---------------------------------------------------
  alpha Z        PSCENC =         0.03011286
  Ewald energy   TEWEN  =       748.93646226
  -Hartree energ DENC   =     -1629.94372915
  -exchange      EXHF   =         0.00000000
  -V(xc)+E(xc)   XCENC  =        74.87241646
  PAW double counting   =      1407.96369753    -1412.46120812
  entropy T*S    EENTRO =        -0.00000000
  eigenvalues    EBANDS =      -254.59355793
  atomic energy  EATOM  =      1036.88490136
  Solvation  Ediel_sol  =         0.00000000
  ---------------------------------------------------
  free energy    TOTEN  =       -28.31090473 eV

  energy without entropy =      -28.31090473  energy(sigma->0) =      -28.31090473


--------------------------------------------------------------------------------------------------------




 average (electrostatic) potential at core
  the test charge radii are     0.5201  0.6991  0.7215
  (the norm of the test charge is              1.0000)
       1 -44.7157       2 -44.6968       3 -60.9871       4 -82.7498       5 -80.4568
 
 
 
 E-fermi :  -7.1260     XC(G=0):  -0.0323     alpha+bet : -0.0071


 k-point     1 :       0.0000    0.0000    0.0000
  band No.  band energies     occupation 
      1     -28.6273      2.00000
      2     -25.3856      2.00000
      3     -13.6783      2.00000
      4     -13.1407      2.00000
      5     -11.1124      2.00000
      6     -11.0992      2.00000
      7      -9.1648      2.00000
      8      -7.8808      2.00000
      9      -7.2077      2.00000
     10      -1.5488      0.00000
     11      -1.5113      0.00000
     12      -0.9083      0.00000
     13       0.0002      0.00000
     14       0.0962      0.00000
     15       0.1043      0.00000
     16       0.1125      0.00000
     17       0.1187      0.00000
     18       0.1210      0.00000
     19       0.1335      0.00000
     20       0.1821      0.00000
     21       0.1985      0.00000
     22       0.2196      0.00000
     23       0.2393      0.00000
     24       0.2399      0.00000
     25       0.2405      0.00000
     26       0.2409      0.00000
     27       0.2426      0.00000
     28       0.2434      0.00000
     29       0.2454      0.00000
     30       0.2456      0.00000
     31       0.2739      0.00000
     32       0.3144      0.00000


--------------------------------------------------------------------------------------------------------


 soft charge-density along one line, spin component            1
         0         1         2         3         4         5         6         7         8         9
 total charge-density along one line
 
 pseudopotential strength for first ion, spin component:            1
 -2.379  -4.109   0.009  -0.014   0.001
 -4.109  -7.010   0.018  -0.028   0.001
  0.009   0.018  -0.314  -0.014   0.001
 -0.014  -0.028  -0.014  -0.301  -0.001
  0.001   0.001   0.001  -0.001  -0.324
 total augmentation occupancy for first ion, spin component:            1
  3.794  -0.793  -0.424   0.619  -0.023
 -0.793   0.221   0.091  -0.121   0.005
 -0.424   0.091   0.070  -0.057   0.002
  0.619  -0.121  -0.057   0.109  -0.003
 -0.023   0.005   0.002  -0.003   0.044


------------------------ aborting loop because EDIFF is reached ----------------------------------------



 DIPCOR: dipole corrections for dipol
 direction  1 min pos   457, direction  2 min pos   447, direction  3 min pos   402,
 dipolmoment          -0.013704     -0.449648      0.015723 electrons x Angstroem
 Tr[quadrupol]         8.792606

 energy correction for charged system         0.000000 eV
 dipol+quadrupol energy correction            0.000143 eV
 added-field ion interaction          0.000000 eV  (added to PSCEN)

 
  *************** adding dipol energy to TOTEN NOW **************** 
    CHARGE:  cpu time    5.1663: real time    5.1731
    FORLOC:  cpu time    0.4937: real time    0.4943
    FORNL :  cpu time    0.4165: real time    0.4172
    STRESS:  cpu time   11.4662: real time   11.4960
    FORCOR:  cpu time   10.9209: real time   10.9461
    FORHAR:  cpu time    3.2712: real time    3.2773
    MIXING:  cpu time    0.5004: real time    0.5014
    OFIELD:  cpu time    0.0000: real time    0.0000

  Hirshfeld charges:
            ion         q(e)     
   ------------------------------
      1     H           0.142
      2     H           0.141
      3     C           0.039
      4     O          -0.055
      5     O          -0.267

  Hirshfeld-I charges:
            ion         q(e)        dq(e)    
   ------------------------------------------
      1     H           0.445      0.187E-04
      2     H           0.443      0.188E-04
      3     C           0.065     -0.305E-05
      4     O          -0.023      0.706E-05
      5     O          -0.931     -0.415E-04

   Hirshfeld-I converged in  22 cycles. Convergence criterion |dq|< 0.500E-04 e

  Atomic reference data used in the T-S method for vdW correction:
            C6at              R0at           ALPHAat      REFSTATE
            (au)              (au)            (au)                
   ---------------------------------------------------------------
   H           6.500          3.099          4.500         0
   C          46.600          3.590         12.000         0
   O          15.600          3.194          5.400         0

  Tkatchenko/Scheffler method for vdW energy calculation
  ---------------------------------------------------------------------------------------------

  Parameters of vdW forcefield:
            C6ts              R0ts           ALPHAts        RELVOL
            (au)              (au)            (au)                
   ---------------------------------------------------------------
   H           0.666          2.120          1.441          0.32011310
   H           0.663          2.118          1.437          0.31940549
   C          31.470          3.363          9.861          0.82177360
   O          11.746          3.046          4.686          0.86770993
   O          29.124          3.544          7.378          1.36634207

  vdW correction parametrized for the method pbe       

  IVDW =  21
  VDW_RADIUS =    50.000 A
  VDW_IDAMPF =  0
  VDW_S6 =     1.000
  VDW_SR =     0.950
  VDW_D =    20.000
  LVDW_ONECELL = F F F
  LVDW_SAMETYPE T T T
  LVDW_EWALD = F

  Number of pair interactions contributing to vdW energy:     234
  Edisp (eV):   -0.01046
    FORVDW:  cpu time   94.8577: real time   94.9126

  FORCE on cell =-STRESS in cart. coord.  units (eV):
  Direction    XX          YY          ZZ          XY          YZ          ZX
  --------------------------------------------------------------------------------------
  Alpha Z     0.03011     0.03011     0.03011
  Ewald     -63.16246   748.52850    63.56990     3.04961     1.43119    -1.46939
  Hartree   375.53668   855.97878   398.42824     0.84366    -0.14623    -0.26734
  E(xc)     -80.88319   -79.18981   -80.39183     0.01096     0.00896    -0.00572
  Local    -556.30845 -1800.55324  -669.54381    -3.12944    -0.57472     1.31410
  n-local   -48.94802   -61.54722   -48.45953    -0.00834     0.03680    -0.00501
  augment    14.15947    12.43302    11.80386    -0.05193    -0.04623     0.02745
  Kinetic   359.56538   331.33448   325.27846    -0.69261    -0.68140     0.39712
  Fock        0.00000     0.00000     0.00000     0.00000     0.00000     0.00000
  vdW        -0.00000     0.00844    -0.00035    -0.00013    -0.00052    -0.00000
  -------------------------------------------------------------------------------------
  Total      -0.01048     7.02308     0.71504     0.02178     0.02786    -0.00879
  in kB      -0.00039     0.26244     0.02672     0.00081     0.00104    -0.00033
  external pressure =        0.10 kB  Pullay stress =        0.00 kB


 VOLUME and BASIS-vectors are now :
 -----------------------------------------------------------------------------
  energy-cutoff  :     1000.00
  volume of cell :    42875.00
      direct lattice vectors                 reciprocal lattice vectors
    35.000000000  0.000000000  0.000000000     0.028571429  0.000000000  0.000000000
     0.000000000 35.000000000  0.000000000     0.000000000  0.028571429  0.000000000
     0.000000000  0.000000000 35.000000000     0.000000000  0.000000000  0.028571429

  length of vectors
    35.000000000 35.000000000 35.000000000     0.028571429  0.028571429  0.028571429


 FORCES acting on ions
    electron-ion (+dipol)            ewald-force                    non-local-force                 convergence-correction
 -----------------------------------------------------------------------------------------------
   -.283E+01 -.629E+02 0.789E+02   0.310E+01 0.681E+02 -.865E+02   -.261E+00 -.470E+01 0.719E+01   -.524E-07 -.161E-05 0.168E-05
   -.121E+01 -.694E+02 -.735E+02   0.133E+01 0.753E+02 0.807E+02   -.113E+00 -.535E+01 -.672E+01   -.170E-07 -.178E-05 -.154E-05
   0.403E-01 0.279E+03 -.921E-01   -.421E-01 -.307E+03 0.872E-01   0.350E-02 0.270E+02 0.104E-01   -.546E-08 -.146E-05 0.149E-06
   0.156E+00 -.659E+02 -.348E+00   -.173E+00 0.128E+03 0.393E+00   0.949E-02 -.639E+02 -.655E-01   0.373E-07 0.721E-05 0.880E-07
   0.245E+01 -.864E+02 -.293E+01   -.422E+01 0.355E+02 0.540E+01   0.176E+01 0.526E+02 -.241E+01   -.988E-07 -.749E-05 0.229E-06
 -----------------------------------------------------------------------------------------------
   -.140E+01 -.562E+01 0.199E+01   -.888E-15 0.426E-13 -.124E-13   0.140E+01 0.562E+01 -.199E+01   -.136E-06 -.513E-05 0.600E-06
 
 
 POSITION                                       TOTAL-FORCE (eV/Angst)
 -----------------------------------------------------------------------------------
      0.02970      3.88138     34.21499         0.014844      0.478773     -0.503720
      0.01365      3.95327      0.72944         0.003898      0.553403      0.452953
      0.00000      0.08826      0.00000         0.001723     -0.603680      0.005394
      0.00000      1.22721      0.00000        -0.007932     -2.127723     -0.019499
      0.00000      3.32721      0.00000        -0.012533      1.699227      0.064873
 -----------------------------------------------------------------------------------
    total drift:                               -0.000020     -0.000094      0.000034


--------------------------------------------------------------------------------------------------------



  FREE ENERGIE OF THE ION-ELECTRON SYSTEM (eV)
  ---------------------------------------------------
  free  energy   TOTEN  =       -28.32121780 eV

  energy  without entropy=      -28.32121780  energy(sigma->0) =      -28.32121780
 


--------------------------------------------------------------------------------------------------------


    POTLOK:  cpu time   13.2379: real time   13.2592


--------------------------------------------------------------------------------------------------------


 writing wavefunctions
     LOOP+:  cpu time 1281.9905: real time 1283.9662
    4ORBIT:  cpu time    0.0000: real time    0.0000

 total amount of memory used by VASP MPI-rank0  4191804. kBytes
=======================================================================

   base      :      30000. kBytes
   nonl-proj :     418671. kBytes
   fftplans  :     676185. kBytes
   grid      :    3042313. kBytes
   one-center:          7. kBytes
   wavefun   :      24628. kBytes
 
  
  
 General timing and accounting informations for this job:
 ========================================================
  
                  Total CPU time used (sec):     2384.249
                            User time (sec):     2232.665
                          System time (sec):      151.584
                         Elapsed time (sec):     2389.125
  
                   Maximum memory used (kb):     5567072.
                   Average memory used (kb):           0.
  
                          Minor page faults:     73153973
                          Major page faults:          937
                 Voluntary context switches:        12525
