 vasp.6.1.2 22Jul20 (build Jan  6 2021 09:55:43) gamma-only                      
 executed on             LinuxPGI date 2021.03.01  21:55:53
 running on   32 total cores
 distrk:  each k-point on   32 cores,    1 groups
 distr:  one band on NCORE=   8 cores,    4 groups


--------------------------------------------------------------------------------------------------------


 INCAR:
 POTCAR:    PAW_PBE H_s 15May2010                 
 POTCAR:    PAW_PBE C_s 06Sep2000                 
 POTCAR:    PAW_PBE O_s 07Sep2000                 
 POTCAR:    PAW_PBE H_s 15May2010                 
   VRHFIN =H: ultrasoft test                                                                        
   LEXCH  = PE                                                                                      
   EATOM  =    12.4884 eV,    0.9179 Ry                                                             
                                                                                                    
   TITEL  = PAW_PBE H_s 15May2010                                                                   
   LULTRA =        F    use ultrasoft PP ?                                                          
   IUNSCR =        0    unscreen: 0-lin 1-nonlin 2-no                                               
   RPACOR =    0.000    partial core radius                                                         
   POMASS =    1.000; ZVAL   =    1.000    mass and valenz                                          
   RCORE  =    1.300    outmost cutoff radius                                                       
   RWIGS  =    0.700; RWIGS  =    0.370    wigner-seitz radius (au A)                               
   ENMAX  =  200.000; ENMIN  =  150.000 eV                                                          
   RCLOC  =    0.701    cutoff for local pot                                                        
   LCOR   =        T    correct aug charges                                                         
   LPAW   =        T    paw PP                                                                      
   EAUG   =  300.000                                                                                
   RMAX   =    1.330    core radius for proj-oper                                                   
   RAUG   =    1.200    factor for augmentation sphere                                              
   RDEP   =    1.337    radius for radial grids                                                     
   RDEPT  =    1.114    core radius for aug-charge                                                  
                                                                                                    
   Atomic configuration                                                                             
    2 entries                                                                                       
     n  l   j            E        occ.                                                              
     1  0  0.50        -6.4927   1.0000                                                             
     2  1  0.50        -3.4015   0.0000                                                             
   Description                                                                                      
     l       E           TYP  RCUT    TYP  RCUT                                                     
     0     -6.4927494     23  1.300                                                                 
     0      6.8029130     23  1.300                                                                 
     1     -4.0817478     23  1.300                                                                 
  local pseudopotential read in
  atomic valenz-charges read in
  non local Contribution for L=            0  read in
    real space projection operators read in
  non local Contribution for L=            0  read in
    real space projection operators read in
  non local Contribution for L=            1  read in
    real space projection operators read in
    PAW grid and wavefunctions read in
 
   number of l-projection  operators is LMAX  =            3
   number of lm-projection operators is LMMAX =            5
 
 POTCAR:    PAW_PBE C_s 06Sep2000                 
   VRHFIN =C: s2p2                                                                                  
   LEXCH  = PE                                                                                      
   EATOM  =   147.1560 eV,   10.8157 Ry                                                             
                                                                                                    
   TITEL  = PAW_PBE C_s 06Sep2000                                                                   
   LULTRA =        F    use ultrasoft PP ?                                                          
   IUNSCR =        0    unscreen: 0-lin 1-nonlin 2-no                                               
   RPACOR =    0.000    partial core radius                                                         
   POMASS =   12.011; ZVAL   =    4.000    mass and valenz                                          
   RCORE  =    1.850    outmost cutoff radius                                                       
   RWIGS  =    1.890; RWIGS  =    1.000    wigner-seitz radius (au A)                               
   ENMAX  =  273.911; ENMIN  =  205.433 eV                                                          
   RCLOC  =    0.804    cutoff for local pot                                                        
   LCOR   =        T    correct aug charges                                                         
   LPAW   =        T    paw PP                                                                      
   EAUG   =  439.243                                                                                
   DEXC   =    0.000                                                                                
   RMAX   =    1.897    core radius for proj-oper                                                   
   RAUG   =    1.300    factor for augmentation sphere                                              
   RDEP   =    1.940    radius for radial grids                                                     
   RDEPT  =    1.573    core radius for aug-charge                                                  
                                                                                                    
   Atomic configuration                                                                             
    4 entries                                                                                       
     n  l   j            E        occ.                                                              
     1  0  0.50      -273.3789   2.0000                                                             
     2  0  0.50       -13.7508   2.0000                                                             
     2  1  0.50        -5.2854   2.0000                                                             
     3  2  1.50        -1.3606   0.0000                                                             
   Description                                                                                      
     l       E           TYP  RCUT    TYP  RCUT                                                     
     0    -13.7508457     23  1.500                                                                 
     0    -11.0934578     23  1.500                                                                 
     1     -5.2854381     23  1.850                                                                 
     1     -1.3099858     23  1.850                                                                 
  local pseudopotential read in
  atomic valenz-charges read in
  non local Contribution for L=            0  read in
    real space projection operators read in
  non local Contribution for L=            0  read in
    real space projection operators read in
  non local Contribution for L=            1  read in
    real space projection operators read in
  non local Contribution for L=            1  read in
    real space projection operators read in
    PAW grid and wavefunctions read in
 
   number of l-projection  operators is LMAX  =            4
   number of lm-projection operators is LMMAX =            8
 
 POTCAR:    PAW_PBE O_s 07Sep2000                 
   VRHFIN =O: s2p4                                                                                  
   LEXCH  = PE                                                                                      
   EATOM  =   432.3788 eV,   31.7789 Ry                                                             
                                                                                                    
   TITEL  = PAW_PBE O_s 07Sep2000                                                                   
   LULTRA =        F    use ultrasoft PP ?                                                          
   IUNSCR =        0    unscreen: 0-lin 1-nonlin 2-no                                               
   RPACOR =    0.000    partial core radius                                                         
   POMASS =   16.000; ZVAL   =    6.000    mass and valenz                                          
   RCORE  =    1.850    outmost cutoff radius                                                       
   RWIGS  =    1.700; RWIGS  =    0.900    wigner-seitz radius (au A)                               
   ENMAX  =  282.853; ENMIN  =  212.140 eV                                                          
   RCLOC  =    0.804    cutoff for local pot                                                        
   LCOR   =        T    correct aug charges                                                         
   LPAW   =        T    paw PP                                                                      
   EAUG   =  412.352                                                                                
   RMAX   =    1.897    core radius for proj-oper                                                   
   RAUG   =    1.300    factor for augmentation sphere                                              
   RDEP   =    1.878    radius for radial grids                                                     
   RDEPT  =    1.572    core radius for aug-charge                                                  
                                                                                                    
   Atomic configuration                                                                             
    4 entries                                                                                       
     n  l   j            E        occ.                                                              
     1  0  0.50      -514.6923   2.0000                                                             
     2  0  0.50       -23.9615   2.0000                                                             
     2  1  0.50        -9.0305   4.0000                                                             
     3  2  1.50        -1.3606   0.0000                                                             
   Description                                                                                      
     l       E           TYP  RCUT    TYP  RCUT                                                     
     0    -23.9615315     23  1.500                                                                 
     0    -25.3221141     23  1.500                                                                 
     1     -9.0304908     23  1.850                                                                 
     1     -7.3935399     23  1.850                                                                 
  local pseudopotential read in
  atomic valenz-charges read in
  non local Contribution for L=            0  read in
    real space projection operators read in
  non local Contribution for L=            0  read in
    real space projection operators read in
  non local Contribution for L=            1  read in
    real space projection operators read in
  non local Contribution for L=            1  read in
    real space projection operators read in
    PAW grid and wavefunctions read in
 
   number of l-projection  operators is LMAX  =            4
   number of lm-projection operators is LMMAX =            8
 
  PAW_PBE H_s 15May2010                 :
 energy of atom  1       EATOM=  -12.4884
 kinetic energy error for atom=    0.0000 (will be added to EATOM!!)
  PAW_PBE C_s 06Sep2000                 :
 energy of atom  2       EATOM= -147.1560
 kinetic energy error for atom=    0.0002 (will be added to EATOM!!)
  PAW_PBE O_s 07Sep2000                 :
 energy of atom  3       EATOM= -432.3788
 kinetic energy error for atom=    0.0004 (will be added to EATOM!!)
 
 
 POSCAR:  H  C  O
  positions in cartesian coordinates
  No initial velocities read in
 exchange correlation table for  LEXCH =        8
   RHO(1)=    0.500       N(1)  =     2000
   RHO(2)=  100.500       N(2)  =     4000
 


--------------------------------------------------------------------------------------------------------


 ion  position               nearest neighbor table
   1  0.001  0.050  0.973-   4 0.96
   2  0.000  0.084  1.000-   4 0.96
   3  0.001  0.222  1.000-   5 1.14
   4  0.000  0.056  0.000-   2 0.96   1 0.96
   5  0.000  0.190  1.000-   3 1.14
 
 -----------------------------------------------------------------------------
|                                                                             |
|           W    W    AA    RRRRR   N    N  II  N    N   GGGG   !!!           |
|           W    W   A  A   R    R  NN   N  II  NN   N  G    G  !!!           |
|           W    W  A    A  R    R  N N  N  II  N N  N  G       !!!           |
|           W WW W  AAAAAA  RRRRR   N  N N  II  N  N N  G  GGG   !            |
|           WW  WW  A    A  R   R   N   NN  II  N   NN  G    G                |
|           W    W  A    A  R    R  N    N  II  N    N   GGGG   !!!           |
|                                                                             |
|     The distance between some ions is very small. Please check the          |
|     nearest-neighbor list in the OUTCAR file.                               |
|     I HOPE YOU KNOW WHAT YOU ARE DOING!                                     |
|                                                                             |
 -----------------------------------------------------------------------------

  LATTYP: Found a simple cubic cell.
 ALAT       =    35.0000000000
  
  Lattice vectors:
  
 A1 = (  35.0000000000,   0.0000000000,   0.0000000000)
 A2 = (   0.0000000000,  35.0000000000,   0.0000000000)
 A3 = (   0.0000000000,   0.0000000000,  35.0000000000)


Analysis of symmetry for initial positions (statically):
=====================================================================
 Subroutine PRICEL returns:
 Original cell was already a primitive cell.
 

 Routine SETGRP: Setting up the symmetry group for a 
 simple cubic supercell.


 Subroutine GETGRP returns: Found  1 space group operations
 (whereof  1 operations were pure point group operations)
 out of a pool of 48 trial point group operations.


The static configuration has the point symmetry C_1 .


Analysis of symmetry for dynamics (positions and initial velocities):
=====================================================================
 Subroutine PRICEL returns:
 Original cell was already a primitive cell.
 

 Routine SETGRP: Setting up the symmetry group for a 
 simple cubic supercell.


 Subroutine GETGRP returns: Found  1 space group operations
 (whereof  1 operations were pure point group operations)
 out of a pool of 48 trial point group operations.


The dynamic configuration has the point symmetry C_1 .


 Subroutine INISYM returns: Found  1 space group operations
 (whereof  1 operations are pure point group operations),
 and found     1 'primitive' translations


----------------------------------------------------------------------------------------

                                     Primitive cell                                     

  volume of cell :   42875.0000

  direct lattice vectors                    reciprocal lattice vectors
    35.000000000  0.000000000  0.000000000     0.028571429  0.000000000  0.000000000
     0.000000000 35.000000000  0.000000000     0.000000000  0.028571429  0.000000000
     0.000000000  0.000000000 35.000000000     0.000000000  0.000000000  0.028571429

  length of vectors
    35.000000000 35.000000000 35.000000000     0.028571429  0.028571429  0.028571429

  position of ions in fractional coordinates (direct lattice)
     0.000785426  0.049745327  0.973385225
     0.000340417  0.083957172  0.999957468
     0.000845402  0.222206763  0.999904630
     0.000000000  0.056491600  0.000000000
     0.000228949  0.189671238  0.999969134

  ion indices of the primitive-cell ions
   primitive index   ion index
                 1           1
                 2           2
                 3           3
                 4           4
                 5           5

----------------------------------------------------------------------------------------

 
 
 KPOINTS: automatic mesh                          

Automatic generation of k-mesh.
Space group operators:
 irot       det(A)        alpha          n_x          n_y          n_z        tau_x        tau_y        tau_z
    1     1.000000     0.000000     1.000000     0.000000     0.000000     0.000000     0.000000     0.000000
 
 Subroutine IBZKPT returns following result:
 ===========================================
 
 Found      1 irreducible k-points:
 
 Following reciprocal coordinates:
            Coordinates               Weight
  0.000000  0.000000  0.000000      1.000000
 
 Following cartesian coordinates:
            Coordinates               Weight
  0.000000  0.000000  0.000000      1.000000
 


--------------------------------------------------------------------------------------------------------




 Dimension of arrays:
   k-points           NKPTS =      1   k-points in BZ     NKDIM =      1   number of bands    NBANDS=     16
   number of dos      NEDOS =    301   number of ions     NIONS =      5
   non local maximal  LDIM  =      4   non local SUM 2l+1 LMDIM =      8
   total plane-waves  NPLWV = ******
   max r-space proj   IRMAX =      1   max aug-charges    IRDMAX=  29269
   dimension x,y,z NGX =   378 NGY =  378 NGZ =  378
   dimension x,y,z NGXF=   756 NGYF=  756 NGZF=  756
   support grid    NGXF=   756 NGYF=  756 NGZF=  756
   ions per type =               2   1   2
   NGX,Y,Z   is equivalent  to a cutoff of  17.95, 17.95, 17.95 a.u.
   NGXF,Y,Z  is equivalent  to a cutoff of  35.91, 35.91, 35.91 a.u.

 SYSTEM =  C                                       
 POSCAR =   H  C  O                                

 Startparameter for this run:
   NWRITE =      2    write-flag & timer
   PREC   = acc       normal or accurate (medium, high low for compatibility)
   ISTART =      0    job   : 0-new  1-cont  2-samecut
   ICHARG =      2    charge: 1-file 2-atom 10-const
   ISPIN  =      1    spin polarized calculation?
   LNONCOLLINEAR =      F non collinear calculations
   LSORBIT =      F    spin-orbit coupling
   INIWAV =      1    electr: 0-lowe 1-rand  2-diag
   LASPH  =      T    aspherical Exc in radial PAW
   METAGGA=      F    non-selfconsistent MetaGGA calc.

 Electronic Relaxation 1
   ENCUT  = 1000.0 eV  73.50 Ry    8.57 a.u.  90.25 90.25 90.25*2*pi/ulx,y,z
   ENINI  = 1000.0     initial cutoff
   ENAUG  =  439.2 eV  augmentation charge cutoff
   NELM   =     60;   NELMIN=  2; NELMDL= -5     # of ELM steps 
   EDIFF  = 0.1E-06   stopping-criterion for ELM
   LREAL  =      F    real-space projection
   NLSPLINE    = F    spline interpolate recip. space projectors
   LCOMPAT=      F    compatible to vasp.4.4
   GGA_COMPAT  = T    GGA compatible to vasp.4.4-vasp.4.6
   LMAXPAW     = -100 max onsite density
   LMAXMIX     =    2 max onsite mixed and CHGCAR
   VOSKOWN=      0    Vosko Wilk Nusair interpolation
   ROPT   =    0.00000   0.00000   0.00000
 Ionic relaxation
   EDIFFG = 0.1E-05   stopping-criterion for IOM
   NSW    =      0    number of steps for IOM
   NBLOCK =      1;   KBLOCK =      1    inner block; outer block 
   IBRION =     -1    ionic relax: 0-MD 1-quasi-New 2-CG
   NFREE  =      0    steps in history (QN), initial steepest desc. (CG)
   ISIF   =      2    stress and relaxation
   IWAVPR =     10    prediction:  0-non 1-charg 2-wave 3-comb
   ISYM   =      2    0-nonsym 1-usesym 2-fastsym
   LCORR  =      T    Harris-Foulkes like correction to forces

   POTIM  = 0.5000    time-step for ionic-motion
   TEIN   =    0.0    initial temperature
   TEBEG  =    0.0;   TEEND  =   0.0 temperature during run
   SMASS  =  -3.00    Nose mass-parameter (am)
   estimated Nose-frequenzy (Omega)   =  0.10E-29 period in steps = 0.13E+47 mass=  -0.280E-25a.u.
   SCALEE = 1.0000    scale energy and forces
   NPACO  =    256;   APACO  = 16.0  distance and # of slots for P.C.
   PSTRESS=    0.0 pullay stress

  Mass of Ions in am
   POMASS =   1.00 12.01 16.00
  Ionic Valenz
   ZVAL   =   1.00  4.00  6.00
  Atomic Wigner-Seitz radii
   RWIGS  =  -1.00 -1.00 -1.00
  virtual crystal weights 
   VCA    =   1.00  1.00  1.00
   NELECT =      18.0000    total number of electrons
   NUPDOWN=      -1.0000    fix difference up-down

 DOS related values:
   EMIN   =  10.00;   EMAX   =-10.00  energy-range for DOS
   EFERMI =   0.00
   ISMEAR =     0;   SIGMA  =   0.01  broadening in eV -4-tet -1-fermi 0-gaus

 Electronic relaxation 2 (details)
   IALGO  =     38    algorithm
   LDIAG  =      T    sub-space diagonalisation (order eigenvalues)
   LSUBROT=      F    optimize rotation matrix (better conditioning)
   TURBO    =      0    0=normal 1=particle mesh
   IRESTART =      0    0=no restart 2=restart with 2 vectors
   NREBOOT  =      0    no. of reboots
   NMIN     =      0    reboot dimension
   EREF     =   0.00    reference energy to select bands
   IMIX   =      4    mixing-type and parameters
     AMIX     =   0.40;   BMIX     =  1.00
     AMIX_MAG =   1.60;   BMIX_MAG =  1.00
     AMIN     =   0.10
     WC   =   100.;   INIMIX=   1;  MIXPRE=   1;  MAXMIX= -45

 Intra band minimization:
   WEIMIN = 0.0000     energy-eigenvalue tresh-hold
   EBREAK =  0.16E-08  absolut break condition
   DEPER  =   0.30     relativ break condition  

   TIME   =   0.40     timestep for ELM

  volume/ion in A,a.u.               =    8575.00     57866.96
  Fermi-wavevector in a.u.,A,eV,Ry     =   0.122583  0.231649  0.204450  0.015027
  Thomas-Fermi vector in A             =   0.746568
 
 Write flags
   LWAVE        =      T    write WAVECAR
   LDOWNSAMPLE  =      F    k-point downsampling of WAVECAR
   LCHARG       =      T    write CHGCAR
   LVTOT        =      F    write LOCPOT, total local potential
   LVHAR        =      F    write LOCPOT, Hartree potential only
   LELF         =      F    write electronic localiz. function (ELF)
   LORBIT       =      0    0 simple, 1 ext, 2 COOP (PROOUT), +10 PAW based schemes


 Dipole corrections
   LMONO  =      F    monopole corrections only (constant potential shift)
   LDIPOL =      F    correct potential (dipole corrections)
   IDIPOL =      4    1-x, 2-y, 3-z, 4-all directions 
   EPSILON=  1.0000000 bulk dielectric constant

 Exchange correlation treatment:
   GGA     =    --    GGA type
   LEXCH   =     8    internal setting for exchange type
   VOSKOWN=      0    Vosko Wilk Nusair interpolation
   LHFCALC =     F    Hartree Fock is set to
   LHFONE  =     F    Hartree Fock one center treatment
   AEXX    =    0.0000 exact exchange contribution

 Linear response parameters
   LEPSILON=     F    determine dielectric tensor
   LRPA    =     F    only Hartree local field effects (RPA)
   LNABLA  =     F    use nabla operator in PAW spheres
   LVEL    =     F    velocity operator in full k-point grid
   LINTERFAST=   F  fast interpolation
   KINTER  =     0    interpolate to denser k-point grid
   CSHIFT  =0.1000    complex shift for real part using Kramers Kronig
   OMEGAMAX=  -1.0    maximum frequency
   DEG_THRESHOLD= 0.2000000E-02 threshold for treating states as degnerate
   RTIME   =   -0.100 relaxation time in fs
  (WPLASMAI=    0.000 imaginary part of plasma frequency in eV, 0.658/RTIME)
   DFIELD  = 0.0000000 0.0000000 0.0000000 field for delta impulse in time
 
 Orbital magnetization related:
   ORBITALMAG=     F  switch on orbital magnetization
   LCHIMAG   =     F  perturbation theory with respect to B field
   DQ        =  0.001000  dq finite difference perturbation B field
   LLRAUG    =     F  two centre corrections for induced B field



--------------------------------------------------------------------------------------------------------


 Static calculation
 charge density and potential will be updated during run
 non-spin polarized calculation
 Variant of blocked Davidson
 Davidson routine will perform the subspace rotation
 perform sub-space diagonalisation
    after iterative eigenvector-optimisation
 modified Broyden-mixing scheme, WC =      100.0
 initial mixing is a Kerker type mixing with AMIX =  0.4000 and BMIX =      1.0000
 Hartree-type preconditioning will be used
 using additional bands             7
 reciprocal scheme for non local part
 calculate Harris-corrections to forces 
   (improved forces if not selfconsistent)
 use gradient corrections 
 use of overlap-Matrix (Vanderbilt PP)
 Gauss-broadening in eV      SIGMA  =   0.01


--------------------------------------------------------------------------------------------------------


  energy-cutoff  :     1000.00
  volume of cell :    42875.00
      direct lattice vectors                 reciprocal lattice vectors
    35.000000000  0.000000000  0.000000000     0.028571429  0.000000000  0.000000000
     0.000000000 35.000000000  0.000000000     0.000000000  0.028571429  0.000000000
     0.000000000  0.000000000 35.000000000     0.000000000  0.000000000  0.028571429

  length of vectors
    35.000000000 35.000000000 35.000000000     0.028571429  0.028571429  0.028571429


 
 k-points in units of 2pi/SCALE and weight: automatic mesh                          
   0.00000000  0.00000000  0.00000000       1.000
 
 k-points in reciprocal lattice and weights: automatic mesh                          
   0.00000000  0.00000000  0.00000000       1.000
 
 position of ions in fractional coordinates (direct lattice) 
   0.00078543  0.04974533  0.97338523
   0.00034042  0.08395717  0.99995747
   0.00084540  0.22220676  0.99990463
   0.00000000  0.05649160  0.00000000
   0.00022895  0.18967124  0.99996913
 
 position of ions in cartesian coordinates  (Angst):
   0.02748992  1.74108643 34.06848289
   0.01191459  2.93850101 34.99851139
   0.02958908  7.77723670 34.99666206
   0.00000000  1.97720600  0.00000000
   0.00801323  6.63849332 34.99891970
 


--------------------------------------------------------------------------------------------------------


 use parallel FFT for orbitals z direction half grid
 k-point   1 :   0.0000 0.0000 0.0000  plane waves: 1539209

 maximum and minimum number of plane-waves per node :    192406   192397

 maximum number of plane-waves:   1539209
 maximum index in each direction: 
   IXMAX=   90   IYMAX=   90   IZMAX=   90
   IXMIN=  -90   IYMIN=  -90   IZMIN=    0


 parallel 3D FFT for wavefunctions:
    minimum data exchange during FFTs selected (reduces bandwidth)
 parallel 3D FFT for charge:
    minimum data exchange during FFTs selected (reduces bandwidth)


 total amount of memory used by VASP MPI-rank0  1850337. kBytes
=======================================================================

   base      :      30000. kBytes
   nonl-proj :      52334. kBytes
   fftplans  :     601440. kBytes
   grid      :    1154248. kBytes
   one-center:          1. kBytes
   wavefun   :      12314. kBytes
 
     INWAV:  cpu time    0.0000: real time    0.0000
 Broyden mixing: mesh for mixing (old mesh)
   NGX =181   NGY =181   NGZ =181
  (NGX  =756   NGY  =756   NGZ  =756)
  gives a total of ****** points

 initial charge density was supplied:
 charge density of overlapping atoms calculated
 number of electron      18.0000000 magnetization 
 keeping initial charge density in first step


--------------------------------------------------------------------------------------------------------


 Maximum index for augmentation-charges          1121 (set IRDMAX)


--------------------------------------------------------------------------------------------------------


 First call to EWALD:  gamma=   0.051
 Maximum number of real-space cells 3x 3x 3
 Maximum number of reciprocal cells 3x 3x 3

    FEWALD:  cpu time    0.0008: real time    0.0008


--------------------------------------- Iteration      1(   1)  ---------------------------------------


    POTLOK:  cpu time   11.5117: real time   11.5273
    SETDIJ:  cpu time    0.0463: real time    0.0470
     EDDAV:  cpu time    7.5023: real time    9.8637
       DOS:  cpu time    0.0099: real time    0.0099
    --------------------------------------------
      LOOP:  cpu time   19.0702: real time   21.4479

 eigenvalue-minimisations  :    48
 total energy-change (2. order) : 0.1464030E+03  (-0.3412903E+03)
 number of electron      18.0000000 magnetization 
 augmentation part       18.0000000 magnetization 

 Free energy of the ion-electron system (eV)
  ---------------------------------------------------
  alpha Z        PSCENC =         0.02234163
  Ewald energy   TEWEN  =       537.90822027
  -Hartree energ DENC   =     -1349.85794088
  -exchange      EXHF   =         0.00000000
  -V(xc)+E(xc)   XCENC  =        71.85426916
  PAW double counting   =       802.92211551     -812.08006040
  entropy T*S    EENTRO =        -0.00000000
  eigenvalues    EBANDS =      -141.25518661
  atomic energy  EATOM  =      1036.88928565
  Solvation  Ediel_sol  =         0.00000000
  ---------------------------------------------------
  free energy    TOTEN  =       146.40304434 eV

  energy without entropy =      146.40304434  energy(sigma->0) =      146.40304434


--------------------------------------------------------------------------------------------------------




--------------------------------------- Iteration      1(   2)  ---------------------------------------


     EDDAV:  cpu time    8.4034: real time    8.4201
       DOS:  cpu time    0.0180: real time    0.0180
    --------------------------------------------
      LOOP:  cpu time    8.4214: real time    8.4381

 eigenvalue-minimisations  :    56
 total energy-change (2. order) :-0.1160874E+03  (-0.1131388E+03)
 number of electron      18.0000000 magnetization 
 augmentation part       18.0000000 magnetization 

 Free energy of the ion-electron system (eV)
  ---------------------------------------------------
  alpha Z        PSCENC =         0.02234163
  Ewald energy   TEWEN  =       537.90822027
  -Hartree energ DENC   =     -1349.85794088
  -exchange      EXHF   =         0.00000000
  -V(xc)+E(xc)   XCENC  =        71.85426916
  PAW double counting   =       802.92211551     -812.08006040
  entropy T*S    EENTRO =        -0.00000000
  eigenvalues    EBANDS =      -257.34260774
  atomic energy  EATOM  =      1036.88928565
  Solvation  Ediel_sol  =         0.00000000
  ---------------------------------------------------
  free energy    TOTEN  =        30.31562321 eV

  energy without entropy =       30.31562321  energy(sigma->0) =       30.31562321


--------------------------------------------------------------------------------------------------------




--------------------------------------- Iteration      1(   3)  ---------------------------------------


     EDDAV:  cpu time    6.5900: real time    6.5992
       DOS:  cpu time    0.0252: real time    0.0252
    --------------------------------------------
      LOOP:  cpu time    6.6152: real time    6.6244

 eigenvalue-minimisations  :    40
 total energy-change (2. order) :-0.5439264E+02  (-0.5432162E+02)
 number of electron      18.0000000 magnetization 
 augmentation part       18.0000000 magnetization 

 Free energy of the ion-electron system (eV)
  ---------------------------------------------------
  alpha Z        PSCENC =         0.02234163
  Ewald energy   TEWEN  =       537.90822027
  -Hartree energ DENC   =     -1349.85794088
  -exchange      EXHF   =         0.00000000
  -V(xc)+E(xc)   XCENC  =        71.85426916
  PAW double counting   =       802.92211551     -812.08006040
  entropy T*S    EENTRO =        -0.00000000
  eigenvalues    EBANDS =      -311.73524592
  atomic energy  EATOM  =      1036.88928565
  Solvation  Ediel_sol  =         0.00000000
  ---------------------------------------------------
  free energy    TOTEN  =       -24.07701498 eV

  energy without entropy =      -24.07701498  energy(sigma->0) =      -24.07701498


--------------------------------------------------------------------------------------------------------




--------------------------------------- Iteration      1(   4)  ---------------------------------------


     EDDAV:  cpu time    7.4860: real time    7.4963
       DOS:  cpu time    0.0277: real time    0.0277
    --------------------------------------------
      LOOP:  cpu time    7.5137: real time    7.5240

 eigenvalue-minimisations  :    48
 total energy-change (2. order) :-0.6900634E+01  (-0.6889763E+01)
 number of electron      18.0000000 magnetization 
 augmentation part       18.0000000 magnetization 

 Free energy of the ion-electron system (eV)
  ---------------------------------------------------
  alpha Z        PSCENC =         0.02234163
  Ewald energy   TEWEN  =       537.90822027
  -Hartree energ DENC   =     -1349.85794088
  -exchange      EXHF   =         0.00000000
  -V(xc)+E(xc)   XCENC  =        71.85426916
  PAW double counting   =       802.92211551     -812.08006040
  entropy T*S    EENTRO =        -0.00000000
  eigenvalues    EBANDS =      -318.63588034
  atomic energy  EATOM  =      1036.88928565
  Solvation  Ediel_sol  =         0.00000000
  ---------------------------------------------------
  free energy    TOTEN  =       -30.97764940 eV

  energy without entropy =      -30.97764940  energy(sigma->0) =      -30.97764940


--------------------------------------------------------------------------------------------------------




--------------------------------------- Iteration      1(   5)  ---------------------------------------


     EDDAV:  cpu time    6.6131: real time    6.6222
       DOS:  cpu time    0.0267: real time    0.0267
    CHARGE:  cpu time    1.7510: real time    1.7532
    MIXING:  cpu time    0.2429: real time    0.2432
    --------------------------------------------
      LOOP:  cpu time    8.6338: real time    8.6454

 eigenvalue-minimisations  :    40
 total energy-change (2. order) :-0.6529906E-01  (-0.6472421E-01)
 number of electron      17.9999999 magnetization 
 augmentation part        3.0889827 magnetization 

 Broyden mixing:
  rms(total) = 0.42344E+01    rms(broyden)= 0.42344E+01
  rms(prec ) = 0.42413E+01
  weight for this iteration     100.00

 Free energy of the ion-electron system (eV)
  ---------------------------------------------------
  alpha Z        PSCENC =         0.02234163
  Ewald energy   TEWEN  =       537.90822027
  -Hartree energ DENC   =     -1349.85794088
  -exchange      EXHF   =         0.00000000
  -V(xc)+E(xc)   XCENC  =        71.85426916
  PAW double counting   =       802.92211551     -812.08006040
  entropy T*S    EENTRO =        -0.00000000
  eigenvalues    EBANDS =      -318.70117940
  atomic energy  EATOM  =      1036.88928565
  Solvation  Ediel_sol  =         0.00000000
  ---------------------------------------------------
  free energy    TOTEN  =       -31.04294846 eV

  energy without entropy =      -31.04294846  energy(sigma->0) =      -31.04294846


--------------------------------------------------------------------------------------------------------




--------------------------------------- Iteration      1(   6)  ---------------------------------------


    POTLOK:  cpu time   11.3135: real time   11.3308
    SETDIJ:  cpu time    0.0433: real time    0.0433
     EDDAV:  cpu time    6.6204: real time    6.6292
       DOS:  cpu time    0.0213: real time    0.0213
    CHARGE:  cpu time    1.7048: real time    1.7069
    MIXING:  cpu time    0.2436: real time    0.2503
    --------------------------------------------
      LOOP:  cpu time   19.9469: real time   19.9819

 eigenvalue-minimisations  :    40
 total energy-change (2. order) : 0.2631285E+01  (-0.1056700E+01)
 number of electron      18.0000000 magnetization 
 augmentation part        2.6976046 magnetization 

 Broyden mixing:
  rms(total) = 0.40153E+01    rms(broyden)= 0.40153E+01
  rms(prec ) = 0.40162E+01
  weight for this iteration     100.00

 eigenvalues of (default mixing * dielectric matrix)
  average eigenvalue GAMMA=   0.7329
  0.7329

 Free energy of the ion-electron system (eV)
  ---------------------------------------------------
  alpha Z        PSCENC =         0.02234163
  Ewald energy   TEWEN  =       537.90822027
  -Hartree energ DENC   =     -1387.11516705
  -exchange      EXHF   =         0.00000000
  -V(xc)+E(xc)   XCENC  =        73.98491265
  PAW double counting   =      1481.58343172    -1492.49398681
  entropy T*S    EENTRO =        -0.00000000
  eigenvalues    EBANDS =      -279.19070112
  atomic energy  EATOM  =      1036.88928565
  Solvation  Ediel_sol  =         0.00000000
  ---------------------------------------------------
  free energy    TOTEN  =       -28.41166305 eV

  energy without entropy =      -28.41166305  energy(sigma->0) =      -28.41166305


--------------------------------------------------------------------------------------------------------




--------------------------------------- Iteration      1(   7)  ---------------------------------------


    POTLOK:  cpu time   11.2921: real time   11.3119
    SETDIJ:  cpu time    0.0442: real time    0.0442
     EDDAV:  cpu time    5.6606: real time    5.6684
       DOS:  cpu time    0.0214: real time    0.0215
    CHARGE:  cpu time    1.7351: real time    1.7373
    MIXING:  cpu time    0.2486: real time    0.2489
    --------------------------------------------
      LOOP:  cpu time   19.0020: real time   19.0321

 eigenvalue-minimisations  :    32
 total energy-change (2. order) : 0.1834287E+00  (-0.3391954E-01)
 number of electron      18.0000000 magnetization 
 augmentation part        2.7064940 magnetization 

 Broyden mixing:
  rms(total) = 0.27828E+01    rms(broyden)= 0.27828E+01
  rms(prec ) = 0.27833E+01
  weight for this iteration     100.00

 eigenvalues of (default mixing * dielectric matrix)
  average eigenvalue GAMMA=   1.6797
  0.9805  2.3789

 Free energy of the ion-electron system (eV)
  ---------------------------------------------------
  alpha Z        PSCENC =         0.02234163
  Ewald energy   TEWEN  =       537.90822027
  -Hartree energ DENC   =     -1390.64492191
  -exchange      EXHF   =         0.00000000
  -V(xc)+E(xc)   XCENC  =        74.20646322
  PAW double counting   =      2029.84190068    -2040.59849527
  entropy T*S    EENTRO =        -0.00000000
  eigenvalues    EBANDS =      -275.85302860
  atomic energy  EATOM  =      1036.88928565
  Solvation  Ediel_sol  =         0.00000000
  ---------------------------------------------------
  free energy    TOTEN  =       -28.22823433 eV

  energy without entropy =      -28.22823433  energy(sigma->0) =      -28.22823433


--------------------------------------------------------------------------------------------------------




--------------------------------------- Iteration      1(   8)  ---------------------------------------


    POTLOK:  cpu time   11.2831: real time   11.2981
    SETDIJ:  cpu time    0.0470: real time    0.0470
     EDDAV:  cpu time    7.5073: real time    7.5176
       DOS:  cpu time    0.0195: real time    0.0195
    CHARGE:  cpu time    1.7303: real time    1.7325
    MIXING:  cpu time    0.2695: real time    0.2698
    --------------------------------------------
      LOOP:  cpu time   20.8567: real time   20.8845

 eigenvalue-minimisations  :    48
 total energy-change (2. order) : 0.1538027E+00  (-0.3692540E-01)
 number of electron      18.0000000 magnetization 
 augmentation part        2.6820038 magnetization 

 Broyden mixing:
  rms(total) = 0.43130E+00    rms(broyden)= 0.43130E+00
  rms(prec ) = 0.43198E+00
  weight for this iteration     100.00

 eigenvalues of (default mixing * dielectric matrix)
  average eigenvalue GAMMA=   1.3768
  2.5776  0.8730  0.6797

 Free energy of the ion-electron system (eV)
  ---------------------------------------------------
  alpha Z        PSCENC =         0.02234163
  Ewald energy   TEWEN  =       537.90822027
  -Hartree energ DENC   =     -1401.77066206
  -exchange      EXHF   =         0.00000000
  -V(xc)+E(xc)   XCENC  =        74.89923444
  PAW double counting   =      3637.45605341    -3648.12649595
  entropy T*S    EENTRO =        -0.00000000
  eigenvalues    EBANDS =      -265.35240902
  atomic energy  EATOM  =      1036.88928565
  Solvation  Ediel_sol  =         0.00000000
  ---------------------------------------------------
  free energy    TOTEN  =       -28.07443162 eV

  energy without entropy =      -28.07443162  energy(sigma->0) =      -28.07443162


--------------------------------------------------------------------------------------------------------




--------------------------------------- Iteration      1(   9)  ---------------------------------------


    POTLOK:  cpu time   11.3013: real time   11.3160
    SETDIJ:  cpu time    0.0454: real time    0.0454
     EDDAV:  cpu time    7.5402: real time    7.5504
       DOS:  cpu time    0.0192: real time    0.0192
    CHARGE:  cpu time    1.7134: real time    1.7154
    MIXING:  cpu time    0.2780: real time    0.2783
    --------------------------------------------
      LOOP:  cpu time   20.8976: real time   20.9247

 eigenvalue-minimisations  :    48
 total energy-change (2. order) : 0.1388603E-01  (-0.5933271E-02)
 number of electron      18.0000000 magnetization 
 augmentation part        2.6912716 magnetization 

 Broyden mixing:
  rms(total) = 0.21866E+00    rms(broyden)= 0.21866E+00
  rms(prec ) = 0.21905E+00
  weight for this iteration     100.00

 eigenvalues of (default mixing * dielectric matrix)
  average eigenvalue GAMMA=   1.3659
  2.4973  1.1096  1.1096  0.7470

 Free energy of the ion-electron system (eV)
  ---------------------------------------------------
  alpha Z        PSCENC =         0.02234163
  Ewald energy   TEWEN  =       537.90822027
  -Hartree energ DENC   =     -1401.93192152
  -exchange      EXHF   =         0.00000000
  -V(xc)+E(xc)   XCENC  =        74.90649177
  PAW double counting   =      3768.91007763    -3779.50949876
  entropy T*S    EENTRO =        -0.00000000
  eigenvalues    EBANDS =      -265.25554228
  atomic energy  EATOM  =      1036.88928565
  Solvation  Ediel_sol  =         0.00000000
  ---------------------------------------------------
  free energy    TOTEN  =       -28.06054560 eV

  energy without entropy =      -28.06054560  energy(sigma->0) =      -28.06054560


--------------------------------------------------------------------------------------------------------




--------------------------------------- Iteration      1(  10)  ---------------------------------------


    POTLOK:  cpu time   11.2905: real time   11.3117
    SETDIJ:  cpu time    0.0444: real time    0.0444
     EDDAV:  cpu time    6.5114: real time    6.5202
       DOS:  cpu time    0.0161: real time    0.0161
    CHARGE:  cpu time    1.6931: real time    1.6953
    MIXING:  cpu time    0.2817: real time    0.2820
    --------------------------------------------
      LOOP:  cpu time   19.8373: real time   19.8697

 eigenvalue-minimisations  :    40
 total energy-change (2. order) :-0.8165485E-03  (-0.8871822E-03)
 number of electron      18.0000000 magnetization 
 augmentation part        2.6876316 magnetization 

 Broyden mixing:
  rms(total) = 0.61461E-01    rms(broyden)= 0.61461E-01
  rms(prec ) = 0.62123E-01
  weight for this iteration     100.00

 eigenvalues of (default mixing * dielectric matrix)
  average eigenvalue GAMMA=   1.4441
  2.4096  2.0378  1.0285  1.0285  0.7161

 Free energy of the ion-electron system (eV)
  ---------------------------------------------------
  alpha Z        PSCENC =         0.02234163
  Ewald energy   TEWEN  =       537.90822027
  -Hartree energ DENC   =     -1401.81435359
  -exchange      EXHF   =         0.00000000
  -V(xc)+E(xc)   XCENC  =        74.87664741
  PAW double counting   =      3721.60235306    -3732.18381136
  entropy T*S    EENTRO =        -0.00000000
  eigenvalues    EBANDS =      -265.36204522
  atomic energy  EATOM  =      1036.88928565
  Solvation  Ediel_sol  =         0.00000000
  ---------------------------------------------------
  free energy    TOTEN  =       -28.06136215 eV

  energy without entropy =      -28.06136215  energy(sigma->0) =      -28.06136215


--------------------------------------------------------------------------------------------------------




--------------------------------------- Iteration      1(  11)  ---------------------------------------


    POTLOK:  cpu time   11.2993: real time   11.3145
    SETDIJ:  cpu time    0.0488: real time    0.0488
     EDDAV:  cpu time    7.4684: real time    7.4787
       DOS:  cpu time    0.0230: real time    0.0230
    CHARGE:  cpu time    1.7277: real time    1.7299
    MIXING:  cpu time    0.2784: real time    0.2788
    --------------------------------------------
      LOOP:  cpu time   20.8457: real time   20.8737

 eigenvalue-minimisations  :    48
 total energy-change (2. order) :-0.3306585E-02  (-0.3105829E-03)
 number of electron      18.0000000 magnetization 
 augmentation part        2.6902470 magnetization 

 Broyden mixing:
  rms(total) = 0.24294E-01    rms(broyden)= 0.24294E-01
  rms(prec ) = 0.25112E-01
  weight for this iteration     100.00

 eigenvalues of (default mixing * dielectric matrix)
  average eigenvalue GAMMA=   1.3502
  2.4463  1.9601  1.1933  0.8852  0.8852  0.7312

 Free energy of the ion-electron system (eV)
  ---------------------------------------------------
  alpha Z        PSCENC =         0.02234163
  Ewald energy   TEWEN  =       537.90822027
  -Hartree energ DENC   =     -1401.65357530
  -exchange      EXHF   =         0.00000000
  -V(xc)+E(xc)   XCENC  =        74.84959398
  PAW double counting   =      3715.91677047    -3726.45731984
  entropy T*S    EENTRO =        -0.00000000
  eigenvalues    EBANDS =      -265.53998559
  atomic energy  EATOM  =      1036.88928565
  Solvation  Ediel_sol  =         0.00000000
  ---------------------------------------------------
  free energy    TOTEN  =       -28.06466873 eV

  energy without entropy =      -28.06466873  energy(sigma->0) =      -28.06466873


--------------------------------------------------------------------------------------------------------




--------------------------------------- Iteration      1(  12)  ---------------------------------------


    POTLOK:  cpu time   11.2990: real time   11.3137
    SETDIJ:  cpu time    0.0455: real time    0.0455
     EDDAV:  cpu time    7.4292: real time    7.4433
       DOS:  cpu time    0.0268: real time    0.0268
    CHARGE:  cpu time    1.6990: real time    1.7011
    MIXING:  cpu time    0.2780: real time    0.2837
    --------------------------------------------
      LOOP:  cpu time   20.7775: real time   20.8141

 eigenvalue-minimisations  :    48
 total energy-change (2. order) :-0.1489037E-02  (-0.2878930E-04)
 number of electron      18.0000000 magnetization 
 augmentation part        2.6898392 magnetization 

 Broyden mixing:
  rms(total) = 0.12807E-01    rms(broyden)= 0.12807E-01
  rms(prec ) = 0.13944E-01
  weight for this iteration     100.00

 eigenvalues of (default mixing * dielectric matrix)
  average eigenvalue GAMMA=   1.5051
  2.7552  2.2345  1.8077  0.7294  1.0088  1.0088  0.9916

 Free energy of the ion-electron system (eV)
  ---------------------------------------------------
  alpha Z        PSCENC =         0.02234163
  Ewald energy   TEWEN  =       537.90822027
  -Hartree energ DENC   =     -1401.85540644
  -exchange      EXHF   =         0.00000000
  -V(xc)+E(xc)   XCENC  =        74.85689769
  PAW double counting   =      3713.17590767    -3723.71642956
  entropy T*S    EENTRO =        -0.00000000
  eigenvalues    EBANDS =      -265.34697468
  atomic energy  EATOM  =      1036.88928565
  Solvation  Ediel_sol  =         0.00000000
  ---------------------------------------------------
  free energy    TOTEN  =       -28.06615777 eV

  energy without entropy =      -28.06615777  energy(sigma->0) =      -28.06615777


--------------------------------------------------------------------------------------------------------




--------------------------------------- Iteration      1(  13)  ---------------------------------------


    POTLOK:  cpu time   11.3183: real time   11.3332
    SETDIJ:  cpu time    0.0492: real time    0.0492
     EDDAV:  cpu time    5.6687: real time    5.6940
       DOS:  cpu time    0.0215: real time    0.0215
    CHARGE:  cpu time    1.7270: real time    1.7331
    MIXING:  cpu time    0.3115: real time    0.3119
    --------------------------------------------
      LOOP:  cpu time   19.0961: real time   19.1427

 eigenvalue-minimisations  :    32
 total energy-change (2. order) :-0.4197406E-02  (-0.9425895E-04)
 number of electron      18.0000000 magnetization 
 augmentation part        2.6893245 magnetization 

 Broyden mixing:
  rms(total) = 0.58862E-02    rms(broyden)= 0.58862E-02
  rms(prec ) = 0.68622E-02
  weight for this iteration     100.00

 eigenvalues of (default mixing * dielectric matrix)
  average eigenvalue GAMMA=   1.5559
  3.4078  2.4380  1.8063  1.1057  1.1057  0.7364  0.9238  0.9238

 Free energy of the ion-electron system (eV)
  ---------------------------------------------------
  alpha Z        PSCENC =         0.02234163
  Ewald energy   TEWEN  =       537.90822027
  -Hartree energ DENC   =     -1402.23550593
  -exchange      EXHF   =         0.00000000
  -V(xc)+E(xc)   XCENC  =        74.86606798
  PAW double counting   =      3708.02418426    -3718.55992800
  entropy T*S    EENTRO =        -0.00000000
  eigenvalues    EBANDS =      -264.98502103
  atomic energy  EATOM  =      1036.88928565
  Solvation  Ediel_sol  =         0.00000000
  ---------------------------------------------------
  free energy    TOTEN  =       -28.07035517 eV

  energy without entropy =      -28.07035517  energy(sigma->0) =      -28.07035517


--------------------------------------------------------------------------------------------------------




--------------------------------------- Iteration      1(  14)  ---------------------------------------


    POTLOK:  cpu time   11.3369: real time   11.3516
    SETDIJ:  cpu time    0.0417: real time    0.0417
     EDDAV:  cpu time    7.4222: real time    7.4366
       DOS:  cpu time    0.0337: real time    0.0338
    CHARGE:  cpu time    1.7174: real time    1.7195
    MIXING:  cpu time    0.3164: real time    0.3168
    --------------------------------------------
      LOOP:  cpu time   20.8683: real time   20.9000

 eigenvalue-minimisations  :    48
 total energy-change (2. order) :-0.2458875E-02  (-0.3169799E-04)
 number of electron      18.0000000 magnetization 
 augmentation part        2.6891274 magnetization 

 Broyden mixing:
  rms(total) = 0.36079E-02    rms(broyden)= 0.36079E-02
  rms(prec ) = 0.44103E-02
  weight for this iteration     100.00

 eigenvalues of (default mixing * dielectric matrix)
  average eigenvalue GAMMA=   1.6821
  4.1977  2.5056  2.0478  1.5577  1.1179  1.1179  0.7385  0.9278  0.9278

 Free energy of the ion-electron system (eV)
  ---------------------------------------------------
  alpha Z        PSCENC =         0.02234163
  Ewald energy   TEWEN  =       537.90822027
  -Hartree energ DENC   =     -1402.36592779
  -exchange      EXHF   =         0.00000000
  -V(xc)+E(xc)   XCENC  =        74.86676006
  PAW double counting   =      3705.07474427    -3715.60850200
  entropy T*S    EENTRO =        -0.00000000
  eigenvalues    EBANDS =      -264.85973615
  atomic energy  EATOM  =      1036.88928565
  Solvation  Ediel_sol  =         0.00000000
  ---------------------------------------------------
  free energy    TOTEN  =       -28.07281405 eV

  energy without entropy =      -28.07281405  energy(sigma->0) =      -28.07281405


--------------------------------------------------------------------------------------------------------




--------------------------------------- Iteration      1(  15)  ---------------------------------------


    POTLOK:  cpu time   11.3099: real time   11.3250
    SETDIJ:  cpu time    0.0487: real time    0.0487
     EDDAV:  cpu time    7.4908: real time    7.5034
       DOS:  cpu time    0.0291: real time    0.0291
    CHARGE:  cpu time    1.7313: real time    1.7335
    MIXING:  cpu time    0.3214: real time    0.3218
    --------------------------------------------
      LOOP:  cpu time   20.9313: real time   20.9616

 eigenvalue-minimisations  :    48
 total energy-change (2. order) :-0.2992618E-02  (-0.3923090E-04)
 number of electron      18.0000000 magnetization 
 augmentation part        2.6892915 magnetization 

 Broyden mixing:
  rms(total) = 0.17341E-02    rms(broyden)= 0.17341E-02
  rms(prec ) = 0.22643E-02
  weight for this iteration     100.00

 eigenvalues of (default mixing * dielectric matrix)
  average eigenvalue GAMMA=   1.7909
  5.4663  2.5315  2.5315  1.4797  1.4023  0.9753  0.9753  0.7378  0.9637  0.8460

 Free energy of the ion-electron system (eV)
  ---------------------------------------------------
  alpha Z        PSCENC =         0.02234163
  Ewald energy   TEWEN  =       537.90822027
  -Hartree energ DENC   =     -1402.43242418
  -exchange      EXHF   =         0.00000000
  -V(xc)+E(xc)   XCENC  =        74.86334587
  PAW double counting   =      3704.67531102    -3715.20706466
  entropy T*S    EENTRO =        -0.00000000
  eigenvalues    EBANDS =      -264.79482227
  atomic energy  EATOM  =      1036.88928565
  Solvation  Ediel_sol  =         0.00000000
  ---------------------------------------------------
  free energy    TOTEN  =       -28.07580667 eV

  energy without entropy =      -28.07580667  energy(sigma->0) =      -28.07580667


--------------------------------------------------------------------------------------------------------




--------------------------------------- Iteration      1(  16)  ---------------------------------------


    POTLOK:  cpu time   11.3015: real time   11.3164
    SETDIJ:  cpu time    0.0468: real time    0.0469
     EDDAV:  cpu time    7.4271: real time    7.4372
       DOS:  cpu time    0.0227: real time    0.0227
    CHARGE:  cpu time    1.7101: real time    1.7121
    MIXING:  cpu time    0.3522: real time    0.3526
    --------------------------------------------
      LOOP:  cpu time   20.8606: real time   20.8879

 eigenvalue-minimisations  :    48
 total energy-change (2. order) :-0.1715448E-02  (-0.2372900E-04)
 number of electron      18.0000000 magnetization 
 augmentation part        2.6890028 magnetization 

 Broyden mixing:
  rms(total) = 0.98575E-03    rms(broyden)= 0.98575E-03
  rms(prec ) = 0.12541E-02
  weight for this iteration     100.00

 eigenvalues of (default mixing * dielectric matrix)
  average eigenvalue GAMMA=   1.8882
  6.4222  2.8314  2.5651  1.6693  1.6693  1.1124  1.0113  1.0113  0.7370  0.9148
  0.8262

 Free energy of the ion-electron system (eV)
  ---------------------------------------------------
  alpha Z        PSCENC =         0.02234163
  Ewald energy   TEWEN  =       537.90822027
  -Hartree energ DENC   =     -1402.49440108
  -exchange      EXHF   =         0.00000000
  -V(xc)+E(xc)   XCENC  =        74.86249494
  PAW double counting   =      3705.24926599    -3715.78126566
  entropy T*S    EENTRO =        -0.00000000
  eigenvalues    EBANDS =      -264.73346386
  atomic energy  EATOM  =      1036.88928565
  Solvation  Ediel_sol  =         0.00000000
  ---------------------------------------------------
  free energy    TOTEN  =       -28.07752212 eV

  energy without entropy =      -28.07752212  energy(sigma->0) =      -28.07752212


--------------------------------------------------------------------------------------------------------




--------------------------------------- Iteration      1(  17)  ---------------------------------------


    POTLOK:  cpu time   11.2989: real time   11.3136
    SETDIJ:  cpu time    0.0504: real time    0.0504
     EDDAV:  cpu time    5.6247: real time    5.6344
       DOS:  cpu time    0.0304: real time    0.0305
    CHARGE:  cpu time    1.7018: real time    1.7039
    MIXING:  cpu time    0.3591: real time    0.3595
    --------------------------------------------
      LOOP:  cpu time   19.0653: real time   19.0923

 eigenvalue-minimisations  :    32
 total energy-change (2. order) :-0.9522934E-03  (-0.7048326E-05)
 number of electron      18.0000000 magnetization 
 augmentation part        2.6889012 magnetization 

 Broyden mixing:
  rms(total) = 0.58281E-03    rms(broyden)= 0.58281E-03
  rms(prec ) = 0.72189E-03
  weight for this iteration     100.00

 eigenvalues of (default mixing * dielectric matrix)
  average eigenvalue GAMMA=   1.9969
  7.4249  3.3916  2.3436  2.3436  1.4982  1.4982  1.0210  1.0210  0.9214  0.9214
  0.7375  0.8410

 Free energy of the ion-electron system (eV)
  ---------------------------------------------------
  alpha Z        PSCENC =         0.02234163
  Ewald energy   TEWEN  =       537.90822027
  -Hartree energ DENC   =     -1402.50296131
  -exchange      EXHF   =         0.00000000
  -V(xc)+E(xc)   XCENC  =        74.86121424
  PAW double counting   =      3705.35123442    -3715.88320344
  entropy T*S    EENTRO =        -0.00000000
  eigenvalues    EBANDS =      -264.72460587
  atomic energy  EATOM  =      1036.88928565
  Solvation  Ediel_sol  =         0.00000000
  ---------------------------------------------------
  free energy    TOTEN  =       -28.07847441 eV

  energy without entropy =      -28.07847441  energy(sigma->0) =      -28.07847441


--------------------------------------------------------------------------------------------------------




--------------------------------------- Iteration      1(  18)  ---------------------------------------


    POTLOK:  cpu time   11.3066: real time   11.3214
    SETDIJ:  cpu time    0.0517: real time    0.0517
     EDDAV:  cpu time    7.5088: real time    7.5191
       DOS:  cpu time    0.0425: real time    0.0425
    CHARGE:  cpu time    1.7104: real time    1.7125
    MIXING:  cpu time    0.3543: real time    0.3581
    --------------------------------------------
      LOOP:  cpu time   20.9742: real time   21.0054

 eigenvalue-minimisations  :    48
 total energy-change (2. order) :-0.5199843E-03  (-0.2376306E-05)
 number of electron      18.0000000 magnetization 
 augmentation part        2.6889333 magnetization 

 Broyden mixing:
  rms(total) = 0.45277E-03    rms(broyden)= 0.45277E-03
  rms(prec ) = 0.50682E-03
  weight for this iteration     100.00

 eigenvalues of (default mixing * dielectric matrix)
  average eigenvalue GAMMA=   1.9656
  7.4717  3.4483  2.5814  2.5814  1.4845  1.4845  1.0348  1.0348  1.0723  0.7372
  0.8954  0.8954  0.8316

 Free energy of the ion-electron system (eV)
  ---------------------------------------------------
  alpha Z        PSCENC =         0.02234163
  Ewald energy   TEWEN  =       537.90822027
  -Hartree energ DENC   =     -1402.48804038
  -exchange      EXHF   =         0.00000000
  -V(xc)+E(xc)   XCENC  =        74.85970713
  PAW double counting   =      3705.08788944    -3715.61930662
  entropy T*S    EENTRO =        -0.00000000
  eigenvalues    EBANDS =      -264.73909152
  atomic energy  EATOM  =      1036.88928565
  Solvation  Ediel_sol  =         0.00000000
  ---------------------------------------------------
  free energy    TOTEN  =       -28.07899439 eV

  energy without entropy =      -28.07899439  energy(sigma->0) =      -28.07899439


--------------------------------------------------------------------------------------------------------




--------------------------------------- Iteration      1(  19)  ---------------------------------------


    POTLOK:  cpu time   11.2999: real time   11.3148
    SETDIJ:  cpu time    0.0500: real time    0.0500
     EDDAV:  cpu time    7.5086: real time    7.5272
       DOS:  cpu time    0.0273: real time    0.0273
    CHARGE:  cpu time    1.7185: real time    1.7206
    MIXING:  cpu time    0.3886: real time    0.3897
    --------------------------------------------
      LOOP:  cpu time   20.9929: real time   21.0296

 eigenvalue-minimisations  :    48
 total energy-change (2. order) :-0.2012413E-03  (-0.3527340E-06)
 number of electron      18.0000000 magnetization 
 augmentation part        2.6889455 magnetization 

 Broyden mixing:
  rms(total) = 0.20808E-03    rms(broyden)= 0.20808E-03
  rms(prec ) = 0.25812E-03
  weight for this iteration     100.00

 eigenvalues of (default mixing * dielectric matrix)
  average eigenvalue GAMMA=   2.1327
  8.6108  4.4153  3.0050  2.3799  2.1085  1.5153  1.5153  1.0255  1.0255  0.7374
  0.8966  0.8966  0.8980  0.8279

 Free energy of the ion-electron system (eV)
  ---------------------------------------------------
  alpha Z        PSCENC =         0.02234163
  Ewald energy   TEWEN  =       537.90822027
  -Hartree energ DENC   =     -1402.48112753
  -exchange      EXHF   =         0.00000000
  -V(xc)+E(xc)   XCENC  =        74.85919501
  PAW double counting   =      3705.01520861    -3715.54644802
  entropy T*S    EENTRO =        -0.00000000
  eigenvalues    EBANDS =      -264.74587126
  atomic energy  EATOM  =      1036.88928565
  Solvation  Ediel_sol  =         0.00000000
  ---------------------------------------------------
  free energy    TOTEN  =       -28.07919563 eV

  energy without entropy =      -28.07919563  energy(sigma->0) =      -28.07919563


--------------------------------------------------------------------------------------------------------




--------------------------------------- Iteration      1(  20)  ---------------------------------------


    POTLOK:  cpu time   11.2924: real time   11.3136
    SETDIJ:  cpu time    0.0482: real time    0.0482
     EDDAV:  cpu time    5.5751: real time    5.5851
       DOS:  cpu time    0.0216: real time    0.0216
    CHARGE:  cpu time    1.6971: real time    1.6991
    MIXING:  cpu time    0.3792: real time    0.3797
    --------------------------------------------
      LOOP:  cpu time   19.0134: real time   19.0473

 eigenvalue-minimisations  :    32
 total energy-change (2. order) :-0.1821950E-03  (-0.3672068E-06)
 number of electron      18.0000000 magnetization 
 augmentation part        2.6889524 magnetization 

 Broyden mixing:
  rms(total) = 0.12239E-03    rms(broyden)= 0.12239E-03
  rms(prec ) = 0.14183E-03
  weight for this iteration     100.00

 eigenvalues of (default mixing * dielectric matrix)
  average eigenvalue GAMMA=   2.0930
  8.7620  4.6517  2.9385  2.3608  2.3608  1.4834  1.4834  1.0237  1.0237  0.7374
  0.9771  0.9771  0.8566  0.8795  0.8795

 Free energy of the ion-electron system (eV)
  ---------------------------------------------------
  alpha Z        PSCENC =         0.02234163
  Ewald energy   TEWEN  =       537.90822027
  -Hartree energ DENC   =     -1402.47735774
  -exchange      EXHF   =         0.00000000
  -V(xc)+E(xc)   XCENC  =        74.85884894
  PAW double counting   =      3705.05748008    -3715.58887818
  entropy T*S    EENTRO =        -0.00000000
  eigenvalues    EBANDS =      -264.74931848
  atomic energy  EATOM  =      1036.88928565
  Solvation  Ediel_sol  =         0.00000000
  ---------------------------------------------------
  free energy    TOTEN  =       -28.07937783 eV

  energy without entropy =      -28.07937783  energy(sigma->0) =      -28.07937783


--------------------------------------------------------------------------------------------------------




--------------------------------------- Iteration      1(  21)  ---------------------------------------


    POTLOK:  cpu time   11.3082: real time   11.3236
    SETDIJ:  cpu time    0.0437: real time    0.0437
     EDDAV:  cpu time    7.5242: real time    7.5344
       DOS:  cpu time    0.0234: real time    0.0234
    CHARGE:  cpu time    1.7178: real time    1.7201
    MIXING:  cpu time    0.3872: real time    0.3878
    --------------------------------------------
      LOOP:  cpu time   21.0047: real time   21.0330

 eigenvalue-minimisations  :    48
 total energy-change (2. order) :-0.4540137E-04  (-0.2809933E-07)
 number of electron      18.0000000 magnetization 
 augmentation part        2.6889415 magnetization 

 Broyden mixing:
  rms(total) = 0.75716E-04    rms(broyden)= 0.75716E-04
  rms(prec ) = 0.91739E-04
  weight for this iteration     100.00

 eigenvalues of (default mixing * dielectric matrix)
  average eigenvalue GAMMA=   2.1823
  9.0760  5.3753  3.1839  2.6937  2.3706  1.8267  1.5561  1.5561  1.0376  1.0376
  0.7373  0.9192  0.9192  0.8893  0.8693  0.8693

 Free energy of the ion-electron system (eV)
  ---------------------------------------------------
  alpha Z        PSCENC =         0.02234163
  Ewald energy   TEWEN  =       537.90822027
  -Hartree energ DENC   =     -1402.47768503
  -exchange      EXHF   =         0.00000000
  -V(xc)+E(xc)   XCENC  =        74.85884258
  PAW double counting   =      3705.02895923    -3715.56045473
  entropy T*S    EENTRO =        -0.00000000
  eigenvalues    EBANDS =      -264.74893284
  atomic energy  EATOM  =      1036.88928565
  Solvation  Ediel_sol  =         0.00000000
  ---------------------------------------------------
  free energy    TOTEN  =       -28.07942323 eV

  energy without entropy =      -28.07942323  energy(sigma->0) =      -28.07942323


--------------------------------------------------------------------------------------------------------




--------------------------------------- Iteration      1(  22)  ---------------------------------------


    POTLOK:  cpu time   11.2836: real time   11.2983
    SETDIJ:  cpu time    0.0439: real time    0.0439
     EDDAV:  cpu time    5.6258: real time    5.6335
       DOS:  cpu time    0.0286: real time    0.0286
    CHARGE:  cpu time    1.7160: real time    1.7186
    MIXING:  cpu time    0.3969: real time    0.3975
    --------------------------------------------
      LOOP:  cpu time   19.0947: real time   19.1203

 eigenvalue-minimisations  :    32
 total energy-change (2. order) :-0.5606569E-04  (-0.5723881E-07)
 number of electron      18.0000000 magnetization 
 augmentation part        2.6889435 magnetization 

 Broyden mixing:
  rms(total) = 0.50899E-04    rms(broyden)= 0.50899E-04
  rms(prec ) = 0.56456E-04
  weight for this iteration     100.00

 eigenvalues of (default mixing * dielectric matrix)
  average eigenvalue GAMMA=   2.2040
  9.1657  5.9995  3.7228  2.6372  2.3418  2.3418  1.4888  1.4888  1.0380  1.0380
  0.7374  0.9653  0.9653  0.9061  0.9061  0.8625  0.8625

 Free energy of the ion-electron system (eV)
  ---------------------------------------------------
  alpha Z        PSCENC =         0.02234163
  Ewald energy   TEWEN  =       537.90822027
  -Hartree energ DENC   =     -1402.47761514
  -exchange      EXHF   =         0.00000000
  -V(xc)+E(xc)   XCENC  =        74.85878767
  PAW double counting   =      3705.02274369    -3715.55421977
  entropy T*S    EENTRO =        -0.00000000
  eigenvalues    EBANDS =      -264.74902330
  atomic energy  EATOM  =      1036.88928565
  Solvation  Ediel_sol  =         0.00000000
  ---------------------------------------------------
  free energy    TOTEN  =       -28.07947930 eV

  energy without entropy =      -28.07947930  energy(sigma->0) =      -28.07947930


--------------------------------------------------------------------------------------------------------




--------------------------------------- Iteration      1(  23)  ---------------------------------------


    POTLOK:  cpu time   11.2855: real time   11.3005
    SETDIJ:  cpu time    0.0443: real time    0.0443
     EDDAV:  cpu time    6.5461: real time    6.5550
       DOS:  cpu time    0.0147: real time    0.0148
    CHARGE:  cpu time    1.6774: real time    1.6819
    MIXING:  cpu time    0.4449: real time    0.4456
    --------------------------------------------
      LOOP:  cpu time   20.0130: real time   20.0420

 eigenvalue-minimisations  :    40
 total energy-change (2. order) :-0.1696804E-04  (-0.1012642E-07)
 number of electron      18.0000000 magnetization 
 augmentation part        2.6889420 magnetization 

 Broyden mixing:
  rms(total) = 0.25890E-04    rms(broyden)= 0.25890E-04
  rms(prec ) = 0.29845E-04
  weight for this iteration     100.00

 eigenvalues of (default mixing * dielectric matrix)
  average eigenvalue GAMMA=   2.1590
  9.2228  6.1633  3.8995  2.7231  2.4357  2.2445  1.5218  1.3272  1.3272  1.0504
  1.0504  0.7373  0.9898  0.9155  0.9155  0.8563  0.8563  0.6250

 Free energy of the ion-electron system (eV)
  ---------------------------------------------------
  alpha Z        PSCENC =         0.02234163
  Ewald energy   TEWEN  =       537.90822027
  -Hartree energ DENC   =     -1402.47823735
  -exchange      EXHF   =         0.00000000
  -V(xc)+E(xc)   XCENC  =        74.85879474
  PAW double counting   =      3705.05230040    -3715.58375580
  entropy T*S    EENTRO =        -0.00000000
  eigenvalues    EBANDS =      -264.74844581
  atomic energy  EATOM  =      1036.88928565
  Solvation  Ediel_sol  =         0.00000000
  ---------------------------------------------------
  free energy    TOTEN  =       -28.07949626 eV

  energy without entropy =      -28.07949626  energy(sigma->0) =      -28.07949626


--------------------------------------------------------------------------------------------------------




--------------------------------------- Iteration      1(  24)  ---------------------------------------


    POTLOK:  cpu time   11.2720: real time   11.2866
    SETDIJ:  cpu time    0.0431: real time    0.0431
     EDDAV:  cpu time    4.7079: real time    4.7143
       DOS:  cpu time    0.0207: real time    0.0207
    CHARGE:  cpu time    1.7022: real time    1.7043
    MIXING:  cpu time    0.4472: real time    0.4478
    --------------------------------------------
      LOOP:  cpu time   18.1931: real time   18.2168

 eigenvalue-minimisations  :    24
 total energy-change (2. order) :-0.8039195E-05  (-0.3944821E-08)
 number of electron      18.0000000 magnetization 
 augmentation part        2.6889388 magnetization 

 Broyden mixing:
  rms(total) = 0.20465E-04    rms(broyden)= 0.20465E-04
  rms(prec ) = 0.22844E-04
  weight for this iteration     100.00

 eigenvalues of (default mixing * dielectric matrix)
  average eigenvalue GAMMA=   2.1960
  9.4188  6.4254  4.3273  3.0878  2.4699  2.1416  2.1416  1.5102  1.5102  1.0369
  1.0369  1.0201  0.9196  0.9196  0.7374  0.8567  0.8567  0.8142  0.4938

 Free energy of the ion-electron system (eV)
  ---------------------------------------------------
  alpha Z        PSCENC =         0.02234163
  Ewald energy   TEWEN  =       537.90822027
  -Hartree energ DENC   =     -1402.47873324
  -exchange      EXHF   =         0.00000000
  -V(xc)+E(xc)   XCENC  =        74.85880973
  PAW double counting   =      3705.05092127    -3715.58238220
  entropy T*S    EENTRO =        -0.00000000
  eigenvalues    EBANDS =      -264.74796742
  atomic energy  EATOM  =      1036.88928565
  Solvation  Ediel_sol  =         0.00000000
  ---------------------------------------------------
  free energy    TOTEN  =       -28.07950430 eV

  energy without entropy =      -28.07950430  energy(sigma->0) =      -28.07950430


--------------------------------------------------------------------------------------------------------




--------------------------------------- Iteration      1(  25)  ---------------------------------------


    POTLOK:  cpu time   11.2775: real time   11.3003
    SETDIJ:  cpu time    0.0434: real time    0.0434
     EDDAV:  cpu time    4.7330: real time    4.7393
       DOS:  cpu time    0.0152: real time    0.0152
    CHARGE:  cpu time    1.7208: real time    1.7229
    MIXING:  cpu time    0.4709: real time    0.4716
    --------------------------------------------
      LOOP:  cpu time   18.2608: real time   18.2927

 eigenvalue-minimisations  :    24
 total energy-change (2. order) :-0.6779884E-05  (-0.4309664E-08)
 number of electron      18.0000000 magnetization 
 augmentation part        2.6889401 magnetization 

 Broyden mixing:
  rms(total) = 0.14323E-04    rms(broyden)= 0.14323E-04
  rms(prec ) = 0.15391E-04
  weight for this iteration     100.00

 eigenvalues of (default mixing * dielectric matrix)
  average eigenvalue GAMMA=   2.2091
  9.6233  6.5695  4.6422  3.1298  2.6320  2.3955  2.3955  1.4666  1.4666  1.2221
  1.0388  1.0388  0.7374  0.9232  0.9232  0.9709  0.8657  0.8657  0.8236  0.4511

 Free energy of the ion-electron system (eV)
  ---------------------------------------------------
  alpha Z        PSCENC =         0.02234163
  Ewald energy   TEWEN  =       537.90822027
  -Hartree energ DENC   =     -1402.47885535
  -exchange      EXHF   =         0.00000000
  -V(xc)+E(xc)   XCENC  =        74.85880432
  PAW double counting   =      3705.05518397    -3715.58663993
  entropy T*S    EENTRO =        -0.00000000
  eigenvalues    EBANDS =      -264.74785165
  atomic energy  EATOM  =      1036.88928565
  Solvation  Ediel_sol  =         0.00000000
  ---------------------------------------------------
  free energy    TOTEN  =       -28.07951108 eV

  energy without entropy =      -28.07951108  energy(sigma->0) =      -28.07951108


--------------------------------------------------------------------------------------------------------




--------------------------------------- Iteration      1(  26)  ---------------------------------------


    POTLOK:  cpu time   11.2828: real time   11.2978
    SETDIJ:  cpu time    0.0436: real time    0.0436
     EDDAV:  cpu time    6.6313: real time    6.6419
       DOS:  cpu time    0.0302: real time    0.0302
    CHARGE:  cpu time    1.6990: real time    1.7010
    MIXING:  cpu time    0.5104: real time    0.5138
    --------------------------------------------
      LOOP:  cpu time   20.1974: real time   20.2284

 eigenvalue-minimisations  :    40
 total energy-change (2. order) :-0.2748352E-05  (-0.1569271E-08)
 number of electron      18.0000000 magnetization 
 augmentation part        2.6889409 magnetization 

 Broyden mixing:
  rms(total) = 0.10806E-04    rms(broyden)= 0.10806E-04
  rms(prec ) = 0.11358E-04
  weight for this iteration     100.00

 eigenvalues of (default mixing * dielectric matrix)
  average eigenvalue GAMMA=   2.2023
  9.7065  6.7846  4.9804  3.3100  2.7546  2.3983  2.1978  1.5854  1.3905  1.3905
  1.1944  1.0406  1.0406  0.9197  0.9197  0.7374  0.9213  0.8639  0.8639  0.8193
  0.4287

 Free energy of the ion-electron system (eV)
  ---------------------------------------------------
  alpha Z        PSCENC =         0.02234163
  Ewald energy   TEWEN  =       537.90822027
  -Hartree energ DENC   =     -1402.47884318
  -exchange      EXHF   =         0.00000000
  -V(xc)+E(xc)   XCENC  =        74.85880078
  PAW double counting   =      3705.04542469    -3715.57687511
  entropy T*S    EENTRO =        -0.00000000
  eigenvalues    EBANDS =      -264.74786856
  atomic energy  EATOM  =      1036.88928565
  Solvation  Ediel_sol  =         0.00000000
  ---------------------------------------------------
  free energy    TOTEN  =       -28.07951383 eV

  energy without entropy =      -28.07951383  energy(sigma->0) =      -28.07951383


--------------------------------------------------------------------------------------------------------




--------------------------------------- Iteration      1(  27)  ---------------------------------------


    POTLOK:  cpu time   11.2630: real time   11.2808
    SETDIJ:  cpu time    0.0454: real time    0.0454
     EDDAV:  cpu time    4.6731: real time    4.6964
       DOS:  cpu time    0.0251: real time    0.0251
    CHARGE:  cpu time    1.7279: real time    1.7329
    MIXING:  cpu time    0.5026: real time    0.5034
    --------------------------------------------
      LOOP:  cpu time   18.2371: real time   18.2840

 eigenvalue-minimisations  :    24
 total energy-change (2. order) :-0.1287703E-05  (-0.1050074E-08)
 number of electron      18.0000000 magnetization 
 augmentation part        2.6889416 magnetization 

 Broyden mixing:
  rms(total) = 0.42235E-05    rms(broyden)= 0.42235E-05
  rms(prec ) = 0.48478E-05
  weight for this iteration     100.00

 eigenvalues of (default mixing * dielectric matrix)
  average eigenvalue GAMMA=   2.1965
  9.6502  7.0518  5.0258  3.6435  2.7240  2.4593  2.0975  2.0975  1.4971  1.4971
  1.2071  1.0381  1.0381  0.9334  0.9334  0.7374  0.9151  0.8647  0.8647  0.8208
  0.7992  0.4278

 Free energy of the ion-electron system (eV)
  ---------------------------------------------------
  alpha Z        PSCENC =         0.02234163
  Ewald energy   TEWEN  =       537.90822027
  -Hartree energ DENC   =     -1402.47884888
  -exchange      EXHF   =         0.00000000
  -V(xc)+E(xc)   XCENC  =        74.85879957
  PAW double counting   =      3705.04789983    -3715.57934901
  entropy T*S    EENTRO =        -0.00000000
  eigenvalues    EBANDS =      -264.74786419
  atomic energy  EATOM  =      1036.88928565
  Solvation  Ediel_sol  =         0.00000000
  ---------------------------------------------------
  free energy    TOTEN  =       -28.07951512 eV

  energy without entropy =      -28.07951512  energy(sigma->0) =      -28.07951512


--------------------------------------------------------------------------------------------------------




--------------------------------------- Iteration      1(  28)  ---------------------------------------


    POTLOK:  cpu time   11.2668: real time   11.2815
    SETDIJ:  cpu time    0.0434: real time    0.0435
     EDDAV:  cpu time    4.6780: real time    4.6844
       DOS:  cpu time    0.0263: real time    0.0263
    CHARGE:  cpu time    1.6779: real time    1.6800
    MIXING:  cpu time    0.5445: real time    0.5453
    --------------------------------------------
      LOOP:  cpu time   18.2370: real time   18.2610

 eigenvalue-minimisations  :    24
 total energy-change (2. order) :-0.9442895E-06  (-0.8148540E-09)
 number of electron      18.0000000 magnetization 
 augmentation part        2.6889410 magnetization 

 Broyden mixing:
  rms(total) = 0.42913E-05    rms(broyden)= 0.42913E-05
  rms(prec ) = 0.45199E-05
  weight for this iteration     100.00

 eigenvalues of (default mixing * dielectric matrix)
  average eigenvalue GAMMA=   2.2045
  9.6676  7.2246  5.2605  3.9340  2.5945  2.5945  2.3976  2.3976  1.4045  1.4045
  1.2791  1.2791  1.0371  1.0371  0.9214  0.9214  0.8953  0.8348  0.8348  0.8585
  0.7374  0.7632  0.4251

 Free energy of the ion-electron system (eV)
  ---------------------------------------------------
  alpha Z        PSCENC =         0.02234163
  Ewald energy   TEWEN  =       537.90822027
  -Hartree energ DENC   =     -1402.47881009
  -exchange      EXHF   =         0.00000000
  -V(xc)+E(xc)   XCENC  =        74.85879798
  PAW double counting   =      3705.04871587    -3715.58016915
  entropy T*S    EENTRO =        -0.00000000
  eigenvalues    EBANDS =      -264.74789823
  atomic energy  EATOM  =      1036.88928565
  Solvation  Ediel_sol  =         0.00000000
  ---------------------------------------------------
  free energy    TOTEN  =       -28.07951606 eV

  energy without entropy =      -28.07951606  energy(sigma->0) =      -28.07951606


--------------------------------------------------------------------------------------------------------




--------------------------------------- Iteration      1(  29)  ---------------------------------------


    POTLOK:  cpu time   11.2671: real time   11.2993
    SETDIJ:  cpu time    0.0431: real time    0.0431
     EDDAV:  cpu time    6.5962: real time    6.6051
       DOS:  cpu time    0.0251: real time    0.0251
    CHARGE:  cpu time    1.7245: real time    1.7266
    MIXING:  cpu time    0.5296: real time    0.5304
    --------------------------------------------
      LOOP:  cpu time   20.1855: real time   20.2295

 eigenvalue-minimisations  :    40
 total energy-change (2. order) :-0.4707690E-06  (-0.6264465E-09)
 number of electron      18.0000000 magnetization 
 augmentation part        2.6889411 magnetization 

 Broyden mixing:
  rms(total) = 0.27246E-05    rms(broyden)= 0.27246E-05
  rms(prec ) = 0.28649E-05
  weight for this iteration     100.00

 eigenvalues of (default mixing * dielectric matrix)
  average eigenvalue GAMMA=   2.2117
  9.7294  7.4669  5.4965  4.1065  2.8439  2.8439  2.3272  1.9820  1.9820  1.4965
  1.4965  1.1817  1.0423  1.0423  0.9372  0.9372  0.9307  0.8626  0.8626  0.8037
  0.8037  0.7387  0.7408  0.4252

 Free energy of the ion-electron system (eV)
  ---------------------------------------------------
  alpha Z        PSCENC =         0.02234163
  Ewald energy   TEWEN  =       537.90822027
  -Hartree energ DENC   =     -1402.47881489
  -exchange      EXHF   =         0.00000000
  -V(xc)+E(xc)   XCENC  =        74.85879773
  PAW double counting   =      3705.04847979    -3715.57993465
  entropy T*S    EENTRO =        -0.00000000
  eigenvalues    EBANDS =      -264.74789206
  atomic energy  EATOM  =      1036.88928565
  Solvation  Ediel_sol  =         0.00000000
  ---------------------------------------------------
  free energy    TOTEN  =       -28.07951654 eV

  energy without entropy =      -28.07951654  energy(sigma->0) =      -28.07951654


--------------------------------------------------------------------------------------------------------




--------------------------------------- Iteration      1(  30)  ---------------------------------------


    POTLOK:  cpu time   11.2442: real time   11.2591
    SETDIJ:  cpu time    0.0473: real time    0.0473
     EDDAV:  cpu time    4.6858: real time    4.7006
       DOS:  cpu time    0.0227: real time    0.0227
    CHARGE:  cpu time    1.7218: real time    1.7240
    MIXING:  cpu time    0.5544: real time    0.5552
    --------------------------------------------
      LOOP:  cpu time   18.2763: real time   18.3090

 eigenvalue-minimisations  :    24
 total energy-change (2. order) :-0.2296520E-06  (-0.5210854E-09)
 number of electron      18.0000000 magnetization 
 augmentation part        2.6889412 magnetization 

 Broyden mixing:
  rms(total) = 0.25579E-05    rms(broyden)= 0.25579E-05
  rms(prec ) = 0.26224E-05
  weight for this iteration     100.00

 eigenvalues of (default mixing * dielectric matrix)
  average eigenvalue GAMMA=   2.2125
  9.7526  7.6093  5.7175  4.3374  3.0224  2.8068  2.3026  2.2212  2.2212  1.5044
  1.5044  1.1217  1.1217  1.0403  1.0403  0.9179  0.9179  0.9584  0.7374  0.8693
  0.8693  0.8318  0.8318  0.6294  0.4248

 Free energy of the ion-electron system (eV)
  ---------------------------------------------------
  alpha Z        PSCENC =         0.02234163
  Ewald energy   TEWEN  =       537.90822027
  -Hartree energ DENC   =     -1402.47878926
  -exchange      EXHF   =         0.00000000
  -V(xc)+E(xc)   XCENC  =        74.85879607
  PAW double counting   =      3705.04750479    -3715.57895887
  entropy T*S    EENTRO =        -0.00000000
  eigenvalues    EBANDS =      -264.74791704
  atomic energy  EATOM  =      1036.88928565
  Solvation  Ediel_sol  =         0.00000000
  ---------------------------------------------------
  free energy    TOTEN  =       -28.07951676 eV

  energy without entropy =      -28.07951676  energy(sigma->0) =      -28.07951676


--------------------------------------------------------------------------------------------------------




--------------------------------------- Iteration      1(  31)  ---------------------------------------


    POTLOK:  cpu time   11.2308: real time   11.2460
    SETDIJ:  cpu time    0.0440: real time    0.0440
     EDDAV:  cpu time    4.7010: real time    4.7074
       DOS:  cpu time    0.0195: real time    0.0196
    CHARGE:  cpu time    1.6836: real time    1.6861
    MIXING:  cpu time    0.6389: real time    0.6398
    --------------------------------------------
      LOOP:  cpu time   18.3178: real time   18.3428

 eigenvalue-minimisations  :    24
 total energy-change (2. order) :-0.1523565E-06  (-0.4495746E-09)
 number of electron      18.0000000 magnetization 
 augmentation part        2.6889412 magnetization 

 Broyden mixing:
  rms(total) = 0.10371E-05    rms(broyden)= 0.10371E-05
  rms(prec ) = 0.10943E-05
  weight for this iteration     100.00

 eigenvalues of (default mixing * dielectric matrix)
  average eigenvalue GAMMA=   2.2020
  9.7767  7.6989  5.9298  4.4453  3.3905  2.5525  2.5525  2.3568  2.3568  1.4824
  1.4824  1.1725  1.1725  1.0405  1.0405  0.9344  0.9344  0.9691  0.7374  0.8804
  0.8804  0.8860  0.8388  0.6576  0.6576  0.4248

 Free energy of the ion-electron system (eV)
  ---------------------------------------------------
  alpha Z        PSCENC =         0.02234163
  Ewald energy   TEWEN  =       537.90822027
  -Hartree energ DENC   =     -1402.47877539
  -exchange      EXHF   =         0.00000000
  -V(xc)+E(xc)   XCENC  =        74.85879492
  PAW double counting   =      3705.04901174    -3715.58046462
  entropy T*S    EENTRO =        -0.00000000
  eigenvalues    EBANDS =      -264.74793112
  atomic energy  EATOM  =      1036.88928565
  Solvation  Ediel_sol  =         0.00000000
  ---------------------------------------------------
  free energy    TOTEN  =       -28.07951692 eV

  energy without entropy =      -28.07951692  energy(sigma->0) =      -28.07951692


--------------------------------------------------------------------------------------------------------




--------------------------------------- Iteration      1(  32)  ---------------------------------------


    POTLOK:  cpu time   11.2359: real time   11.2528
    SETDIJ:  cpu time    0.0464: real time    0.0464
     EDDAV:  cpu time    6.6384: real time    6.6474
       DOS:  cpu time    0.0219: real time    0.0219
    --------------------------------------------
      LOOP:  cpu time   17.9426: real time   17.9686

 eigenvalue-minimisations  :    40
 total energy-change (2. order) :-0.6304344E-07  (-0.4026752E-09)
 number of electron      18.0000000 magnetization 
 augmentation part        2.6889412 magnetization 

 Free energy of the ion-electron system (eV)
  ---------------------------------------------------
  alpha Z        PSCENC =         0.02234163
  Ewald energy   TEWEN  =       537.90822027
  -Hartree energ DENC   =     -1402.47878007
  -exchange      EXHF   =         0.00000000
  -V(xc)+E(xc)   XCENC  =        74.85879518
  PAW double counting   =      3705.04894069    -3715.58039357
  entropy T*S    EENTRO =        -0.00000000
  eigenvalues    EBANDS =      -264.74792676
  atomic energy  EATOM  =      1036.88928565
  Solvation  Ediel_sol  =         0.00000000
  ---------------------------------------------------
  free energy    TOTEN  =       -28.07951698 eV

  energy without entropy =      -28.07951698  energy(sigma->0) =      -28.07951698


--------------------------------------------------------------------------------------------------------




 average (electrostatic) potential at core
  the test charge radii are     0.6256  0.8471  0.8742
  (the norm of the test charge is              1.0000)
       1 -41.4030       2 -41.3847       3 -86.8622       4 -90.6895       5 -94.0322
 
 
 
 E-fermi :  -7.1523     XC(G=0):  -0.0356     alpha+bet : -0.0076


 k-point     1 :       0.0000    0.0000    0.0000
  band No.  band energies     occupation 
      1     -29.8359      2.00000
      2     -25.4667      2.00000
      3     -14.2368      2.00000
      4     -13.1219      2.00000
      5     -12.0732      2.00000
      6     -12.0726      2.00000
      7      -9.1939      2.00000
      8      -9.1641      2.00000
      9      -7.2088      2.00000
     10      -2.4375      0.00000
     11      -2.4368      0.00000
     12      -1.0254      0.00000
     13      -0.0468      0.00000
     14       0.0124      0.00000
     15       0.1015      0.00000
     16       0.1061      0.00000


--------------------------------------------------------------------------------------------------------


 soft charge-density along one line, spin component            1
         0         1         2         3         4         5         6         7         8         9
 total charge-density along one line
 
 pseudopotential strength for first ion, spin component:            1
 -2.341  -3.716  -0.007  -0.024   0.001
 -3.716  -5.731  -0.014  -0.047   0.001
 -0.007  -0.014  -0.124   0.008  -0.000
 -0.024  -0.047   0.008  -0.097  -0.001
  0.001   0.001  -0.000  -0.001  -0.128
 total augmentation occupancy for first ion, spin component:            1
  2.826  -0.512   0.262   1.014  -0.030
 -0.512   0.212  -0.018  -0.122   0.004
  0.262  -0.018   0.090   0.089  -0.003
  1.014  -0.122   0.089   0.402  -0.009
 -0.030   0.004  -0.003  -0.009   0.103


------------------------ aborting loop because EDIFF is reached ----------------------------------------



 DIPCOR: dipole corrections for dipol
 direction  1 min pos   291, direction  2 min pos   380, direction  3 min pos   374,
 dipolmoment          -0.012516     -0.231627      0.306272 electrons x Angstroem
 Tr[quadrupol]         8.208095

 energy correction for charged system         0.000000 eV
 dipol+quadrupol energy correction            0.000104 eV
 added-field ion interaction          0.000000 eV  (added to PSCEN)

 
  *************** adding dipol energy to TOTEN NOW **************** 
    CHARGE:  cpu time    1.6791: real time    1.6811
    FORLOC:  cpu time    0.5462: real time    0.5469
    FORNL :  cpu time    0.1470: real time    0.1472
    STRESS:  cpu time    2.6244: real time    2.6286
    FORHAR:  cpu time    3.3065: real time    3.3108
    MIXING:  cpu time    0.6103: real time    0.6113
    OFIELD:  cpu time    0.0000: real time    0.0000

  FORCE on cell =-STRESS in cart. coord.  units (eV):
  Direction    XX          YY          ZZ          XY          YZ          ZX
  --------------------------------------------------------------------------------------
  Alpha Z     0.02234     0.02234     0.02234
  Ewald     -63.54495   576.39961    25.05302     6.59096    29.67091    -2.57478
  Hartree   346.80775   693.33621   362.33483     2.56692     6.95706    -0.45215
  E(xc)     -79.81069   -78.21998   -79.44766     0.02445     0.08863    -0.01080
  Local    -639.42319 -1565.70791  -714.43418    -8.49981   -28.63317     2.17354
  n-local    60.10327    45.72222    55.93981    -0.22616    -0.50959     0.13004
  augment    91.26989    84.55353    85.67354    -0.03681    -1.48552     0.16456
  Kinetic   284.57711   251.40480   266.47625    -0.30744    -5.53197     0.52357
  Fock        0.00000     0.00000     0.00000     0.00000     0.00000     0.00000
  -------------------------------------------------------------------------------------
  Total       0.00153     7.51082     1.61796     0.11210     0.55635    -0.04602
  in kB       0.00006     0.28067     0.06046     0.00419     0.02079    -0.00172
  external pressure =        0.11 kB  Pullay stress =        0.00 kB


 VOLUME and BASIS-vectors are now :
 -----------------------------------------------------------------------------
  energy-cutoff  :     1000.00
  volume of cell :    42875.00
      direct lattice vectors                 reciprocal lattice vectors
    35.000000000  0.000000000  0.000000000     0.028571429  0.000000000  0.000000000
     0.000000000 35.000000000  0.000000000     0.000000000  0.028571429  0.000000000
     0.000000000  0.000000000 35.000000000     0.000000000  0.000000000  0.028571429

  length of vectors
    35.000000000 35.000000000 35.000000000     0.028571429  0.028571429  0.028571429


 FORCES acting on ions
    electron-ion (+dipol)            ewald-force                    non-local-force                 convergence-correction
 -----------------------------------------------------------------------------------------------
   -.248E+01 0.300E+02 0.861E+02   0.275E+01 -.328E+02 -.953E+02   -.217E+00 0.218E+01 0.746E+01   0.102E-07 -.327E-06 -.880E-06
   -.988E+00 -.801E+02 -.326E+01   0.109E+01 0.897E+02 0.370E+01   -.872E-01 -.778E+01 -.267E+00   -.128E-07 0.108E-05 0.391E-06
   -.439E+01 -.243E+03 0.222E+00   0.511E+01 0.280E+03 -.305E+00   -.620E+00 -.327E+02 0.756E-01   0.240E-06 -.220E-05 -.432E-06
   0.165E+01 0.624E+02 -.368E+02   -.392E+01 -.104E+03 0.907E+02   0.221E+01 0.406E+02 -.523E+02   -.346E-06 -.146E-06 0.419E-05
   0.355E+01 0.156E+03 -.945E+00   -.503E+01 -.233E+03 0.116E+01   0.138E+01 0.721E+02 -.214E+00   -.339E-08 -.133E-04 0.783E-07
 -----------------------------------------------------------------------------------------------
   -.266E+01 -.744E+02 0.453E+02   -.888E-15 0.000E+00 0.127E-13   0.266E+01 0.744E+02 -.453E+02   -.112E-06 -.149E-04 0.335E-05
 
 
 POSITION                                       TOTAL-FORCE (eV/Angst)
 -----------------------------------------------------------------------------------
      0.02749      1.74109     34.06848         0.049146     -0.612242     -1.739854
      0.01191      2.93850     34.99851         0.016908      1.858144      0.165695
      0.02959      7.77724     34.99666         0.093444      4.955227     -0.007440
      0.00000      1.97721      0.00000        -0.066297     -1.233085      1.575232
      0.00801      6.63849     34.99892        -0.093201     -4.968044      0.006368
 -----------------------------------------------------------------------------------
    total drift:                                0.000045     -0.000179     -0.000121


--------------------------------------------------------------------------------------------------------



  FREE ENERGIE OF THE ION-ELECTRON SYSTEM (eV)
  ---------------------------------------------------
  free  energy   TOTEN  =       -28.07941314 eV

  energy  without entropy=      -28.07941314  energy(sigma->0) =      -28.07941314
 


--------------------------------------------------------------------------------------------------------


    POTLOK:  cpu time   11.2697: real time   11.2849


--------------------------------------------------------------------------------------------------------


 writing wavefunctions
     LOOP+:  cpu time  883.4219: real time  886.8383
    4ORBIT:  cpu time    0.0000: real time    0.0000

 total amount of memory used by VASP MPI-rank0  1850337. kBytes
=======================================================================

   base      :      30000. kBytes
   nonl-proj :      52334. kBytes
   fftplans  :     601440. kBytes
   grid      :    1154248. kBytes
   one-center:          1. kBytes
   wavefun   :      12314. kBytes
 
  
  
 General timing and accounting informations for this job:
 ========================================================
  
                  Total CPU time used (sec):     1196.571
                            User time (sec):     1123.344
                          System time (sec):       73.227
                         Elapsed time (sec):     1204.454
  
                   Maximum memory used (kb):     2297212.
                   Average memory used (kb):           0.
  
                          Minor page faults:     27380541
                          Major page faults:          160
                 Voluntary context switches:        25636
