 vasp.6.1.2 22Jul20 (build Jan  6 2021 09:55:43) gamma-only                      
 executed on             LinuxPGI date 2021.03.01  21:34:47
 running on   32 total cores
 distrk:  each k-point on   32 cores,    1 groups
 distr:  one band on NCORE=   8 cores,    4 groups


--------------------------------------------------------------------------------------------------------


 INCAR:
 POTCAR:    PAW_PBE H_s 15May2010                 
 POTCAR:    PAW_PBE C_s 06Sep2000                 
 POTCAR:    PAW_PBE O_s 07Sep2000                 
 POTCAR:    PAW_PBE H_s 15May2010                 
   VRHFIN =H: ultrasoft test                                                                        
   LEXCH  = PE                                                                                      
   EATOM  =    12.4884 eV,    0.9179 Ry                                                             
                                                                                                    
   TITEL  = PAW_PBE H_s 15May2010                                                                   
   LULTRA =        F    use ultrasoft PP ?                                                          
   IUNSCR =        0    unscreen: 0-lin 1-nonlin 2-no                                               
   RPACOR =    0.000    partial core radius                                                         
   POMASS =    1.000; ZVAL   =    1.000    mass and valenz                                          
   RCORE  =    1.300    outmost cutoff radius                                                       
   RWIGS  =    0.700; RWIGS  =    0.370    wigner-seitz radius (au A)                               
   ENMAX  =  200.000; ENMIN  =  150.000 eV                                                          
   RCLOC  =    0.701    cutoff for local pot                                                        
   LCOR   =        T    correct aug charges                                                         
   LPAW   =        T    paw PP                                                                      
   EAUG   =  300.000                                                                                
   RMAX   =    1.330    core radius for proj-oper                                                   
   RAUG   =    1.200    factor for augmentation sphere                                              
   RDEP   =    1.337    radius for radial grids                                                     
   RDEPT  =    1.114    core radius for aug-charge                                                  
                                                                                                    
   Atomic configuration                                                                             
    2 entries                                                                                       
     n  l   j            E        occ.                                                              
     1  0  0.50        -6.4927   1.0000                                                             
     2  1  0.50        -3.4015   0.0000                                                             
   Description                                                                                      
     l       E           TYP  RCUT    TYP  RCUT                                                     
     0     -6.4927494     23  1.300                                                                 
     0      6.8029130     23  1.300                                                                 
     1     -4.0817478     23  1.300                                                                 
  local pseudopotential read in
  atomic valenz-charges read in
  non local Contribution for L=            0  read in
    real space projection operators read in
  non local Contribution for L=            0  read in
    real space projection operators read in
  non local Contribution for L=            1  read in
    real space projection operators read in
    PAW grid and wavefunctions read in
 
   number of l-projection  operators is LMAX  =            3
   number of lm-projection operators is LMMAX =            5
 
 POTCAR:    PAW_PBE C_s 06Sep2000                 
   VRHFIN =C: s2p2                                                                                  
   LEXCH  = PE                                                                                      
   EATOM  =   147.1560 eV,   10.8157 Ry                                                             
                                                                                                    
   TITEL  = PAW_PBE C_s 06Sep2000                                                                   
   LULTRA =        F    use ultrasoft PP ?                                                          
   IUNSCR =        0    unscreen: 0-lin 1-nonlin 2-no                                               
   RPACOR =    0.000    partial core radius                                                         
   POMASS =   12.011; ZVAL   =    4.000    mass and valenz                                          
   RCORE  =    1.850    outmost cutoff radius                                                       
   RWIGS  =    1.890; RWIGS  =    1.000    wigner-seitz radius (au A)                               
   ENMAX  =  273.911; ENMIN  =  205.433 eV                                                          
   RCLOC  =    0.804    cutoff for local pot                                                        
   LCOR   =        T    correct aug charges                                                         
   LPAW   =        T    paw PP                                                                      
   EAUG   =  439.243                                                                                
   DEXC   =    0.000                                                                                
   RMAX   =    1.897    core radius for proj-oper                                                   
   RAUG   =    1.300    factor for augmentation sphere                                              
   RDEP   =    1.940    radius for radial grids                                                     
   RDEPT  =    1.573    core radius for aug-charge                                                  
                                                                                                    
   Atomic configuration                                                                             
    4 entries                                                                                       
     n  l   j            E        occ.                                                              
     1  0  0.50      -273.3789   2.0000                                                             
     2  0  0.50       -13.7508   2.0000                                                             
     2  1  0.50        -5.2854   2.0000                                                             
     3  2  1.50        -1.3606   0.0000                                                             
   Description                                                                                      
     l       E           TYP  RCUT    TYP  RCUT                                                     
     0    -13.7508457     23  1.500                                                                 
     0    -11.0934578     23  1.500                                                                 
     1     -5.2854381     23  1.850                                                                 
     1     -1.3099858     23  1.850                                                                 
  local pseudopotential read in
  atomic valenz-charges read in
  non local Contribution for L=            0  read in
    real space projection operators read in
  non local Contribution for L=            0  read in
    real space projection operators read in
  non local Contribution for L=            1  read in
    real space projection operators read in
  non local Contribution for L=            1  read in
    real space projection operators read in
    PAW grid and wavefunctions read in
 
   number of l-projection  operators is LMAX  =            4
   number of lm-projection operators is LMMAX =            8
 
 POTCAR:    PAW_PBE O_s 07Sep2000                 
   VRHFIN =O: s2p4                                                                                  
   LEXCH  = PE                                                                                      
   EATOM  =   432.3788 eV,   31.7789 Ry                                                             
                                                                                                    
   TITEL  = PAW_PBE O_s 07Sep2000                                                                   
   LULTRA =        F    use ultrasoft PP ?                                                          
   IUNSCR =        0    unscreen: 0-lin 1-nonlin 2-no                                               
   RPACOR =    0.000    partial core radius                                                         
   POMASS =   16.000; ZVAL   =    6.000    mass and valenz                                          
   RCORE  =    1.850    outmost cutoff radius                                                       
   RWIGS  =    1.700; RWIGS  =    0.900    wigner-seitz radius (au A)                               
   ENMAX  =  282.853; ENMIN  =  212.140 eV                                                          
   RCLOC  =    0.804    cutoff for local pot                                                        
   LCOR   =        T    correct aug charges                                                         
   LPAW   =        T    paw PP                                                                      
   EAUG   =  412.352                                                                                
   RMAX   =    1.897    core radius for proj-oper                                                   
   RAUG   =    1.300    factor for augmentation sphere                                              
   RDEP   =    1.878    radius for radial grids                                                     
   RDEPT  =    1.572    core radius for aug-charge                                                  
                                                                                                    
   Atomic configuration                                                                             
    4 entries                                                                                       
     n  l   j            E        occ.                                                              
     1  0  0.50      -514.6923   2.0000                                                             
     2  0  0.50       -23.9615   2.0000                                                             
     2  1  0.50        -9.0305   4.0000                                                             
     3  2  1.50        -1.3606   0.0000                                                             
   Description                                                                                      
     l       E           TYP  RCUT    TYP  RCUT                                                     
     0    -23.9615315     23  1.500                                                                 
     0    -25.3221141     23  1.500                                                                 
     1     -9.0304908     23  1.850                                                                 
     1     -7.3935399     23  1.850                                                                 
  local pseudopotential read in
  atomic valenz-charges read in
  non local Contribution for L=            0  read in
    real space projection operators read in
  non local Contribution for L=            0  read in
    real space projection operators read in
  non local Contribution for L=            1  read in
    real space projection operators read in
  non local Contribution for L=            1  read in
    real space projection operators read in
    PAW grid and wavefunctions read in
 
   number of l-projection  operators is LMAX  =            4
   number of lm-projection operators is LMMAX =            8
 
  PAW_PBE H_s 15May2010                 :
 energy of atom  1       EATOM=  -12.4884
 kinetic energy error for atom=    0.0000 (will be added to EATOM!!)
  PAW_PBE C_s 06Sep2000                 :
 energy of atom  2       EATOM= -147.1560
 kinetic energy error for atom=    0.0002 (will be added to EATOM!!)
  PAW_PBE O_s 07Sep2000                 :
 energy of atom  3       EATOM= -432.3788
 kinetic energy error for atom=    0.0004 (will be added to EATOM!!)
 
 
 POSCAR:  H  C  O
  positions in cartesian coordinates
  No initial velocities read in
 exchange correlation table for  LEXCH =        8
   RHO(1)=    0.500       N(1)  =     2000
   RHO(2)=  100.500       N(2)  =     4000
 


--------------------------------------------------------------------------------------------------------


 ion  position               nearest neighbor table
   1  0.001  0.050  0.973-   4 0.96
   2  0.000  0.084  1.000-   4 0.96
   3  0.001  0.179  1.000-   5 1.14
   4  0.000  0.056  0.000-   2 0.96   1 0.96
   5  0.000  0.147  1.000-   3 1.14
 
 -----------------------------------------------------------------------------
|                                                                             |
|           W    W    AA    RRRRR   N    N  II  N    N   GGGG   !!!           |
|           W    W   A  A   R    R  NN   N  II  NN   N  G    G  !!!           |
|           W    W  A    A  R    R  N N  N  II  N N  N  G       !!!           |
|           W WW W  AAAAAA  RRRRR   N  N N  II  N  N N  G  GGG   !            |
|           WW  WW  A    A  R   R   N   NN  II  N   NN  G    G                |
|           W    W  A    A  R    R  N    N  II  N    N   GGGG   !!!           |
|                                                                             |
|     The distance between some ions is very small. Please check the          |
|     nearest-neighbor list in the OUTCAR file.                               |
|     I HOPE YOU KNOW WHAT YOU ARE DOING!                                     |
|                                                                             |
 -----------------------------------------------------------------------------

  LATTYP: Found a simple cubic cell.
 ALAT       =    35.0000000000
  
  Lattice vectors:
  
 A1 = (  35.0000000000,   0.0000000000,   0.0000000000)
 A2 = (   0.0000000000,  35.0000000000,   0.0000000000)
 A3 = (   0.0000000000,   0.0000000000,  35.0000000000)


Analysis of symmetry for initial positions (statically):
=====================================================================
 Subroutine PRICEL returns:
 Original cell was already a primitive cell.
 

 Routine SETGRP: Setting up the symmetry group for a 
 simple cubic supercell.


 Subroutine GETGRP returns: Found  1 space group operations
 (whereof  1 operations were pure point group operations)
 out of a pool of 48 trial point group operations.


The static configuration has the point symmetry C_1 .


Analysis of symmetry for dynamics (positions and initial velocities):
=====================================================================
 Subroutine PRICEL returns:
 Original cell was already a primitive cell.
 

 Routine SETGRP: Setting up the symmetry group for a 
 simple cubic supercell.


 Subroutine GETGRP returns: Found  1 space group operations
 (whereof  1 operations were pure point group operations)
 out of a pool of 48 trial point group operations.


The dynamic configuration has the point symmetry C_1 .


 Subroutine INISYM returns: Found  1 space group operations
 (whereof  1 operations are pure point group operations),
 and found     1 'primitive' translations


----------------------------------------------------------------------------------------

                                     Primitive cell                                     

  volume of cell :   42875.0000

  direct lattice vectors                    reciprocal lattice vectors
    35.000000000  0.000000000  0.000000000     0.028571429  0.000000000  0.000000000
     0.000000000 35.000000000  0.000000000     0.000000000  0.028571429  0.000000000
     0.000000000  0.000000000 35.000000000     0.000000000  0.000000000  0.028571429

  length of vectors
    35.000000000 35.000000000 35.000000000     0.028571429  0.028571429  0.028571429

  position of ions in fractional coordinates (direct lattice)
     0.000785426  0.049745327  0.973385225
     0.000340417  0.083957172  0.999957468
     0.000845402  0.179349620  0.999904630
     0.000000000  0.056491600  0.000000000
     0.000228949  0.146814095  0.999969134

  ion indices of the primitive-cell ions
   primitive index   ion index
                 1           1
                 2           2
                 3           3
                 4           4
                 5           5

----------------------------------------------------------------------------------------

 
 
 KPOINTS: automatic mesh                          

Automatic generation of k-mesh.
Space group operators:
 irot       det(A)        alpha          n_x          n_y          n_z        tau_x        tau_y        tau_z
    1     1.000000     0.000000     1.000000     0.000000     0.000000     0.000000     0.000000     0.000000
 
 Subroutine IBZKPT returns following result:
 ===========================================
 
 Found      1 irreducible k-points:
 
 Following reciprocal coordinates:
            Coordinates               Weight
  0.000000  0.000000  0.000000      1.000000
 
 Following cartesian coordinates:
            Coordinates               Weight
  0.000000  0.000000  0.000000      1.000000
 


--------------------------------------------------------------------------------------------------------




 Dimension of arrays:
   k-points           NKPTS =      1   k-points in BZ     NKDIM =      1   number of bands    NBANDS=     16
   number of dos      NEDOS =    301   number of ions     NIONS =      5
   non local maximal  LDIM  =      4   non local SUM 2l+1 LMDIM =      8
   total plane-waves  NPLWV = ******
   max r-space proj   IRMAX =      1   max aug-charges    IRDMAX=  29269
   dimension x,y,z NGX =   378 NGY =  378 NGZ =  378
   dimension x,y,z NGXF=   756 NGYF=  756 NGZF=  756
   support grid    NGXF=   756 NGYF=  756 NGZF=  756
   ions per type =               2   1   2
   NGX,Y,Z   is equivalent  to a cutoff of  17.95, 17.95, 17.95 a.u.
   NGXF,Y,Z  is equivalent  to a cutoff of  35.91, 35.91, 35.91 a.u.

 SYSTEM =  C                                       
 POSCAR =   H  C  O                                

 Startparameter for this run:
   NWRITE =      2    write-flag & timer
   PREC   = acc       normal or accurate (medium, high low for compatibility)
   ISTART =      0    job   : 0-new  1-cont  2-samecut
   ICHARG =      2    charge: 1-file 2-atom 10-const
   ISPIN  =      1    spin polarized calculation?
   LNONCOLLINEAR =      F non collinear calculations
   LSORBIT =      F    spin-orbit coupling
   INIWAV =      1    electr: 0-lowe 1-rand  2-diag
   LASPH  =      T    aspherical Exc in radial PAW
   METAGGA=      F    non-selfconsistent MetaGGA calc.

 Electronic Relaxation 1
   ENCUT  = 1000.0 eV  73.50 Ry    8.57 a.u.  90.25 90.25 90.25*2*pi/ulx,y,z
   ENINI  = 1000.0     initial cutoff
   ENAUG  =  439.2 eV  augmentation charge cutoff
   NELM   =     60;   NELMIN=  2; NELMDL= -5     # of ELM steps 
   EDIFF  = 0.1E-06   stopping-criterion for ELM
   LREAL  =      F    real-space projection
   NLSPLINE    = F    spline interpolate recip. space projectors
   LCOMPAT=      F    compatible to vasp.4.4
   GGA_COMPAT  = T    GGA compatible to vasp.4.4-vasp.4.6
   LMAXPAW     = -100 max onsite density
   LMAXMIX     =    2 max onsite mixed and CHGCAR
   VOSKOWN=      0    Vosko Wilk Nusair interpolation
   ROPT   =    0.00000   0.00000   0.00000
 Ionic relaxation
   EDIFFG = 0.1E-05   stopping-criterion for IOM
   NSW    =      0    number of steps for IOM
   NBLOCK =      1;   KBLOCK =      1    inner block; outer block 
   IBRION =     -1    ionic relax: 0-MD 1-quasi-New 2-CG
   NFREE  =      0    steps in history (QN), initial steepest desc. (CG)
   ISIF   =      2    stress and relaxation
   IWAVPR =     10    prediction:  0-non 1-charg 2-wave 3-comb
   ISYM   =      2    0-nonsym 1-usesym 2-fastsym
   LCORR  =      T    Harris-Foulkes like correction to forces

   POTIM  = 0.5000    time-step for ionic-motion
   TEIN   =    0.0    initial temperature
   TEBEG  =    0.0;   TEEND  =   0.0 temperature during run
   SMASS  =  -3.00    Nose mass-parameter (am)
   estimated Nose-frequenzy (Omega)   =  0.10E-29 period in steps = 0.13E+47 mass=  -0.280E-25a.u.
   SCALEE = 1.0000    scale energy and forces
   NPACO  =    256;   APACO  = 16.0  distance and # of slots for P.C.
   PSTRESS=    0.0 pullay stress

  Mass of Ions in am
   POMASS =   1.00 12.01 16.00
  Ionic Valenz
   ZVAL   =   1.00  4.00  6.00
  Atomic Wigner-Seitz radii
   RWIGS  =  -1.00 -1.00 -1.00
  virtual crystal weights 
   VCA    =   1.00  1.00  1.00
   NELECT =      18.0000    total number of electrons
   NUPDOWN=      -1.0000    fix difference up-down

 DOS related values:
   EMIN   =  10.00;   EMAX   =-10.00  energy-range for DOS
   EFERMI =   0.00
   ISMEAR =     0;   SIGMA  =   0.01  broadening in eV -4-tet -1-fermi 0-gaus

 Electronic relaxation 2 (details)
   IALGO  =     38    algorithm
   LDIAG  =      T    sub-space diagonalisation (order eigenvalues)
   LSUBROT=      F    optimize rotation matrix (better conditioning)
   TURBO    =      0    0=normal 1=particle mesh
   IRESTART =      0    0=no restart 2=restart with 2 vectors
   NREBOOT  =      0    no. of reboots
   NMIN     =      0    reboot dimension
   EREF     =   0.00    reference energy to select bands
   IMIX   =      4    mixing-type and parameters
     AMIX     =   0.40;   BMIX     =  1.00
     AMIX_MAG =   1.60;   BMIX_MAG =  1.00
     AMIN     =   0.10
     WC   =   100.;   INIMIX=   1;  MIXPRE=   1;  MAXMIX= -45

 Intra band minimization:
   WEIMIN = 0.0000     energy-eigenvalue tresh-hold
   EBREAK =  0.16E-08  absolut break condition
   DEPER  =   0.30     relativ break condition  

   TIME   =   0.40     timestep for ELM

  volume/ion in A,a.u.               =    8575.00     57866.96
  Fermi-wavevector in a.u.,A,eV,Ry     =   0.122583  0.231649  0.204450  0.015027
  Thomas-Fermi vector in A             =   0.746568
 
 Write flags
   LWAVE        =      T    write WAVECAR
   LDOWNSAMPLE  =      F    k-point downsampling of WAVECAR
   LCHARG       =      T    write CHGCAR
   LVTOT        =      F    write LOCPOT, total local potential
   LVHAR        =      F    write LOCPOT, Hartree potential only
   LELF         =      F    write electronic localiz. function (ELF)
   LORBIT       =      0    0 simple, 1 ext, 2 COOP (PROOUT), +10 PAW based schemes


 Dipole corrections
   LMONO  =      F    monopole corrections only (constant potential shift)
   LDIPOL =      F    correct potential (dipole corrections)
   IDIPOL =      4    1-x, 2-y, 3-z, 4-all directions 
   EPSILON=  1.0000000 bulk dielectric constant

 Exchange correlation treatment:
   GGA     =    --    GGA type
   LEXCH   =     8    internal setting for exchange type
   VOSKOWN=      0    Vosko Wilk Nusair interpolation
   LHFCALC =     F    Hartree Fock is set to
   LHFONE  =     F    Hartree Fock one center treatment
   AEXX    =    0.0000 exact exchange contribution

 Linear response parameters
   LEPSILON=     F    determine dielectric tensor
   LRPA    =     F    only Hartree local field effects (RPA)
   LNABLA  =     F    use nabla operator in PAW spheres
   LVEL    =     F    velocity operator in full k-point grid
   LINTERFAST=   F  fast interpolation
   KINTER  =     0    interpolate to denser k-point grid
   CSHIFT  =0.1000    complex shift for real part using Kramers Kronig
   OMEGAMAX=  -1.0    maximum frequency
   DEG_THRESHOLD= 0.2000000E-02 threshold for treating states as degnerate
   RTIME   =   -0.100 relaxation time in fs
  (WPLASMAI=    0.000 imaginary part of plasma frequency in eV, 0.658/RTIME)
   DFIELD  = 0.0000000 0.0000000 0.0000000 field for delta impulse in time
 
 Orbital magnetization related:
   ORBITALMAG=     F  switch on orbital magnetization
   LCHIMAG   =     F  perturbation theory with respect to B field
   DQ        =  0.001000  dq finite difference perturbation B field
   LLRAUG    =     F  two centre corrections for induced B field



--------------------------------------------------------------------------------------------------------


 Static calculation
 charge density and potential will be updated during run
 non-spin polarized calculation
 Variant of blocked Davidson
 Davidson routine will perform the subspace rotation
 perform sub-space diagonalisation
    after iterative eigenvector-optimisation
 modified Broyden-mixing scheme, WC =      100.0
 initial mixing is a Kerker type mixing with AMIX =  0.4000 and BMIX =      1.0000
 Hartree-type preconditioning will be used
 using additional bands             7
 reciprocal scheme for non local part
 calculate Harris-corrections to forces 
   (improved forces if not selfconsistent)
 use gradient corrections 
 use of overlap-Matrix (Vanderbilt PP)
 Gauss-broadening in eV      SIGMA  =   0.01


--------------------------------------------------------------------------------------------------------


  energy-cutoff  :     1000.00
  volume of cell :    42875.00
      direct lattice vectors                 reciprocal lattice vectors
    35.000000000  0.000000000  0.000000000     0.028571429  0.000000000  0.000000000
     0.000000000 35.000000000  0.000000000     0.000000000  0.028571429  0.000000000
     0.000000000  0.000000000 35.000000000     0.000000000  0.000000000  0.028571429

  length of vectors
    35.000000000 35.000000000 35.000000000     0.028571429  0.028571429  0.028571429


 
 k-points in units of 2pi/SCALE and weight: automatic mesh                          
   0.00000000  0.00000000  0.00000000       1.000
 
 k-points in reciprocal lattice and weights: automatic mesh                          
   0.00000000  0.00000000  0.00000000       1.000
 
 position of ions in fractional coordinates (direct lattice) 
   0.00078543  0.04974533  0.97338523
   0.00034042  0.08395717  0.99995747
   0.00084540  0.17934962  0.99990463
   0.00000000  0.05649160  0.00000000
   0.00022895  0.14681409  0.99996913
 
 position of ions in cartesian coordinates  (Angst):
   0.02748992  1.74108643 34.06848289
   0.01191459  2.93850101 34.99851139
   0.02958908  6.27723670 34.99666206
   0.00000000  1.97720600  0.00000000
   0.00801323  5.13849332 34.99891970
 


--------------------------------------------------------------------------------------------------------


 use parallel FFT for orbitals z direction half grid
 k-point   1 :   0.0000 0.0000 0.0000  plane waves: 1539209

 maximum and minimum number of plane-waves per node :    192406   192397

 maximum number of plane-waves:   1539209
 maximum index in each direction: 
   IXMAX=   90   IYMAX=   90   IZMAX=   90
   IXMIN=  -90   IYMIN=  -90   IZMIN=    0


 parallel 3D FFT for wavefunctions:
    minimum data exchange during FFTs selected (reduces bandwidth)
 parallel 3D FFT for charge:
    minimum data exchange during FFTs selected (reduces bandwidth)


 total amount of memory used by VASP MPI-rank0  1850337. kBytes
=======================================================================

   base      :      30000. kBytes
   nonl-proj :      52334. kBytes
   fftplans  :     601440. kBytes
   grid      :    1154248. kBytes
   one-center:          1. kBytes
   wavefun   :      12314. kBytes
 
     INWAV:  cpu time    0.0000: real time    0.0000
 Broyden mixing: mesh for mixing (old mesh)
   NGX =181   NGY =181   NGZ =181
  (NGX  =756   NGY  =756   NGZ  =756)
  gives a total of ****** points

 initial charge density was supplied:
 charge density of overlapping atoms calculated
 number of electron      18.0000000 magnetization 
 keeping initial charge density in first step


--------------------------------------------------------------------------------------------------------


 Maximum index for augmentation-charges          1116 (set IRDMAX)


--------------------------------------------------------------------------------------------------------


 First call to EWALD:  gamma=   0.051
 Maximum number of real-space cells 3x 3x 3
 Maximum number of reciprocal cells 3x 3x 3

    FEWALD:  cpu time    0.0008: real time    0.0008


--------------------------------------- Iteration      1(   1)  ---------------------------------------


    POTLOK:  cpu time   11.9634: real time   11.9818
    SETDIJ:  cpu time    0.0549: real time    0.0568
     EDDAV:  cpu time    7.3354: real time    7.3754
       DOS:  cpu time    0.0017: real time    0.0017
    --------------------------------------------
      LOOP:  cpu time   19.3554: real time   19.4157

 eigenvalue-minimisations  :    48
 total energy-change (2. order) : 0.1485172E+03  (-0.3395607E+03)
 number of electron      18.0000000 magnetization 
 augmentation part       18.0000000 magnetization 

 Free energy of the ion-electron system (eV)
  ---------------------------------------------------
  alpha Z        PSCENC =         0.02234163
  Ewald energy   TEWEN  =       642.17740067
  -Hartree energ DENC   =     -1453.80037886
  -exchange      EXHF   =         0.00000000
  -V(xc)+E(xc)   XCENC  =        71.95214267
  PAW double counting   =       802.92211551     -812.08006040
  entropy T*S    EENTRO =        -0.00000000
  eigenvalues    EBANDS =      -139.56565802
  atomic energy  EATOM  =      1036.88928565
  Solvation  Ediel_sol  =         0.00000000
  ---------------------------------------------------
  free energy    TOTEN  =       148.51718885 eV

  energy without entropy =      148.51718885  energy(sigma->0) =      148.51718885


--------------------------------------------------------------------------------------------------------




--------------------------------------- Iteration      1(   2)  ---------------------------------------


     EDDAV:  cpu time    9.1465: real time    9.1623
       DOS:  cpu time    0.0011: real time    0.0011
    --------------------------------------------
      LOOP:  cpu time    9.1476: real time    9.1634

 eigenvalue-minimisations  :    64
 total energy-change (2. order) :-0.1343149E+03  (-0.1336868E+03)
 number of electron      18.0000000 magnetization 
 augmentation part       18.0000000 magnetization 

 Free energy of the ion-electron system (eV)
  ---------------------------------------------------
  alpha Z        PSCENC =         0.02234163
  Ewald energy   TEWEN  =       642.17740067
  -Hartree energ DENC   =     -1453.80037886
  -exchange      EXHF   =         0.00000000
  -V(xc)+E(xc)   XCENC  =        71.95214267
  PAW double counting   =       802.92211551     -812.08006040
  entropy T*S    EENTRO =        -0.00000000
  eigenvalues    EBANDS =      -273.88054093
  atomic energy  EATOM  =      1036.88928565
  Solvation  Ediel_sol  =         0.00000000
  ---------------------------------------------------
  free energy    TOTEN  =        14.20230593 eV

  energy without entropy =       14.20230593  energy(sigma->0) =       14.20230593


--------------------------------------------------------------------------------------------------------




--------------------------------------- Iteration      1(   3)  ---------------------------------------


     EDDAV:  cpu time    5.5022: real time    5.5120
       DOS:  cpu time    0.0028: real time    0.0028
    --------------------------------------------
      LOOP:  cpu time    5.5050: real time    5.5148

 eigenvalue-minimisations  :    32
 total energy-change (2. order) :-0.4113017E+02  (-0.4111947E+02)
 number of electron      18.0000000 magnetization 
 augmentation part       18.0000000 magnetization 

 Free energy of the ion-electron system (eV)
  ---------------------------------------------------
  alpha Z        PSCENC =         0.02234163
  Ewald energy   TEWEN  =       642.17740067
  -Hartree energ DENC   =     -1453.80037886
  -exchange      EXHF   =         0.00000000
  -V(xc)+E(xc)   XCENC  =        71.95214267
  PAW double counting   =       802.92211551     -812.08006040
  entropy T*S    EENTRO =        -0.00000000
  eigenvalues    EBANDS =      -315.01071350
  atomic energy  EATOM  =      1036.88928565
  Solvation  Ediel_sol  =         0.00000000
  ---------------------------------------------------
  free energy    TOTEN  =       -26.92786664 eV

  energy without entropy =      -26.92786664  energy(sigma->0) =      -26.92786664


--------------------------------------------------------------------------------------------------------




--------------------------------------- Iteration      1(   4)  ---------------------------------------


     EDDAV:  cpu time    7.3463: real time    7.3591
       DOS:  cpu time    0.0028: real time    0.0028
    --------------------------------------------
      LOOP:  cpu time    7.3491: real time    7.3618

 eigenvalue-minimisations  :    48
 total energy-change (2. order) :-0.4067062E+01  (-0.4050366E+01)
 number of electron      18.0000000 magnetization 
 augmentation part       18.0000000 magnetization 

 Free energy of the ion-electron system (eV)
  ---------------------------------------------------
  alpha Z        PSCENC =         0.02234163
  Ewald energy   TEWEN  =       642.17740067
  -Hartree energ DENC   =     -1453.80037886
  -exchange      EXHF   =         0.00000000
  -V(xc)+E(xc)   XCENC  =        71.95214267
  PAW double counting   =       802.92211551     -812.08006040
  entropy T*S    EENTRO =        -0.00000000
  eigenvalues    EBANDS =      -319.07777529
  atomic energy  EATOM  =      1036.88928565
  Solvation  Ediel_sol  =         0.00000000
  ---------------------------------------------------
  free energy    TOTEN  =       -30.99492842 eV

  energy without entropy =      -30.99492842  energy(sigma->0) =      -30.99492842


--------------------------------------------------------------------------------------------------------




--------------------------------------- Iteration      1(   5)  ---------------------------------------


     EDDAV:  cpu time    6.4551: real time    6.4682
       DOS:  cpu time    0.0022: real time    0.0022
    CHARGE:  cpu time    1.7054: real time    1.7079
    MIXING:  cpu time    0.2112: real time    0.2115
    --------------------------------------------
      LOOP:  cpu time    8.3739: real time    8.3899

 eigenvalue-minimisations  :    40
 total energy-change (2. order) :-0.4594343E-01  (-0.4545770E-01)
 number of electron      17.9999998 magnetization 
 augmentation part        3.0875201 magnetization 

 Broyden mixing:
  rms(total) = 0.42409E+01    rms(broyden)= 0.42409E+01
  rms(prec ) = 0.42476E+01
  weight for this iteration     100.00

 Free energy of the ion-electron system (eV)
  ---------------------------------------------------
  alpha Z        PSCENC =         0.02234163
  Ewald energy   TEWEN  =       642.17740067
  -Hartree energ DENC   =     -1453.80037886
  -exchange      EXHF   =         0.00000000
  -V(xc)+E(xc)   XCENC  =        71.95214267
  PAW double counting   =       802.92211551     -812.08006040
  entropy T*S    EENTRO =        -0.00000000
  eigenvalues    EBANDS =      -319.12371872
  atomic energy  EATOM  =      1036.88928565
  Solvation  Ediel_sol  =         0.00000000
  ---------------------------------------------------
  free energy    TOTEN  =       -31.04087185 eV

  energy without entropy =      -31.04087185  energy(sigma->0) =      -31.04087185


--------------------------------------------------------------------------------------------------------




--------------------------------------- Iteration      1(   6)  ---------------------------------------


    POTLOK:  cpu time   11.8272: real time   11.8459
    SETDIJ:  cpu time    0.0538: real time    0.0538
     EDDAV:  cpu time    7.3245: real time    7.3372
       DOS:  cpu time    0.0011: real time    0.0011
    CHARGE:  cpu time    1.6620: real time    1.6645
    MIXING:  cpu time    0.2293: real time    0.2370
    --------------------------------------------
      LOOP:  cpu time   21.0980: real time   21.1396

 eigenvalue-minimisations  :    48
 total energy-change (2. order) : 0.2602389E+01  (-0.1081817E+01)
 number of electron      17.9999998 magnetization 
 augmentation part        2.7051389 magnetization 

 Broyden mixing:
  rms(total) = 0.39932E+01    rms(broyden)= 0.39932E+01
  rms(prec ) = 0.39941E+01
  weight for this iteration     100.00

 eigenvalues of (default mixing * dielectric matrix)
  average eigenvalue GAMMA=   0.7598
  0.7598

 Free energy of the ion-electron system (eV)
  ---------------------------------------------------
  alpha Z        PSCENC =         0.02234163
  Ewald energy   TEWEN  =       642.17740067
  -Hartree energ DENC   =     -1490.12264942
  -exchange      EXHF   =         0.00000000
  -V(xc)+E(xc)   XCENC  =        74.05477949
  PAW double counting   =      1480.09597056    -1491.00404543
  entropy T*S    EENTRO =        -0.00000000
  eigenvalues    EBANDS =      -280.55156601
  atomic energy  EATOM  =      1036.88928565
  Solvation  Ediel_sol  =         0.00000000
  ---------------------------------------------------
  free energy    TOTEN  =       -28.43848286 eV

  energy without entropy =      -28.43848286  energy(sigma->0) =      -28.43848286


--------------------------------------------------------------------------------------------------------




--------------------------------------- Iteration      1(   7)  ---------------------------------------


    POTLOK:  cpu time   11.7974: real time   11.8159
    SETDIJ:  cpu time    0.0521: real time    0.0522
     EDDAV:  cpu time    6.4181: real time    6.4293
       DOS:  cpu time    0.0009: real time    0.0009
    CHARGE:  cpu time    1.6498: real time    1.6524
    MIXING:  cpu time    0.2236: real time    0.2240
    --------------------------------------------
      LOOP:  cpu time   20.1420: real time   20.1746

 eigenvalue-minimisations  :    40
 total energy-change (2. order) : 0.1784796E+00  (-0.3437285E-01)
 number of electron      17.9999998 magnetization 
 augmentation part        2.7106643 magnetization 

 Broyden mixing:
  rms(total) = 0.27354E+01    rms(broyden)= 0.27354E+01
  rms(prec ) = 0.27359E+01
  weight for this iteration     100.00

 eigenvalues of (default mixing * dielectric matrix)
  average eigenvalue GAMMA=   1.6978
  0.9876  2.4080

 Free energy of the ion-electron system (eV)
  ---------------------------------------------------
  alpha Z        PSCENC =         0.02234163
  Ewald energy   TEWEN  =       642.17740067
  -Hartree energ DENC   =     -1493.65393446
  -exchange      EXHF   =         0.00000000
  -V(xc)+E(xc)   XCENC  =        74.28978370
  PAW double counting   =      2047.82986411    -2058.60136041
  entropy T*S    EENTRO =        -0.00000000
  eigenvalues    EBANDS =      -277.21338411
  atomic energy  EATOM  =      1036.88928565
  Solvation  Ediel_sol  =         0.00000000
  ---------------------------------------------------
  free energy    TOTEN  =       -28.26000323 eV

  energy without entropy =      -28.26000323  energy(sigma->0) =      -28.26000323


--------------------------------------------------------------------------------------------------------




--------------------------------------- Iteration      1(   8)  ---------------------------------------


    POTLOK:  cpu time   11.8230: real time   11.8415
    SETDIJ:  cpu time    0.0537: real time    0.0537
     EDDAV:  cpu time    6.3950: real time    6.4062
       DOS:  cpu time    0.0011: real time    0.0010
    CHARGE:  cpu time    1.6417: real time    1.6442
    MIXING:  cpu time    0.2947: real time    0.2951
    --------------------------------------------
      LOOP:  cpu time   20.2090: real time   20.2417

 eigenvalue-minimisations  :    40
 total energy-change (2. order) : 0.1580315E+00  (-0.3136084E-01)
 number of electron      17.9999998 magnetization 
 augmentation part        2.6889403 magnetization 

 Broyden mixing:
  rms(total) = 0.41102E+00    rms(broyden)= 0.41102E+00
  rms(prec ) = 0.41165E+00
  weight for this iteration     100.00

 eigenvalues of (default mixing * dielectric matrix)
  average eigenvalue GAMMA=   1.3708
  2.5795  0.8889  0.6441

 Free energy of the ion-electron system (eV)
  ---------------------------------------------------
  alpha Z        PSCENC =         0.02234163
  Ewald energy   TEWEN  =       642.17740067
  -Hartree energ DENC   =     -1503.97712118
  -exchange      EXHF   =         0.00000000
  -V(xc)+E(xc)   XCENC  =        74.94427883
  PAW double counting   =      3659.55993198    -3670.25577602
  entropy T*S    EENTRO =        -0.00000000
  eigenvalues    EBANDS =      -267.46231327
  atomic energy  EATOM  =      1036.88928565
  Solvation  Ediel_sol  =         0.00000000
  ---------------------------------------------------
  free energy    TOTEN  =       -28.10197171 eV

  energy without entropy =      -28.10197171  energy(sigma->0) =      -28.10197171


--------------------------------------------------------------------------------------------------------




--------------------------------------- Iteration      1(   9)  ---------------------------------------


    POTLOK:  cpu time   11.8148: real time   11.8335
    SETDIJ:  cpu time    0.0555: real time    0.0556
     EDDAV:  cpu time    7.3637: real time    7.3765
       DOS:  cpu time    0.0015: real time    0.0015
    CHARGE:  cpu time    1.6475: real time    1.6501
    MIXING:  cpu time    0.2324: real time    0.2328
    --------------------------------------------
      LOOP:  cpu time   21.1154: real time   21.1500

 eigenvalue-minimisations  :    48
 total energy-change (2. order) : 0.1226529E-01  (-0.4861566E-02)
 number of electron      17.9999998 magnetization 
 augmentation part        2.6949948 magnetization 

 Broyden mixing:
  rms(total) = 0.21644E+00    rms(broyden)= 0.21644E+00
  rms(prec ) = 0.21686E+00
  weight for this iteration     100.00

 eigenvalues of (default mixing * dielectric matrix)
  average eigenvalue GAMMA=   1.4085
  2.5408  1.1758  1.1758  0.7414

 Free energy of the ion-electron system (eV)
  ---------------------------------------------------
  alpha Z        PSCENC =         0.02234163
  Ewald energy   TEWEN  =       642.17740067
  -Hartree energ DENC   =     -1504.16471502
  -exchange      EXHF   =         0.00000000
  -V(xc)+E(xc)   XCENC  =        74.95493121
  PAW double counting   =      3770.65633944    -3781.29445407
  entropy T*S    EENTRO =        -0.00000000
  eigenvalues    EBANDS =      -267.33083593
  atomic energy  EATOM  =      1036.88928565
  Solvation  Ediel_sol  =         0.00000000
  ---------------------------------------------------
  free energy    TOTEN  =       -28.08970643 eV

  energy without entropy =      -28.08970643  energy(sigma->0) =      -28.08970643


--------------------------------------------------------------------------------------------------------




--------------------------------------- Iteration      1(  10)  ---------------------------------------


    POTLOK:  cpu time   11.8206: real time   11.8392
    SETDIJ:  cpu time    0.0544: real time    0.0544
     EDDAV:  cpu time    6.4645: real time    6.4763
       DOS:  cpu time    0.0016: real time    0.0016
    CHARGE:  cpu time    1.6540: real time    1.6565
    MIXING:  cpu time    0.2466: real time    0.2470
    --------------------------------------------
      LOOP:  cpu time   20.2416: real time   20.2751

 eigenvalue-minimisations  :    40
 total energy-change (2. order) :-0.2668228E-03  (-0.1038692E-02)
 number of electron      17.9999998 magnetization 
 augmentation part        2.6918999 magnetization 

 Broyden mixing:
  rms(total) = 0.61440E-01    rms(broyden)= 0.61440E-01
  rms(prec ) = 0.62130E-01
  weight for this iteration     100.00

 eigenvalues of (default mixing * dielectric matrix)
  average eigenvalue GAMMA=   1.4597
  2.4623  2.1358  0.9910  0.9910  0.7184

 Free energy of the ion-electron system (eV)
  ---------------------------------------------------
  alpha Z        PSCENC =         0.02234163
  Ewald energy   TEWEN  =       642.17740067
  -Hartree energ DENC   =     -1504.17424380
  -exchange      EXHF   =         0.00000000
  -V(xc)+E(xc)   XCENC  =        74.92886797
  PAW double counting   =      3734.48584854    -3745.09612170
  entropy T*S    EENTRO =        -0.00000000
  eigenvalues    EBANDS =      -267.32335220
  atomic energy  EATOM  =      1036.88928565
  Solvation  Ediel_sol  =         0.00000000
  ---------------------------------------------------
  free energy    TOTEN  =       -28.08997325 eV

  energy without entropy =      -28.08997325  energy(sigma->0) =      -28.08997325


--------------------------------------------------------------------------------------------------------




--------------------------------------- Iteration      1(  11)  ---------------------------------------


    POTLOK:  cpu time   11.9079: real time   11.9265
    SETDIJ:  cpu time    0.0971: real time    0.0971
     EDDAV:  cpu time    7.3709: real time    7.3838
       DOS:  cpu time    0.0013: real time    0.0013
    CHARGE:  cpu time    1.6129: real time    1.6155
    MIXING:  cpu time    0.3588: real time    0.3593
    --------------------------------------------
      LOOP:  cpu time   21.3490: real time   21.3835

 eigenvalue-minimisations  :    48
 total energy-change (2. order) :-0.2964338E-02  (-0.4267306E-03)
 number of electron      17.9999998 magnetization 
 augmentation part        2.6935407 magnetization 

 Broyden mixing:
  rms(total) = 0.21996E-01    rms(broyden)= 0.21996E-01
  rms(prec ) = 0.22986E-01
  weight for this iteration     100.00

 eigenvalues of (default mixing * dielectric matrix)
  average eigenvalue GAMMA=   1.3983
  2.5423  2.1131  0.7231  0.9125  0.9125  1.1864

 Free energy of the ion-electron system (eV)
  ---------------------------------------------------
  alpha Z        PSCENC =         0.02234163
  Ewald energy   TEWEN  =       642.17740067
  -Hartree energ DENC   =     -1504.07803067
  -exchange      EXHF   =         0.00000000
  -V(xc)+E(xc)   XCENC  =        74.90437138
  PAW double counting   =      3721.62560774    -3732.19863038
  entropy T*S    EENTRO =        -0.00000000
  eigenvalues    EBANDS =      -267.43528360
  atomic energy  EATOM  =      1036.88928565
  Solvation  Ediel_sol  =         0.00000000
  ---------------------------------------------------
  free energy    TOTEN  =       -28.09293759 eV

  energy without entropy =      -28.09293759  energy(sigma->0) =      -28.09293759


--------------------------------------------------------------------------------------------------------




--------------------------------------- Iteration      1(  12)  ---------------------------------------


    POTLOK:  cpu time   11.8577: real time   11.8764
    SETDIJ:  cpu time    0.0560: real time    0.0561
     EDDAV:  cpu time    7.3479: real time    7.3639
       DOS:  cpu time    0.0031: real time    0.0031
    CHARGE:  cpu time    1.6590: real time    1.6615
    MIXING:  cpu time    0.2628: real time    0.2632
    --------------------------------------------
      LOOP:  cpu time   21.1866: real time   21.2243

 eigenvalue-minimisations  :    48
 total energy-change (2. order) :-0.1816054E-02  (-0.3688342E-04)
 number of electron      17.9999998 magnetization 
 augmentation part        2.6935906 magnetization 

 Broyden mixing:
  rms(total) = 0.17169E-01    rms(broyden)= 0.17169E-01
  rms(prec ) = 0.18068E-01
  weight for this iteration     100.00

 eigenvalues of (default mixing * dielectric matrix)
  average eigenvalue GAMMA=   1.5148
  2.9160  2.3979  1.4508  0.7229  1.0976  1.0976  0.9207

 Free energy of the ion-electron system (eV)
  ---------------------------------------------------
  alpha Z        PSCENC =         0.02234163
  Ewald energy   TEWEN  =       642.17740067
  -Hartree energ DENC   =     -1504.30306091
  -exchange      EXHF   =         0.00000000
  -V(xc)+E(xc)   XCENC  =        74.91045135
  PAW double counting   =      3719.19346573    -3729.76333257
  entropy T*S    EENTRO =        -0.00000000
  eigenvalues    EBANDS =      -267.22130519
  atomic energy  EATOM  =      1036.88928565
  Solvation  Ediel_sol  =         0.00000000
  ---------------------------------------------------
  free energy    TOTEN  =       -28.09475364 eV

  energy without entropy =      -28.09475364  energy(sigma->0) =      -28.09475364


--------------------------------------------------------------------------------------------------------




--------------------------------------- Iteration      1(  13)  ---------------------------------------


    POTLOK:  cpu time   11.8120: real time   11.8305
    SETDIJ:  cpu time    0.0547: real time    0.0547
     EDDAV:  cpu time    5.5248: real time    5.5345
       DOS:  cpu time    0.0007: real time    0.0007
    CHARGE:  cpu time    1.6503: real time    1.6530
    MIXING:  cpu time    0.2685: real time    0.2690
    --------------------------------------------
      LOOP:  cpu time   19.3111: real time   19.3424

 eigenvalue-minimisations  :    32
 total energy-change (2. order) :-0.3601823E-02  (-0.7728129E-04)
 number of electron      17.9999998 magnetization 
 augmentation part        2.6929364 magnetization 

 Broyden mixing:
  rms(total) = 0.46941E-02    rms(broyden)= 0.46941E-02
  rms(prec ) = 0.60329E-02
  weight for this iteration     100.00

 eigenvalues of (default mixing * dielectric matrix)
  average eigenvalue GAMMA=   1.5005
  2.8980  2.5097  1.8163  0.7314  0.9759  0.9759  1.0486  1.0486

 Free energy of the ion-electron system (eV)
  ---------------------------------------------------
  alpha Z        PSCENC =         0.02234163
  Ewald energy   TEWEN  =       642.17740067
  -Hartree energ DENC   =     -1504.65644508
  -exchange      EXHF   =         0.00000000
  -V(xc)+E(xc)   XCENC  =        74.91634811
  PAW double counting   =      3712.28606612    -3722.85264255
  entropy T*S    EENTRO =        -0.00000000
  eigenvalues    EBANDS =      -266.88071001
  atomic energy  EATOM  =      1036.88928565
  Solvation  Ediel_sol  =         0.00000000
  ---------------------------------------------------
  free energy    TOTEN  =       -28.09835546 eV

  energy without entropy =      -28.09835546  energy(sigma->0) =      -28.09835546


--------------------------------------------------------------------------------------------------------




--------------------------------------- Iteration      1(  14)  ---------------------------------------


    POTLOK:  cpu time   11.8464: real time   11.8649
    SETDIJ:  cpu time    0.0537: real time    0.0537
     EDDAV:  cpu time    7.2988: real time    7.3116
       DOS:  cpu time    0.0030: real time    0.0030
    CHARGE:  cpu time    1.6371: real time    1.6396
    MIXING:  cpu time    0.2971: real time    0.2975
    --------------------------------------------
      LOOP:  cpu time   21.1360: real time   21.1704

 eigenvalue-minimisations  :    48
 total energy-change (2. order) :-0.1999000E-02  (-0.2222858E-04)
 number of electron      17.9999998 magnetization 
 augmentation part        2.6928319 magnetization 

 Broyden mixing:
  rms(total) = 0.31370E-02    rms(broyden)= 0.31370E-02
  rms(prec ) = 0.43717E-02
  weight for this iteration     100.00

 eigenvalues of (default mixing * dielectric matrix)
  average eigenvalue GAMMA=   1.7219
  4.6313  2.4194  2.2347  1.2548  1.2548  1.0555  1.0555  0.7334  0.8573

 Free energy of the ion-electron system (eV)
  ---------------------------------------------------
  alpha Z        PSCENC =         0.02234163
  Ewald energy   TEWEN  =       642.17740067
  -Hartree energ DENC   =     -1504.76184644
  -exchange      EXHF   =         0.00000000
  -V(xc)+E(xc)   XCENC  =        74.91621403
  PAW double counting   =      3710.06630873    -3720.63228121
  entropy T*S    EENTRO =        -0.00000000
  eigenvalues    EBANDS =      -266.77777752
  atomic energy  EATOM  =      1036.88928565
  Solvation  Ediel_sol  =         0.00000000
  ---------------------------------------------------
  free energy    TOTEN  =       -28.10035446 eV

  energy without entropy =      -28.10035446  energy(sigma->0) =      -28.10035446


--------------------------------------------------------------------------------------------------------




--------------------------------------- Iteration      1(  15)  ---------------------------------------


    POTLOK:  cpu time   11.8529: real time   11.8715
    SETDIJ:  cpu time    0.0543: real time    0.0544
     EDDAV:  cpu time    6.4839: real time    6.4952
       DOS:  cpu time    0.0015: real time    0.0015
    CHARGE:  cpu time    1.6362: real time    1.6386
    MIXING:  cpu time    0.3168: real time    0.3173
    --------------------------------------------
      LOOP:  cpu time   20.3455: real time   20.3784

 eigenvalue-minimisations  :    40
 total energy-change (2. order) :-0.3944441E-02  (-0.9029971E-04)
 number of electron      17.9999998 magnetization 
 augmentation part        2.6928700 magnetization 

 Broyden mixing:
  rms(total) = 0.27297E-02    rms(broyden)= 0.27297E-02
  rms(prec ) = 0.30633E-02
  weight for this iteration     100.00

 eigenvalues of (default mixing * dielectric matrix)
  average eigenvalue GAMMA=   1.7201
  4.8401  2.5415  2.5415  1.4271  1.4271  0.9812  0.9812  0.7294  0.8658  0.8658

 Free energy of the ion-electron system (eV)
  ---------------------------------------------------
  alpha Z        PSCENC =         0.02234163
  Ewald energy   TEWEN  =       642.17740067
  -Hartree energ DENC   =     -1504.98108804
  -exchange      EXHF   =         0.00000000
  -V(xc)+E(xc)   XCENC  =        74.91421250
  PAW double counting   =      3709.46901124    -3720.03065627
  entropy T*S    EENTRO =        -0.00000000
  eigenvalues    EBANDS =      -266.56480629
  atomic energy  EATOM  =      1036.88928565
  Solvation  Ediel_sol  =         0.00000000
  ---------------------------------------------------
  free energy    TOTEN  =       -28.10429891 eV

  energy without entropy =      -28.10429891  energy(sigma->0) =      -28.10429891


--------------------------------------------------------------------------------------------------------




--------------------------------------- Iteration      1(  16)  ---------------------------------------


    POTLOK:  cpu time   11.8420: real time   11.8608
    SETDIJ:  cpu time    0.0558: real time    0.0559
     EDDAV:  cpu time    8.2326: real time    8.2471
       DOS:  cpu time    0.0020: real time    0.0020
    CHARGE:  cpu time    1.6673: real time    1.6698
    MIXING:  cpu time    0.3109: real time    0.3114
    --------------------------------------------
      LOOP:  cpu time   22.1106: real time   22.1469

 eigenvalue-minimisations  :    56
 total energy-change (2. order) :-0.1032590E-02  (-0.1104444E-04)
 number of electron      17.9999998 magnetization 
 augmentation part        2.6924556 magnetization 

 Broyden mixing:
  rms(total) = 0.15820E-02    rms(broyden)= 0.15820E-02
  rms(prec ) = 0.18946E-02
  weight for this iteration     100.00

 eigenvalues of (default mixing * dielectric matrix)
  average eigenvalue GAMMA=   1.7348
  5.5864  2.5096  2.5096  1.5429  1.5429  1.0073  1.0073  1.0745  0.7457  0.7782
  0.7782

 Free energy of the ion-electron system (eV)
  ---------------------------------------------------
  alpha Z        PSCENC =         0.02234163
  Ewald energy   TEWEN  =       642.17740067
  -Hartree energ DENC   =     -1505.01352098
  -exchange      EXHF   =         0.00000000
  -V(xc)+E(xc)   XCENC  =        74.91350462
  PAW double counting   =      3709.50582609    -3720.06869701
  entropy T*S    EENTRO =        -0.00000000
  eigenvalues    EBANDS =      -266.53147216
  atomic energy  EATOM  =      1036.88928565
  Solvation  Ediel_sol  =         0.00000000
  ---------------------------------------------------
  free energy    TOTEN  =       -28.10533150 eV

  energy without entropy =      -28.10533150  energy(sigma->0) =      -28.10533150


--------------------------------------------------------------------------------------------------------




--------------------------------------- Iteration      1(  17)  ---------------------------------------


    POTLOK:  cpu time   11.8650: real time   11.8836
    SETDIJ:  cpu time    0.0523: real time    0.0523
     EDDAV:  cpu time    7.3486: real time    7.3613
       DOS:  cpu time    0.0009: real time    0.0009
    CHARGE:  cpu time    1.6592: real time    1.6617
    MIXING:  cpu time    0.3232: real time    0.3238
    --------------------------------------------
      LOOP:  cpu time   21.2492: real time   21.2836

 eigenvalue-minimisations  :    48
 total energy-change (2. order) :-0.8907643E-03  (-0.4677770E-05)
 number of electron      17.9999998 magnetization 
 augmentation part        2.6924630 magnetization 

 Broyden mixing:
  rms(total) = 0.94455E-03    rms(broyden)= 0.94455E-03
  rms(prec ) = 0.11786E-02
  weight for this iteration     100.00

 eigenvalues of (default mixing * dielectric matrix)
  average eigenvalue GAMMA=   1.9377
  7.2356  3.3138  2.4621  2.1552  1.3495  1.3495  1.0698  0.9590  0.9590  0.7328
  0.8332  0.8332

 Free energy of the ion-electron system (eV)
  ---------------------------------------------------
  alpha Z        PSCENC =         0.02234163
  Ewald energy   TEWEN  =       642.17740067
  -Hartree energ DENC   =     -1505.03674135
  -exchange      EXHF   =         0.00000000
  -V(xc)+E(xc)   XCENC  =        74.91202931
  PAW double counting   =      3709.63114490    -3720.19292493
  entropy T*S    EENTRO =        -0.00000000
  eigenvalues    EBANDS =      -266.50875813
  atomic energy  EATOM  =      1036.88928565
  Solvation  Ediel_sol  =         0.00000000
  ---------------------------------------------------
  free energy    TOTEN  =       -28.10622226 eV

  energy without entropy =      -28.10622226  energy(sigma->0) =      -28.10622226


--------------------------------------------------------------------------------------------------------




--------------------------------------- Iteration      1(  18)  ---------------------------------------


    POTLOK:  cpu time   11.8556: real time   11.8743
    SETDIJ:  cpu time    0.0530: real time    0.0531
     EDDAV:  cpu time    5.4973: real time    5.5071
       DOS:  cpu time    0.0029: real time    0.0029
    CHARGE:  cpu time    1.6282: real time    1.6307
    MIXING:  cpu time    0.4857: real time    0.4863
    --------------------------------------------
      LOOP:  cpu time   19.5226: real time   19.5543

 eigenvalue-minimisations  :    32
 total energy-change (2. order) :-0.1077659E-02  (-0.1062658E-04)
 number of electron      17.9999998 magnetization 
 augmentation part        2.6923988 magnetization 

 Broyden mixing:
  rms(total) = 0.56421E-03    rms(broyden)= 0.56421E-03
  rms(prec ) = 0.63462E-03
  weight for this iteration     100.00

 eigenvalues of (default mixing * dielectric matrix)
  average eigenvalue GAMMA=   1.8991
  7.4466  3.3480  2.5218  1.7826  1.7826  1.2797  1.2797  0.9946  0.9946  0.9292
  0.7331  0.7977  0.7977

 Free energy of the ion-electron system (eV)
  ---------------------------------------------------
  alpha Z        PSCENC =         0.02234163
  Ewald energy   TEWEN  =       642.17740067
  -Hartree energ DENC   =     -1505.05663224
  -exchange      EXHF   =         0.00000000
  -V(xc)+E(xc)   XCENC  =        74.91026321
  PAW double counting   =      3709.77077054    -3720.33235036
  entropy T*S    EENTRO =        -0.00000000
  eigenvalues    EBANDS =      -266.48837902
  atomic energy  EATOM  =      1036.88928565
  Solvation  Ediel_sol  =         0.00000000
  ---------------------------------------------------
  free energy    TOTEN  =       -28.10729992 eV

  energy without entropy =      -28.10729992  energy(sigma->0) =      -28.10729992


--------------------------------------------------------------------------------------------------------




--------------------------------------- Iteration      1(  19)  ---------------------------------------


    POTLOK:  cpu time   11.8539: real time   11.8724
    SETDIJ:  cpu time    0.0528: real time    0.0528
     EDDAV:  cpu time    7.3565: real time    7.3693
       DOS:  cpu time    0.0019: real time    0.0019
    CHARGE:  cpu time    1.6670: real time    1.6695
    MIXING:  cpu time    0.3697: real time    0.3703
    --------------------------------------------
      LOOP:  cpu time   21.3018: real time   21.3363

 eigenvalue-minimisations  :    48
 total energy-change (2. order) :-0.1831749E-03  (-0.4213713E-06)
 number of electron      17.9999998 magnetization 
 augmentation part        2.6923315 magnetization 

 Broyden mixing:
  rms(total) = 0.47041E-03    rms(broyden)= 0.47041E-03
  rms(prec ) = 0.52414E-03
  weight for this iteration     100.00

 eigenvalues of (default mixing * dielectric matrix)
  average eigenvalue GAMMA=   1.9288
  7.5308  3.9713  2.4894  2.4894  1.5916  1.5916  1.0877  1.0877  0.9694  0.9694
  0.7339  0.8819  0.8049  0.8049

 Free energy of the ion-electron system (eV)
  ---------------------------------------------------
  alpha Z        PSCENC =         0.02234163
  Ewald energy   TEWEN  =       642.17740067
  -Hartree energ DENC   =     -1505.06127646
  -exchange      EXHF   =         0.00000000
  -V(xc)+E(xc)   XCENC  =        74.91035417
  PAW double counting   =      3709.82636349    -3720.38814978
  entropy T*S    EENTRO =        -0.00000000
  eigenvalues    EBANDS =      -266.48380245
  atomic energy  EATOM  =      1036.88928565
  Solvation  Ediel_sol  =         0.00000000
  ---------------------------------------------------
  free energy    TOTEN  =       -28.10748309 eV

  energy without entropy =      -28.10748309  energy(sigma->0) =      -28.10748309


--------------------------------------------------------------------------------------------------------




--------------------------------------- Iteration      1(  20)  ---------------------------------------


    POTLOK:  cpu time   11.8333: real time   11.8540
    SETDIJ:  cpu time    0.0527: real time    0.0527
     EDDAV:  cpu time    7.3131: real time    7.3257
       DOS:  cpu time    0.0024: real time    0.0024
    CHARGE:  cpu time    1.6536: real time    1.6561
    MIXING:  cpu time    0.4016: real time    0.4022
    --------------------------------------------
      LOOP:  cpu time   21.2566: real time   21.2931

 eigenvalue-minimisations  :    48
 total energy-change (2. order) :-0.2505990E-03  (-0.7441875E-06)
 number of electron      17.9999998 magnetization 
 augmentation part        2.6923861 magnetization 

 Broyden mixing:
  rms(total) = 0.35003E-03    rms(broyden)= 0.35003E-03
  rms(prec ) = 0.37420E-03
  weight for this iteration     100.00

 eigenvalues of (default mixing * dielectric matrix)
  average eigenvalue GAMMA=   1.9846
  8.3980  4.0849  2.8951  2.4779  1.6083  1.6083  1.4097  1.0965  1.0965  0.9260
  0.9260  0.7332  0.8528  0.8283  0.8283

 Free energy of the ion-electron system (eV)
  ---------------------------------------------------
  alpha Z        PSCENC =         0.02234163
  Ewald energy   TEWEN  =       642.17740067
  -Hartree energ DENC   =     -1505.05032378
  -exchange      EXHF   =         0.00000000
  -V(xc)+E(xc)   XCENC  =        74.90956128
  PAW double counting   =      3709.61300392    -3720.17445141
  entropy T*S    EENTRO =        -0.00000000
  eigenvalues    EBANDS =      -266.49455165
  atomic energy  EATOM  =      1036.88928565
  Solvation  Ediel_sol  =         0.00000000
  ---------------------------------------------------
  free energy    TOTEN  =       -28.10773369 eV

  energy without entropy =      -28.10773369  energy(sigma->0) =      -28.10773369


--------------------------------------------------------------------------------------------------------




--------------------------------------- Iteration      1(  21)  ---------------------------------------


    POTLOK:  cpu time   11.8449: real time   11.8633
    SETDIJ:  cpu time    0.0515: real time    0.0516
     EDDAV:  cpu time    5.5295: real time    5.5392
       DOS:  cpu time    0.0013: real time    0.0013
    CHARGE:  cpu time    1.6274: real time    1.6300
    MIXING:  cpu time    0.4168: real time    0.4175
    --------------------------------------------
      LOOP:  cpu time   19.4715: real time   19.5028

 eigenvalue-minimisations  :    32
 total energy-change (2. order) :-0.1315187E-03  (-0.1405434E-06)
 number of electron      17.9999998 magnetization 
 augmentation part        2.6924072 magnetization 

 Broyden mixing:
  rms(total) = 0.20365E-03    rms(broyden)= 0.20365E-03
  rms(prec ) = 0.21766E-03
  weight for this iteration     100.00

 eigenvalues of (default mixing * dielectric matrix)
  average eigenvalue GAMMA=   2.0501
  8.7497  4.9103  3.0148  2.5959  2.4015  1.5052  1.5052  1.0499  1.0499  0.9302
  0.9302  0.9574  0.7326  0.8205  0.8205  0.8281

 Free energy of the ion-electron system (eV)
  ---------------------------------------------------
  alpha Z        PSCENC =         0.02234163
  Ewald energy   TEWEN  =       642.17740067
  -Hartree energ DENC   =     -1505.05177600
  -exchange      EXHF   =         0.00000000
  -V(xc)+E(xc)   XCENC  =        74.90941532
  PAW double counting   =      3709.58920242    -3720.15057964
  entropy T*S    EENTRO =        -0.00000000
  eigenvalues    EBANDS =      -266.49315525
  atomic energy  EATOM  =      1036.88928565
  Solvation  Ediel_sol  =         0.00000000
  ---------------------------------------------------
  free energy    TOTEN  =       -28.10786521 eV

  energy without entropy =      -28.10786521  energy(sigma->0) =      -28.10786521


--------------------------------------------------------------------------------------------------------




--------------------------------------- Iteration      1(  22)  ---------------------------------------


    POTLOK:  cpu time   11.8527: real time   11.8710
    SETDIJ:  cpu time    0.0488: real time    0.0489
     EDDAV:  cpu time    7.3335: real time    7.3461
       DOS:  cpu time    0.0026: real time    0.0026
    CHARGE:  cpu time    1.6844: real time    1.6868
    MIXING:  cpu time    0.4160: real time    0.4168
    --------------------------------------------
      LOOP:  cpu time   21.3381: real time   21.3723

 eigenvalue-minimisations  :    48
 total energy-change (2. order) :-0.7208340E-04  (-0.8679975E-07)
 number of electron      17.9999998 magnetization 
 augmentation part        2.6924042 magnetization 

 Broyden mixing:
  rms(total) = 0.10250E-03    rms(broyden)= 0.10250E-03
  rms(prec ) = 0.11147E-03
  weight for this iteration     100.00

 eigenvalues of (default mixing * dielectric matrix)
  average eigenvalue GAMMA=   2.0516
  8.8738  5.4551  3.2465  2.3741  2.3125  1.6745  1.6745  1.0650  1.0650  1.0545
  1.0545  0.9256  0.9256  0.7332  0.8494  0.7966  0.7966

 Free energy of the ion-electron system (eV)
  ---------------------------------------------------
  alpha Z        PSCENC =         0.02234163
  Ewald energy   TEWEN  =       642.17740067
  -Hartree energ DENC   =     -1505.05005533
  -exchange      EXHF   =         0.00000000
  -V(xc)+E(xc)   XCENC  =        74.90929112
  PAW double counting   =      3709.56956673    -3720.13108637
  entropy T*S    EENTRO =        -0.00000000
  eigenvalues    EBANDS =      -266.49468140
  atomic energy  EATOM  =      1036.88928565
  Solvation  Ediel_sol  =         0.00000000
  ---------------------------------------------------
  free energy    TOTEN  =       -28.10793729 eV

  energy without entropy =      -28.10793729  energy(sigma->0) =      -28.10793729


--------------------------------------------------------------------------------------------------------




--------------------------------------- Iteration      1(  23)  ---------------------------------------


    POTLOK:  cpu time   11.8237: real time   11.8425
    SETDIJ:  cpu time    0.0524: real time    0.0524
     EDDAV:  cpu time    7.3187: real time    7.3313
       DOS:  cpu time    0.0007: real time    0.0007
    CHARGE:  cpu time    1.6877: real time    1.6902
    MIXING:  cpu time    0.4450: real time    0.4457
    --------------------------------------------
      LOOP:  cpu time   21.3281: real time   21.3629

 eigenvalue-minimisations  :    48
 total energy-change (2. order) :-0.2991138E-04  (-0.1722571E-07)
 number of electron      17.9999998 magnetization 
 augmentation part        2.6923956 magnetization 

 Broyden mixing:
  rms(total) = 0.80646E-04    rms(broyden)= 0.80646E-04
  rms(prec ) = 0.85773E-04
  weight for this iteration     100.00

 eigenvalues of (default mixing * dielectric matrix)
  average eigenvalue GAMMA=   2.1433
  9.2185  5.8495  3.7401  2.7815  2.5607  2.3448  1.5173  1.5173  1.0648  1.0648
  0.9223  0.9223  0.9578  0.9578  0.7334  0.8404  0.7933  0.7933

 Free energy of the ion-electron system (eV)
  ---------------------------------------------------
  alpha Z        PSCENC =         0.02234163
  Ewald energy   TEWEN  =       642.17740067
  -Hartree energ DENC   =     -1505.04987758
  -exchange      EXHF   =         0.00000000
  -V(xc)+E(xc)   XCENC  =        74.90925971
  PAW double counting   =      3709.61288045    -3720.17437866
  entropy T*S    EENTRO =        -0.00000000
  eigenvalues    EBANDS =      -266.49487906
  atomic energy  EATOM  =      1036.88928565
  Solvation  Ediel_sol  =         0.00000000
  ---------------------------------------------------
  free energy    TOTEN  =       -28.10796721 eV

  energy without entropy =      -28.10796721  energy(sigma->0) =      -28.10796721


--------------------------------------------------------------------------------------------------------




--------------------------------------- Iteration      1(  24)  ---------------------------------------


    POTLOK:  cpu time   11.8024: real time   11.8208
    SETDIJ:  cpu time    0.0523: real time    0.0523
     EDDAV:  cpu time    5.5202: real time    5.5298
       DOS:  cpu time    0.0028: real time    0.0028
    CHARGE:  cpu time    1.6173: real time    1.6199
    MIXING:  cpu time    0.4456: real time    0.4464
    --------------------------------------------
      LOOP:  cpu time   19.4406: real time   19.4720

 eigenvalue-minimisations  :    32
 total energy-change (2. order) :-0.3165283E-04  (-0.2713599E-07)
 number of electron      17.9999998 magnetization 
 augmentation part        2.6923966 magnetization 

 Broyden mixing:
  rms(total) = 0.42618E-04    rms(broyden)= 0.42618E-04
  rms(prec ) = 0.44249E-04
  weight for this iteration     100.00

 eigenvalues of (default mixing * dielectric matrix)
  average eigenvalue GAMMA=   2.1479
  9.3879  6.1717  4.1845  2.8663  2.4583  2.1296  1.7752  1.6437  1.0154  1.0154
  1.0456  1.0456  0.9646  0.9646  0.9679  0.7333  0.8371  0.8020  0.8020

 Free energy of the ion-electron system (eV)
  ---------------------------------------------------
  alpha Z        PSCENC =         0.02234163
  Ewald energy   TEWEN  =       642.17740067
  -Hartree energ DENC   =     -1505.05026898
  -exchange      EXHF   =         0.00000000
  -V(xc)+E(xc)   XCENC  =        74.90922341
  PAW double counting   =      3709.62219493    -3720.18365949
  entropy T*S    EENTRO =        -0.00000000
  eigenvalues    EBANDS =      -266.49451667
  atomic energy  EATOM  =      1036.88928565
  Solvation  Ediel_sol  =         0.00000000
  ---------------------------------------------------
  free energy    TOTEN  =       -28.10799886 eV

  energy without entropy =      -28.10799886  energy(sigma->0) =      -28.10799886


--------------------------------------------------------------------------------------------------------




--------------------------------------- Iteration      1(  25)  ---------------------------------------


    POTLOK:  cpu time   11.8078: real time   11.8261
    SETDIJ:  cpu time    0.0566: real time    0.0567
     EDDAV:  cpu time    6.4514: real time    6.4666
       DOS:  cpu time    0.0011: real time    0.0011
    CHARGE:  cpu time    1.6653: real time    1.6677
    MIXING:  cpu time    0.4714: real time    0.4723
    --------------------------------------------
      LOOP:  cpu time   20.4536: real time   20.4904

 eigenvalue-minimisations  :    40
 total energy-change (2. order) :-0.6031545E-05  (-0.2318963E-08)
 number of electron      17.9999998 magnetization 
 augmentation part        2.6923969 magnetization 

 Broyden mixing:
  rms(total) = 0.27282E-04    rms(broyden)= 0.27282E-04
  rms(prec ) = 0.28436E-04
  weight for this iteration     100.00

 eigenvalues of (default mixing * dielectric matrix)
  average eigenvalue GAMMA=   2.1658
  9.4931  6.4827  4.4050  2.8211  2.4449  2.4449  2.2414  1.4890  1.4890  1.0181
  1.0181  0.9700  0.9700  0.9465  0.9465  0.9457  0.7333  0.8542  0.8011  0.8011

 Free energy of the ion-electron system (eV)
  ---------------------------------------------------
  alpha Z        PSCENC =         0.02234163
  Ewald energy   TEWEN  =       642.17740067
  -Hartree energ DENC   =     -1505.05065245
  -exchange      EXHF   =         0.00000000
  -V(xc)+E(xc)   XCENC  =        74.90923503
  PAW double counting   =      3709.61262600    -3720.17410370
  entropy T*S    EENTRO =        -0.00000000
  eigenvalues    EBANDS =      -266.49413772
  atomic energy  EATOM  =      1036.88928565
  Solvation  Ediel_sol  =         0.00000000
  ---------------------------------------------------
  free energy    TOTEN  =       -28.10800489 eV

  energy without entropy =      -28.10800489  energy(sigma->0) =      -28.10800489


--------------------------------------------------------------------------------------------------------




--------------------------------------- Iteration      1(  26)  ---------------------------------------


    POTLOK:  cpu time   11.7609: real time   11.7793
    SETDIJ:  cpu time    0.0570: real time    0.0570
     EDDAV:  cpu time    4.6104: real time    4.6184
       DOS:  cpu time    0.0007: real time    0.0007
    CHARGE:  cpu time    1.6732: real time    1.6759
    MIXING:  cpu time    0.5023: real time    0.5032
    --------------------------------------------
      LOOP:  cpu time   18.6045: real time   18.6344

 eigenvalue-minimisations  :    24
 total energy-change (2. order) :-0.5064711E-05  (-0.1879439E-08)
 number of electron      17.9999998 magnetization 
 augmentation part        2.6923958 magnetization 

 Broyden mixing:
  rms(total) = 0.12683E-04    rms(broyden)= 0.12683E-04
  rms(prec ) = 0.13518E-04
  weight for this iteration     100.00

 eigenvalues of (default mixing * dielectric matrix)
  average eigenvalue GAMMA=   2.1453
  9.5080  6.7077  4.6460  3.2371  2.4557  2.2461  2.2461  1.6358  1.4445  1.0772
  1.0417  1.0417  0.9436  0.9436  0.9846  0.9846  0.8384  0.7953  0.7953  0.7345
  0.7429

 Free energy of the ion-electron system (eV)
  ---------------------------------------------------
  alpha Z        PSCENC =         0.02234163
  Ewald energy   TEWEN  =       642.17740067
  -Hartree energ DENC   =     -1505.05085092
  -exchange      EXHF   =         0.00000000
  -V(xc)+E(xc)   XCENC  =        74.90924210
  PAW double counting   =      3709.60763555    -3720.16911774
  entropy T*S    EENTRO =        -0.00000000
  eigenvalues    EBANDS =      -266.49394690
  atomic energy  EATOM  =      1036.88928565
  Solvation  Ediel_sol  =         0.00000000
  ---------------------------------------------------
  free energy    TOTEN  =       -28.10800995 eV

  energy without entropy =      -28.10800995  energy(sigma->0) =      -28.10800995


--------------------------------------------------------------------------------------------------------




--------------------------------------- Iteration      1(  27)  ---------------------------------------


    POTLOK:  cpu time   11.7946: real time   11.8130
    SETDIJ:  cpu time    0.0608: real time    0.0609
     EDDAV:  cpu time    6.4207: real time    6.4321
       DOS:  cpu time    0.0027: real time    0.0027
    CHARGE:  cpu time    1.6615: real time    1.6641
    MIXING:  cpu time    0.6376: real time    0.6385
    --------------------------------------------
      LOOP:  cpu time   20.5780: real time   20.6113

 eigenvalue-minimisations  :    40
 total energy-change (2. order) :-0.1679694E-05  (-0.1210140E-08)
 number of electron      17.9999998 magnetization 
 augmentation part        2.6923957 magnetization 

 Broyden mixing:
  rms(total) = 0.11810E-04    rms(broyden)= 0.11810E-04
  rms(prec ) = 0.12290E-04
  weight for this iteration     100.00

 eigenvalues of (default mixing * dielectric matrix)
  average eigenvalue GAMMA=   2.1509
  9.5838  6.8690  4.9277  3.1983  2.5899  2.5899  2.1400  1.8858  1.6643  1.0214
  1.0214  1.1088  1.1088  0.9624  0.9624  0.9494  0.9494  0.7334  0.8254  0.7974
  0.7974  0.6330

 Free energy of the ion-electron system (eV)
  ---------------------------------------------------
  alpha Z        PSCENC =         0.02234163
  Ewald energy   TEWEN  =       642.17740067
  -Hartree energ DENC   =     -1505.05082145
  -exchange      EXHF   =         0.00000000
  -V(xc)+E(xc)   XCENC  =        74.90923874
  PAW double counting   =      3709.61195989    -3720.17344482
  entropy T*S    EENTRO =        -0.00000000
  eigenvalues    EBANDS =      -266.49397194
  atomic energy  EATOM  =      1036.88928565
  Solvation  Ediel_sol  =         0.00000000
  ---------------------------------------------------
  free energy    TOTEN  =       -28.10801163 eV

  energy without entropy =      -28.10801163  energy(sigma->0) =      -28.10801163


--------------------------------------------------------------------------------------------------------




--------------------------------------- Iteration      1(  28)  ---------------------------------------


    POTLOK:  cpu time   11.7692: real time   11.7876
    SETDIJ:  cpu time    0.0541: real time    0.0541
     EDDAV:  cpu time    4.6400: real time    4.6489
       DOS:  cpu time    0.0023: real time    0.0023
    CHARGE:  cpu time    1.6433: real time    1.6458
    MIXING:  cpu time    0.5395: real time    0.5404
    --------------------------------------------
      LOOP:  cpu time   18.6483: real time   18.6792

 eigenvalue-minimisations  :    24
 total energy-change (2. order) :-0.1499702E-05  (-0.9318128E-09)
 number of electron      17.9999998 magnetization 
 augmentation part        2.6923963 magnetization 

 Broyden mixing:
  rms(total) = 0.88883E-05    rms(broyden)= 0.88883E-05
  rms(prec ) = 0.91137E-05
  weight for this iteration     100.00

 eigenvalues of (default mixing * dielectric matrix)
  average eigenvalue GAMMA=   2.1803
  9.6884  7.1139  5.2604  3.7897  2.8171  2.6189  2.1586  2.1586  1.5940  1.3044
  1.1638  1.0326  1.0326  0.9704  0.9704  0.8995  0.8995  0.9360  0.7333  0.8715
  0.7932  0.7932  0.5457

 Free energy of the ion-electron system (eV)
  ---------------------------------------------------
  alpha Z        PSCENC =         0.02234163
  Ewald energy   TEWEN  =       642.17740067
  -Hartree energ DENC   =     -1505.05074274
  -exchange      EXHF   =         0.00000000
  -V(xc)+E(xc)   XCENC  =        74.90923254
  PAW double counting   =      3709.60432061    -3720.16580340
  entropy T*S    EENTRO =        -0.00000000
  eigenvalues    EBANDS =      -266.49404810
  atomic energy  EATOM  =      1036.88928565
  Solvation  Ediel_sol  =         0.00000000
  ---------------------------------------------------
  free energy    TOTEN  =       -28.10801313 eV

  energy without entropy =      -28.10801313  energy(sigma->0) =      -28.10801313


--------------------------------------------------------------------------------------------------------




--------------------------------------- Iteration      1(  29)  ---------------------------------------


    POTLOK:  cpu time   11.7814: real time   11.7998
    SETDIJ:  cpu time    0.0497: real time    0.0497
     EDDAV:  cpu time    6.4769: real time    6.4883
       DOS:  cpu time    0.0006: real time    0.0006
    CHARGE:  cpu time    1.6437: real time    1.6464
    MIXING:  cpu time    0.5758: real time    0.5768
    --------------------------------------------
      LOOP:  cpu time   20.5282: real time   20.5615

 eigenvalue-minimisations  :    40
 total energy-change (2. order) :-0.7952669E-06  (-0.8790071E-09)
 number of electron      17.9999998 magnetization 
 augmentation part        2.6923972 magnetization 

 Broyden mixing:
  rms(total) = 0.65144E-05    rms(broyden)= 0.65144E-05
  rms(prec ) = 0.66193E-05
  weight for this iteration     100.00

 eigenvalues of (default mixing * dielectric matrix)
  average eigenvalue GAMMA=   2.1543
  9.6805  7.2735  5.3809  3.9505  2.9561  2.3886  2.3886  1.7887  1.7887  1.3600
  1.3348  1.0108  1.0108  1.0509  1.0509  0.9463  0.9463  0.7333  0.7969  0.7969
  0.8758  0.8465  0.8465  0.4992

 Free energy of the ion-electron system (eV)
  ---------------------------------------------------
  alpha Z        PSCENC =         0.02234163
  Ewald energy   TEWEN  =       642.17740067
  -Hartree energ DENC   =     -1505.05065919
  -exchange      EXHF   =         0.00000000
  -V(xc)+E(xc)   XCENC  =        74.90922783
  PAW double counting   =      3709.60564747    -3720.16712959
  entropy T*S    EENTRO =        -0.00000000
  eigenvalues    EBANDS =      -266.49412840
  atomic energy  EATOM  =      1036.88928565
  Solvation  Ediel_sol  =         0.00000000
  ---------------------------------------------------
  free energy    TOTEN  =       -28.10801393 eV

  energy without entropy =      -28.10801393  energy(sigma->0) =      -28.10801393


--------------------------------------------------------------------------------------------------------




--------------------------------------- Iteration      1(  30)  ---------------------------------------


    POTLOK:  cpu time   11.8215: real time   11.8400
    SETDIJ:  cpu time    0.0539: real time    0.0539
     EDDAV:  cpu time    6.4613: real time    6.4724
       DOS:  cpu time    0.0026: real time    0.0026
    CHARGE:  cpu time    1.6450: real time    1.6477
    MIXING:  cpu time    0.6128: real time    0.6139
    --------------------------------------------
      LOOP:  cpu time   20.5970: real time   20.6304

 eigenvalue-minimisations  :    40
 total energy-change (2. order) :-0.2197328E-06  (-0.5655014E-09)
 number of electron      17.9999998 magnetization 
 augmentation part        2.6923968 magnetization 

 Broyden mixing:
  rms(total) = 0.41357E-05    rms(broyden)= 0.41357E-05
  rms(prec ) = 0.42253E-05
  weight for this iteration     100.00

 eigenvalues of (default mixing * dielectric matrix)
  average eigenvalue GAMMA=   2.1565
  9.7070  7.4753  5.5214  4.1595  2.9037  2.4140  2.4140  2.1783  1.9590  1.5868
  1.0470  1.0470  1.0997  1.0997  0.9505  0.9505  0.9031  0.9031  0.9775  0.9507
  0.7334  0.8342  0.8016  0.8016  0.4951

 Free energy of the ion-electron system (eV)
  ---------------------------------------------------
  alpha Z        PSCENC =         0.02234163
  Ewald energy   TEWEN  =       642.17740067
  -Hartree energ DENC   =     -1505.05069607
  -exchange      EXHF   =         0.00000000
  -V(xc)+E(xc)   XCENC  =        74.90923042
  PAW double counting   =      3709.60771009    -3720.16919317
  entropy T*S    EENTRO =        -0.00000000
  eigenvalues    EBANDS =      -266.49409336
  atomic energy  EATOM  =      1036.88928565
  Solvation  Ediel_sol  =         0.00000000
  ---------------------------------------------------
  free energy    TOTEN  =       -28.10801415 eV

  energy without entropy =      -28.10801415  energy(sigma->0) =      -28.10801415


--------------------------------------------------------------------------------------------------------




--------------------------------------- Iteration      1(  31)  ---------------------------------------


    POTLOK:  cpu time   11.7842: real time   11.8024
    SETDIJ:  cpu time    0.0484: real time    0.0484
     EDDAV:  cpu time    4.6046: real time    4.6149
       DOS:  cpu time    0.0014: real time    0.0014
    CHARGE:  cpu time    1.6548: real time    1.6574
    MIXING:  cpu time    0.6378: real time    0.6389
    --------------------------------------------
      LOOP:  cpu time   18.7312: real time   18.7633

 eigenvalue-minimisations  :    24
 total energy-change (2. order) :-0.2400670E-06  (-0.4962875E-09)
 number of electron      17.9999998 magnetization 
 augmentation part        2.6923967 magnetization 

 Broyden mixing:
  rms(total) = 0.17820E-05    rms(broyden)= 0.17820E-05
  rms(prec ) = 0.18632E-05
  weight for this iteration     100.00

 eigenvalues of (default mixing * dielectric matrix)
  average eigenvalue GAMMA=   2.1748
  9.7195  7.6798  5.7479  4.4003  3.0395  2.6405  2.3423  2.0471  2.0471  1.7318
  1.5360  1.0263  1.0263  1.1265  1.0489  1.0489  0.9381  0.9381  1.0418  0.7334
  0.8796  0.8796  0.8026  0.8026  0.8317  0.4897

 Free energy of the ion-electron system (eV)
  ---------------------------------------------------
  alpha Z        PSCENC =         0.02234163
  Ewald energy   TEWEN  =       642.17740067
  -Hartree energ DENC   =     -1505.05069527
  -exchange      EXHF   =         0.00000000
  -V(xc)+E(xc)   XCENC  =        74.90923058
  PAW double counting   =      3709.60881473    -3720.17029763
  entropy T*S    EENTRO =        -0.00000000
  eigenvalues    EBANDS =      -266.49409474
  atomic energy  EATOM  =      1036.88928565
  Solvation  Ediel_sol  =         0.00000000
  ---------------------------------------------------
  free energy    TOTEN  =       -28.10801439 eV

  energy without entropy =      -28.10801439  energy(sigma->0) =      -28.10801439


--------------------------------------------------------------------------------------------------------




--------------------------------------- Iteration      1(  32)  ---------------------------------------


    POTLOK:  cpu time   11.7556: real time   11.7738
    SETDIJ:  cpu time    0.0543: real time    0.0544
     EDDAV:  cpu time    5.5349: real time    5.5448
       DOS:  cpu time    0.0011: real time    0.0011
    CHARGE:  cpu time    1.6457: real time    1.6482
    MIXING:  cpu time    0.7354: real time    0.7365
    --------------------------------------------
      LOOP:  cpu time   19.7270: real time   19.7587

 eigenvalue-minimisations  :    32
 total energy-change (2. order) :-0.1520914E-06  (-0.4397442E-09)
 number of electron      17.9999998 magnetization 
 augmentation part        2.6923966 magnetization 

 Broyden mixing:
  rms(total) = 0.13908E-05    rms(broyden)= 0.13908E-05
  rms(prec ) = 0.14252E-05
  weight for this iteration     100.00

 eigenvalues of (default mixing * dielectric matrix)
  average eigenvalue GAMMA=   2.2049
  9.7249  7.9690  6.0258  4.7285  3.4840  2.8206  2.4049  2.1964  2.1964  1.6494
  1.6494  1.1890  1.1890  1.0338  1.0338  0.9700  0.9700  1.0332  0.9067  0.9067
  0.9633  0.7334  0.7983  0.7983  0.8520  0.8169  0.4884

 Free energy of the ion-electron system (eV)
  ---------------------------------------------------
  alpha Z        PSCENC =         0.02234163
  Ewald energy   TEWEN  =       642.17740067
  -Hartree energ DENC   =     -1505.05068706
  -exchange      EXHF   =         0.00000000
  -V(xc)+E(xc)   XCENC  =        74.90923019
  PAW double counting   =      3709.60833396    -3720.16981669
  entropy T*S    EENTRO =        -0.00000000
  eigenvalues    EBANDS =      -266.49410289
  atomic energy  EATOM  =      1036.88928565
  Solvation  Ediel_sol  =         0.00000000
  ---------------------------------------------------
  free energy    TOTEN  =       -28.10801454 eV

  energy without entropy =      -28.10801454  energy(sigma->0) =      -28.10801454


--------------------------------------------------------------------------------------------------------




--------------------------------------- Iteration      1(  33)  ---------------------------------------


    POTLOK:  cpu time   11.7316: real time   11.7506
    SETDIJ:  cpu time    0.0545: real time    0.0546
     EDDAV:  cpu time    4.6149: real time    4.6229
       DOS:  cpu time    0.0022: real time    0.0022
    --------------------------------------------
      LOOP:  cpu time   16.4032: real time   16.4303

 eigenvalue-minimisations  :    24
 total energy-change (2. order) :-0.7083577E-07  (-0.3848335E-09)
 number of electron      17.9999998 magnetization 
 augmentation part        2.6923966 magnetization 

 Free energy of the ion-electron system (eV)
  ---------------------------------------------------
  alpha Z        PSCENC =         0.02234163
  Ewald energy   TEWEN  =       642.17740067
  -Hartree energ DENC   =     -1505.05068523
  -exchange      EXHF   =         0.00000000
  -V(xc)+E(xc)   XCENC  =        74.90923019
  PAW double counting   =      3709.60824687    -3720.16972966
  entropy T*S    EENTRO =        -0.00000000
  eigenvalues    EBANDS =      -266.49410474
  atomic energy  EATOM  =      1036.88928565
  Solvation  Ediel_sol  =         0.00000000
  ---------------------------------------------------
  free energy    TOTEN  =       -28.10801461 eV

  energy without entropy =      -28.10801461  energy(sigma->0) =      -28.10801461


--------------------------------------------------------------------------------------------------------




 average (electrostatic) potential at core
  the test charge radii are     0.6256  0.8471  0.8742
  (the norm of the test charge is              1.0000)
       1 -41.2618       2 -41.1616       3 -87.1371       4 -90.5130       5 -94.3489
 
 
 
 E-fermi :  -7.0001     XC(G=0):  -0.0331     alpha+bet : -0.0076


 k-point     1 :       0.0000    0.0000    0.0000
  band No.  band energies     occupation 
      1     -30.1262      2.00000
      2     -25.2974      2.00000
      3     -14.7277      2.00000
      4     -12.8947      2.00000
      5     -12.3605      2.00000
      6     -12.3571      2.00000
      7      -9.4332      2.00000
      8      -8.9906      2.00000
      9      -7.0598      2.00000
     10      -2.6866      0.00000
     11      -2.6820      0.00000
     12      -0.7829      0.00000
     13      -0.0147      0.00000
     14       0.0362      0.00000
     15       0.1071      0.00000
     16       0.1072      0.00000


--------------------------------------------------------------------------------------------------------


 soft charge-density along one line, spin component            1
         0         1         2         3         4         5         6         7         8         9
 total charge-density along one line
 
 pseudopotential strength for first ion, spin component:            1
 -2.337  -3.709  -0.007  -0.024   0.001
 -3.709  -5.719  -0.014  -0.047   0.001
 -0.007  -0.014  -0.124   0.008  -0.000
 -0.024  -0.047   0.008  -0.098  -0.001
  0.001   0.001  -0.000  -0.001  -0.129
 total augmentation occupancy for first ion, spin component:            1
  2.828  -0.512   0.261   1.012  -0.030
 -0.512   0.212  -0.018  -0.122   0.004
  0.261  -0.018   0.091   0.088  -0.003
  1.012  -0.122   0.088   0.400  -0.009
 -0.030   0.004  -0.003  -0.009   0.103


------------------------ aborting loop because EDIFF is reached ----------------------------------------



 DIPCOR: dipole corrections for dipol
 direction  1 min pos   298, direction  2 min pos   379, direction  3 min pos   373,
 dipolmoment          -0.012517     -0.289979      0.302636 electrons x Angstroem
 Tr[quadrupol]         7.674465

 energy correction for charged system         0.000000 eV
 dipol+quadrupol energy correction            0.000124 eV
 added-field ion interaction          0.000000 eV  (added to PSCEN)

 
  *************** adding dipol energy to TOTEN NOW **************** 
    CHARGE:  cpu time    1.6409: real time    1.6435
    FORLOC:  cpu time    0.5706: real time    0.5713
    FORNL :  cpu time    0.1717: real time    0.1720
    STRESS:  cpu time    2.7807: real time    2.7855
    FORHAR:  cpu time    3.3977: real time    3.4031
    MIXING:  cpu time    0.6590: real time    0.6601
    OFIELD:  cpu time    0.0000: real time    0.0000

  FORCE on cell =-STRESS in cart. coord.  units (eV):
  Direction    XX          YY          ZZ          XY          YZ          ZX
  --------------------------------------------------------------------------------------
  Alpha Z     0.02234     0.02234     0.02234
  Ewald     -63.20922   678.61150    26.77458     7.00831    33.73802    -2.59771
  Hartree   355.40779   778.14552   371.49736     2.97519     9.59430    -0.45773
  E(xc)     -79.88060   -78.21319   -79.51738     0.02432     0.08918    -0.01081
  Local    -648.46690 -1752.53013  -725.45224    -9.32309   -35.27222     2.20294
  n-local    60.06633    45.68204    55.90631    -0.22627    -0.51269     0.12997
  augment    91.37356    84.64847    85.79230    -0.03808    -1.50637     0.16411
  Kinetic   284.68819   251.38647   266.57555    -0.30721    -5.56536     0.52380
  Fock        0.00000     0.00000     0.00000     0.00000     0.00000     0.00000
  -------------------------------------------------------------------------------------
  Total       0.00150     7.75303     1.59882     0.11316     0.56485    -0.04543
  in kB       0.00006     0.28972     0.05975     0.00423     0.02111    -0.00170
  external pressure =        0.12 kB  Pullay stress =        0.00 kB


 VOLUME and BASIS-vectors are now :
 -----------------------------------------------------------------------------
  energy-cutoff  :     1000.00
  volume of cell :    42875.00
      direct lattice vectors                 reciprocal lattice vectors
    35.000000000  0.000000000  0.000000000     0.028571429  0.000000000  0.000000000
     0.000000000 35.000000000  0.000000000     0.000000000  0.028571429  0.000000000
     0.000000000  0.000000000 35.000000000     0.000000000  0.000000000  0.028571429

  length of vectors
    35.000000000 35.000000000 35.000000000     0.028571429  0.028571429  0.028571429


 FORCES acting on ions
    electron-ion (+dipol)            ewald-force                    non-local-force                 convergence-correction
 -----------------------------------------------------------------------------------------------
   -.251E+01 0.344E+02 0.876E+02   0.277E+01 -.372E+02 -.968E+02   -.216E+00 0.217E+01 0.745E+01   0.488E-08 -.916E-07 -.153E-06
   -.997E+00 -.658E+02 -.327E+01   0.110E+01 0.754E+02 0.370E+01   -.870E-01 -.781E+01 -.264E+00   -.355E-09 -.389E-07 0.940E-07
   -.448E+01 -.254E+03 -.766E-01   0.520E+01 0.293E+03 -.115E-01   -.633E+00 -.332E+02 0.830E-01   -.191E-07 -.417E-06 0.114E-05
   0.182E+01 0.995E+02 -.371E+02   -.409E+01 -.141E+03 0.907E+02   0.221E+01 0.400E+02 -.521E+02   -.169E-07 -.103E-05 0.126E-05
   0.351E+01 0.115E+03 -.203E+01   -.499E+01 -.190E+03 0.235E+01   0.138E+01 0.704E+02 -.312E+00   -.680E-07 -.256E-05 0.133E-05
 -----------------------------------------------------------------------------------------------
   -.266E+01 -.715E+02 0.452E+02   -.888E-15 0.000E+00 0.711E-14   0.266E+01 0.715E+02 -.452E+02   -.994E-07 -.414E-05 0.367E-05
 
 
 POSITION                                       TOTAL-FORCE (eV/Angst)
 -----------------------------------------------------------------------------------
      0.02749      1.74109     34.06848         0.048503     -0.621571     -1.719268
      0.01191      2.93850     34.99851         0.014235      1.846276      0.160337
      0.02959      6.27724     34.99666         0.093202      5.002422     -0.005101
      0.00000      1.97721      0.00000        -0.064320     -1.268543      1.555472
      0.00801      5.13849     34.99892        -0.091620     -4.958583      0.008560
 -----------------------------------------------------------------------------------
    total drift:                                0.000134      0.000009     -0.000125


--------------------------------------------------------------------------------------------------------



  FREE ENERGIE OF THE ION-ELECTRON SYSTEM (eV)
  ---------------------------------------------------
  free  energy   TOTEN  =       -28.10789093 eV

  energy  without entropy=      -28.10789093  energy(sigma->0) =      -28.10789093
 


--------------------------------------------------------------------------------------------------------


    POTLOK:  cpu time   11.8119: real time   11.8305


--------------------------------------------------------------------------------------------------------


 writing wavefunctions
     LOOP+:  cpu time 1010.1218: real time 1011.8313
    4ORBIT:  cpu time    0.0000: real time    0.0000

 total amount of memory used by VASP MPI-rank0  1850337. kBytes
=======================================================================

   base      :      30000. kBytes
   nonl-proj :      52334. kBytes
   fftplans  :     601440. kBytes
   grid      :    1154248. kBytes
   one-center:          1. kBytes
   wavefun   :      12314. kBytes
 
  
  
 General timing and accounting informations for this job:
 ========================================================
  
                  Total CPU time used (sec):     1415.298
                            User time (sec):     1362.884
                          System time (sec):       52.414
                         Elapsed time (sec):     1423.184
  
                   Maximum memory used (kb):     2304952.
                   Average memory used (kb):           0.
  
                          Minor page faults:     28905172
                          Major page faults:          236
                 Voluntary context switches:        28795
