 vasp.6.1.2 22Jul20 (build Jan  6 2021 09:55:43) gamma-only                      
 executed on             LinuxPGI date 2021.03.01  21:59:41
 running on   32 total cores
 distrk:  each k-point on   32 cores,    1 groups
 distr:  one band on NCORE=   8 cores,    4 groups


--------------------------------------------------------------------------------------------------------


 INCAR:
 POTCAR:    PAW_PBE H_s 15May2010                 
 POTCAR:    PAW_PBE C_s 06Sep2000                 
 POTCAR:    PAW_PBE O_s 07Sep2000                 
 POTCAR:    PAW_PBE H_s 15May2010                 
   VRHFIN =H: ultrasoft test                                                                        
   LEXCH  = PE                                                                                      
   EATOM  =    12.4884 eV,    0.9179 Ry                                                             
                                                                                                    
   TITEL  = PAW_PBE H_s 15May2010                                                                   
   LULTRA =        F    use ultrasoft PP ?                                                          
   IUNSCR =        0    unscreen: 0-lin 1-nonlin 2-no                                               
   RPACOR =    0.000    partial core radius                                                         
   POMASS =    1.000; ZVAL   =    1.000    mass and valenz                                          
   RCORE  =    1.300    outmost cutoff radius                                                       
   RWIGS  =    0.700; RWIGS  =    0.370    wigner-seitz radius (au A)                               
   ENMAX  =  200.000; ENMIN  =  150.000 eV                                                          
   RCLOC  =    0.701    cutoff for local pot                                                        
   LCOR   =        T    correct aug charges                                                         
   LPAW   =        T    paw PP                                                                      
   EAUG   =  300.000                                                                                
   RMAX   =    1.330    core radius for proj-oper                                                   
   RAUG   =    1.200    factor for augmentation sphere                                              
   RDEP   =    1.337    radius for radial grids                                                     
   RDEPT  =    1.114    core radius for aug-charge                                                  
                                                                                                    
   Atomic configuration                                                                             
    2 entries                                                                                       
     n  l   j            E        occ.                                                              
     1  0  0.50        -6.4927   1.0000                                                             
     2  1  0.50        -3.4015   0.0000                                                             
   Description                                                                                      
     l       E           TYP  RCUT    TYP  RCUT                                                     
     0     -6.4927494     23  1.300                                                                 
     0      6.8029130     23  1.300                                                                 
     1     -4.0817478     23  1.300                                                                 
  local pseudopotential read in
  atomic valenz-charges read in
  non local Contribution for L=            0  read in
    real space projection operators read in
  non local Contribution for L=            0  read in
    real space projection operators read in
  non local Contribution for L=            1  read in
    real space projection operators read in
    PAW grid and wavefunctions read in
 
   number of l-projection  operators is LMAX  =            3
   number of lm-projection operators is LMMAX =            5
 
 POTCAR:    PAW_PBE C_s 06Sep2000                 
   VRHFIN =C: s2p2                                                                                  
   LEXCH  = PE                                                                                      
   EATOM  =   147.1560 eV,   10.8157 Ry                                                             
                                                                                                    
   TITEL  = PAW_PBE C_s 06Sep2000                                                                   
   LULTRA =        F    use ultrasoft PP ?                                                          
   IUNSCR =        0    unscreen: 0-lin 1-nonlin 2-no                                               
   RPACOR =    0.000    partial core radius                                                         
   POMASS =   12.011; ZVAL   =    4.000    mass and valenz                                          
   RCORE  =    1.850    outmost cutoff radius                                                       
   RWIGS  =    1.890; RWIGS  =    1.000    wigner-seitz radius (au A)                               
   ENMAX  =  273.911; ENMIN  =  205.433 eV                                                          
   RCLOC  =    0.804    cutoff for local pot                                                        
   LCOR   =        T    correct aug charges                                                         
   LPAW   =        T    paw PP                                                                      
   EAUG   =  439.243                                                                                
   DEXC   =    0.000                                                                                
   RMAX   =    1.897    core radius for proj-oper                                                   
   RAUG   =    1.300    factor for augmentation sphere                                              
   RDEP   =    1.940    radius for radial grids                                                     
   RDEPT  =    1.573    core radius for aug-charge                                                  
                                                                                                    
   Atomic configuration                                                                             
    4 entries                                                                                       
     n  l   j            E        occ.                                                              
     1  0  0.50      -273.3789   2.0000                                                             
     2  0  0.50       -13.7508   2.0000                                                             
     2  1  0.50        -5.2854   2.0000                                                             
     3  2  1.50        -1.3606   0.0000                                                             
   Description                                                                                      
     l       E           TYP  RCUT    TYP  RCUT                                                     
     0    -13.7508457     23  1.500                                                                 
     0    -11.0934578     23  1.500                                                                 
     1     -5.2854381     23  1.850                                                                 
     1     -1.3099858     23  1.850                                                                 
  local pseudopotential read in
  atomic valenz-charges read in
  non local Contribution for L=            0  read in
    real space projection operators read in
  non local Contribution for L=            0  read in
    real space projection operators read in
  non local Contribution for L=            1  read in
    real space projection operators read in
  non local Contribution for L=            1  read in
    real space projection operators read in
    PAW grid and wavefunctions read in
 
   number of l-projection  operators is LMAX  =            4
   number of lm-projection operators is LMMAX =            8
 
 POTCAR:    PAW_PBE O_s 07Sep2000                 
   VRHFIN =O: s2p4                                                                                  
   LEXCH  = PE                                                                                      
   EATOM  =   432.3788 eV,   31.7789 Ry                                                             
                                                                                                    
   TITEL  = PAW_PBE O_s 07Sep2000                                                                   
   LULTRA =        F    use ultrasoft PP ?                                                          
   IUNSCR =        0    unscreen: 0-lin 1-nonlin 2-no                                               
   RPACOR =    0.000    partial core radius                                                         
   POMASS =   16.000; ZVAL   =    6.000    mass and valenz                                          
   RCORE  =    1.850    outmost cutoff radius                                                       
   RWIGS  =    1.700; RWIGS  =    0.900    wigner-seitz radius (au A)                               
   ENMAX  =  282.853; ENMIN  =  212.140 eV                                                          
   RCLOC  =    0.804    cutoff for local pot                                                        
   LCOR   =        T    correct aug charges                                                         
   LPAW   =        T    paw PP                                                                      
   EAUG   =  412.352                                                                                
   RMAX   =    1.897    core radius for proj-oper                                                   
   RAUG   =    1.300    factor for augmentation sphere                                              
   RDEP   =    1.878    radius for radial grids                                                     
   RDEPT  =    1.572    core radius for aug-charge                                                  
                                                                                                    
   Atomic configuration                                                                             
    4 entries                                                                                       
     n  l   j            E        occ.                                                              
     1  0  0.50      -514.6923   2.0000                                                             
     2  0  0.50       -23.9615   2.0000                                                             
     2  1  0.50        -9.0305   4.0000                                                             
     3  2  1.50        -1.3606   0.0000                                                             
   Description                                                                                      
     l       E           TYP  RCUT    TYP  RCUT                                                     
     0    -23.9615315     23  1.500                                                                 
     0    -25.3221141     23  1.500                                                                 
     1     -9.0304908     23  1.850                                                                 
     1     -7.3935399     23  1.850                                                                 
  local pseudopotential read in
  atomic valenz-charges read in
  non local Contribution for L=            0  read in
    real space projection operators read in
  non local Contribution for L=            0  read in
    real space projection operators read in
  non local Contribution for L=            1  read in
    real space projection operators read in
  non local Contribution for L=            1  read in
    real space projection operators read in
    PAW grid and wavefunctions read in
 
   number of l-projection  operators is LMAX  =            4
   number of lm-projection operators is LMMAX =            8
 
  PAW_PBE H_s 15May2010                 :
 energy of atom  1       EATOM=  -12.4884
 kinetic energy error for atom=    0.0000 (will be added to EATOM!!)
  PAW_PBE C_s 06Sep2000                 :
 energy of atom  2       EATOM= -147.1560
 kinetic energy error for atom=    0.0002 (will be added to EATOM!!)
  PAW_PBE O_s 07Sep2000                 :
 energy of atom  3       EATOM= -432.3788
 kinetic energy error for atom=    0.0004 (will be added to EATOM!!)
 
 
 POSCAR:  H  C  O
  positions in cartesian coordinates
  No initial velocities read in
 exchange correlation table for  LEXCH =        8
   RHO(1)=    0.500       N(1)  =     2000
   RHO(2)=  100.500       N(2)  =     4000
 


--------------------------------------------------------------------------------------------------------


 ion  position               nearest neighbor table
   1  0.001  0.050  0.973-   4 0.96
   2  0.000  0.084  1.000-   4 0.96
   3  0.001  0.231  1.000-   5 1.14
   4  0.000  0.056  0.000-   2 0.96   1 0.96
   5  0.000  0.198  1.000-   3 1.14
 
 -----------------------------------------------------------------------------
|                                                                             |
|           W    W    AA    RRRRR   N    N  II  N    N   GGGG   !!!           |
|           W    W   A  A   R    R  NN   N  II  NN   N  G    G  !!!           |
|           W    W  A    A  R    R  N N  N  II  N N  N  G       !!!           |
|           W WW W  AAAAAA  RRRRR   N  N N  II  N  N N  G  GGG   !            |
|           WW  WW  A    A  R   R   N   NN  II  N   NN  G    G                |
|           W    W  A    A  R    R  N    N  II  N    N   GGGG   !!!           |
|                                                                             |
|     The distance between some ions is very small. Please check the          |
|     nearest-neighbor list in the OUTCAR file.                               |
|     I HOPE YOU KNOW WHAT YOU ARE DOING!                                     |
|                                                                             |
 -----------------------------------------------------------------------------

  LATTYP: Found a simple cubic cell.
 ALAT       =    35.0000000000
  
  Lattice vectors:
  
 A1 = (  35.0000000000,   0.0000000000,   0.0000000000)
 A2 = (   0.0000000000,  35.0000000000,   0.0000000000)
 A3 = (   0.0000000000,   0.0000000000,  35.0000000000)


Analysis of symmetry for initial positions (statically):
=====================================================================
 Subroutine PRICEL returns:
 Original cell was already a primitive cell.
 

 Routine SETGRP: Setting up the symmetry group for a 
 simple cubic supercell.


 Subroutine GETGRP returns: Found  1 space group operations
 (whereof  1 operations were pure point group operations)
 out of a pool of 48 trial point group operations.


The static configuration has the point symmetry C_1 .


Analysis of symmetry for dynamics (positions and initial velocities):
=====================================================================
 Subroutine PRICEL returns:
 Original cell was already a primitive cell.
 

 Routine SETGRP: Setting up the symmetry group for a 
 simple cubic supercell.


 Subroutine GETGRP returns: Found  1 space group operations
 (whereof  1 operations were pure point group operations)
 out of a pool of 48 trial point group operations.


The dynamic configuration has the point symmetry C_1 .


 Subroutine INISYM returns: Found  1 space group operations
 (whereof  1 operations are pure point group operations),
 and found     1 'primitive' translations


----------------------------------------------------------------------------------------

                                     Primitive cell                                     

  volume of cell :   42875.0000

  direct lattice vectors                    reciprocal lattice vectors
    35.000000000  0.000000000  0.000000000     0.028571429  0.000000000  0.000000000
     0.000000000 35.000000000  0.000000000     0.000000000  0.028571429  0.000000000
     0.000000000  0.000000000 35.000000000     0.000000000  0.000000000  0.028571429

  length of vectors
    35.000000000 35.000000000 35.000000000     0.028571429  0.028571429  0.028571429

  position of ions in fractional coordinates (direct lattice)
     0.000785426  0.049745327  0.973385225
     0.000340417  0.083957172  0.999957468
     0.000845402  0.230778191  0.999904630
     0.000000000  0.056491600  0.000000000
     0.000228949  0.198242666  0.999969134

  ion indices of the primitive-cell ions
   primitive index   ion index
                 1           1
                 2           2
                 3           3
                 4           4
                 5           5

----------------------------------------------------------------------------------------

 
 
 KPOINTS: automatic mesh                          

Automatic generation of k-mesh.
Space group operators:
 irot       det(A)        alpha          n_x          n_y          n_z        tau_x        tau_y        tau_z
    1     1.000000     0.000000     1.000000     0.000000     0.000000     0.000000     0.000000     0.000000
 
 Subroutine IBZKPT returns following result:
 ===========================================
 
 Found      1 irreducible k-points:
 
 Following reciprocal coordinates:
            Coordinates               Weight
  0.000000  0.000000  0.000000      1.000000
 
 Following cartesian coordinates:
            Coordinates               Weight
  0.000000  0.000000  0.000000      1.000000
 


--------------------------------------------------------------------------------------------------------




 Dimension of arrays:
   k-points           NKPTS =      1   k-points in BZ     NKDIM =      1   number of bands    NBANDS=     16
   number of dos      NEDOS =    301   number of ions     NIONS =      5
   non local maximal  LDIM  =      4   non local SUM 2l+1 LMDIM =      8
   total plane-waves  NPLWV = ******
   max r-space proj   IRMAX =      1   max aug-charges    IRDMAX=  29269
   dimension x,y,z NGX =   378 NGY =  378 NGZ =  378
   dimension x,y,z NGXF=   756 NGYF=  756 NGZF=  756
   support grid    NGXF=   756 NGYF=  756 NGZF=  756
   ions per type =               2   1   2
   NGX,Y,Z   is equivalent  to a cutoff of  17.95, 17.95, 17.95 a.u.
   NGXF,Y,Z  is equivalent  to a cutoff of  35.91, 35.91, 35.91 a.u.

 SYSTEM =  C                                       
 POSCAR =   H  C  O                                

 Startparameter for this run:
   NWRITE =      2    write-flag & timer
   PREC   = acc       normal or accurate (medium, high low for compatibility)
   ISTART =      0    job   : 0-new  1-cont  2-samecut
   ICHARG =      2    charge: 1-file 2-atom 10-const
   ISPIN  =      1    spin polarized calculation?
   LNONCOLLINEAR =      F non collinear calculations
   LSORBIT =      F    spin-orbit coupling
   INIWAV =      1    electr: 0-lowe 1-rand  2-diag
   LASPH  =      T    aspherical Exc in radial PAW
   METAGGA=      F    non-selfconsistent MetaGGA calc.

 Electronic Relaxation 1
   ENCUT  = 1000.0 eV  73.50 Ry    8.57 a.u.  90.25 90.25 90.25*2*pi/ulx,y,z
   ENINI  = 1000.0     initial cutoff
   ENAUG  =  439.2 eV  augmentation charge cutoff
   NELM   =     60;   NELMIN=  2; NELMDL= -5     # of ELM steps 
   EDIFF  = 0.1E-06   stopping-criterion for ELM
   LREAL  =      F    real-space projection
   NLSPLINE    = F    spline interpolate recip. space projectors
   LCOMPAT=      F    compatible to vasp.4.4
   GGA_COMPAT  = T    GGA compatible to vasp.4.4-vasp.4.6
   LMAXPAW     = -100 max onsite density
   LMAXMIX     =    2 max onsite mixed and CHGCAR
   VOSKOWN=      0    Vosko Wilk Nusair interpolation
   ROPT   =    0.00000   0.00000   0.00000
 Ionic relaxation
   EDIFFG = 0.1E-05   stopping-criterion for IOM
   NSW    =      0    number of steps for IOM
   NBLOCK =      1;   KBLOCK =      1    inner block; outer block 
   IBRION =     -1    ionic relax: 0-MD 1-quasi-New 2-CG
   NFREE  =      0    steps in history (QN), initial steepest desc. (CG)
   ISIF   =      2    stress and relaxation
   IWAVPR =     10    prediction:  0-non 1-charg 2-wave 3-comb
   ISYM   =      2    0-nonsym 1-usesym 2-fastsym
   LCORR  =      T    Harris-Foulkes like correction to forces

   POTIM  = 0.5000    time-step for ionic-motion
   TEIN   =    0.0    initial temperature
   TEBEG  =    0.0;   TEEND  =   0.0 temperature during run
   SMASS  =  -3.00    Nose mass-parameter (am)
   estimated Nose-frequenzy (Omega)   =  0.10E-29 period in steps = 0.13E+47 mass=  -0.280E-25a.u.
   SCALEE = 1.0000    scale energy and forces
   NPACO  =    256;   APACO  = 16.0  distance and # of slots for P.C.
   PSTRESS=    0.0 pullay stress

  Mass of Ions in am
   POMASS =   1.00 12.01 16.00
  Ionic Valenz
   ZVAL   =   1.00  4.00  6.00
  Atomic Wigner-Seitz radii
   RWIGS  =  -1.00 -1.00 -1.00
  virtual crystal weights 
   VCA    =   1.00  1.00  1.00
   NELECT =      18.0000    total number of electrons
   NUPDOWN=      -1.0000    fix difference up-down

 DOS related values:
   EMIN   =  10.00;   EMAX   =-10.00  energy-range for DOS
   EFERMI =   0.00
   ISMEAR =     0;   SIGMA  =   0.01  broadening in eV -4-tet -1-fermi 0-gaus

 Electronic relaxation 2 (details)
   IALGO  =     38    algorithm
   LDIAG  =      T    sub-space diagonalisation (order eigenvalues)
   LSUBROT=      F    optimize rotation matrix (better conditioning)
   TURBO    =      0    0=normal 1=particle mesh
   IRESTART =      0    0=no restart 2=restart with 2 vectors
   NREBOOT  =      0    no. of reboots
   NMIN     =      0    reboot dimension
   EREF     =   0.00    reference energy to select bands
   IMIX   =      4    mixing-type and parameters
     AMIX     =   0.40;   BMIX     =  1.00
     AMIX_MAG =   1.60;   BMIX_MAG =  1.00
     AMIN     =   0.10
     WC   =   100.;   INIMIX=   1;  MIXPRE=   1;  MAXMIX= -45

 Intra band minimization:
   WEIMIN = 0.0000     energy-eigenvalue tresh-hold
   EBREAK =  0.16E-08  absolut break condition
   DEPER  =   0.30     relativ break condition  

   TIME   =   0.40     timestep for ELM

  volume/ion in A,a.u.               =    8575.00     57866.96
  Fermi-wavevector in a.u.,A,eV,Ry     =   0.122583  0.231649  0.204450  0.015027
  Thomas-Fermi vector in A             =   0.746568
 
 Write flags
   LWAVE        =      T    write WAVECAR
   LDOWNSAMPLE  =      F    k-point downsampling of WAVECAR
   LCHARG       =      T    write CHGCAR
   LVTOT        =      F    write LOCPOT, total local potential
   LVHAR        =      F    write LOCPOT, Hartree potential only
   LELF         =      F    write electronic localiz. function (ELF)
   LORBIT       =      0    0 simple, 1 ext, 2 COOP (PROOUT), +10 PAW based schemes


 Dipole corrections
   LMONO  =      F    monopole corrections only (constant potential shift)
   LDIPOL =      F    correct potential (dipole corrections)
   IDIPOL =      4    1-x, 2-y, 3-z, 4-all directions 
   EPSILON=  1.0000000 bulk dielectric constant

 Exchange correlation treatment:
   GGA     =    --    GGA type
   LEXCH   =     8    internal setting for exchange type
   VOSKOWN=      0    Vosko Wilk Nusair interpolation
   LHFCALC =     F    Hartree Fock is set to
   LHFONE  =     F    Hartree Fock one center treatment
   AEXX    =    0.0000 exact exchange contribution

 Linear response parameters
   LEPSILON=     F    determine dielectric tensor
   LRPA    =     F    only Hartree local field effects (RPA)
   LNABLA  =     F    use nabla operator in PAW spheres
   LVEL    =     F    velocity operator in full k-point grid
   LINTERFAST=   F  fast interpolation
   KINTER  =     0    interpolate to denser k-point grid
   CSHIFT  =0.1000    complex shift for real part using Kramers Kronig
   OMEGAMAX=  -1.0    maximum frequency
   DEG_THRESHOLD= 0.2000000E-02 threshold for treating states as degnerate
   RTIME   =   -0.100 relaxation time in fs
  (WPLASMAI=    0.000 imaginary part of plasma frequency in eV, 0.658/RTIME)
   DFIELD  = 0.0000000 0.0000000 0.0000000 field for delta impulse in time
 
 Orbital magnetization related:
   ORBITALMAG=     F  switch on orbital magnetization
   LCHIMAG   =     F  perturbation theory with respect to B field
   DQ        =  0.001000  dq finite difference perturbation B field
   LLRAUG    =     F  two centre corrections for induced B field



--------------------------------------------------------------------------------------------------------


 Static calculation
 charge density and potential will be updated during run
 non-spin polarized calculation
 Variant of blocked Davidson
 Davidson routine will perform the subspace rotation
 perform sub-space diagonalisation
    after iterative eigenvector-optimisation
 modified Broyden-mixing scheme, WC =      100.0
 initial mixing is a Kerker type mixing with AMIX =  0.4000 and BMIX =      1.0000
 Hartree-type preconditioning will be used
 using additional bands             7
 reciprocal scheme for non local part
 calculate Harris-corrections to forces 
   (improved forces if not selfconsistent)
 use gradient corrections 
 use of overlap-Matrix (Vanderbilt PP)
 Gauss-broadening in eV      SIGMA  =   0.01


--------------------------------------------------------------------------------------------------------


  energy-cutoff  :     1000.00
  volume of cell :    42875.00
      direct lattice vectors                 reciprocal lattice vectors
    35.000000000  0.000000000  0.000000000     0.028571429  0.000000000  0.000000000
     0.000000000 35.000000000  0.000000000     0.000000000  0.028571429  0.000000000
     0.000000000  0.000000000 35.000000000     0.000000000  0.000000000  0.028571429

  length of vectors
    35.000000000 35.000000000 35.000000000     0.028571429  0.028571429  0.028571429


 
 k-points in units of 2pi/SCALE and weight: automatic mesh                          
   0.00000000  0.00000000  0.00000000       1.000
 
 k-points in reciprocal lattice and weights: automatic mesh                          
   0.00000000  0.00000000  0.00000000       1.000
 
 position of ions in fractional coordinates (direct lattice) 
   0.00078543  0.04974533  0.97338523
   0.00034042  0.08395717  0.99995747
   0.00084540  0.23077819  0.99990463
   0.00000000  0.05649160  0.00000000
   0.00022895  0.19824267  0.99996913
 
 position of ions in cartesian coordinates  (Angst):
   0.02748992  1.74108643 34.06848289
   0.01191459  2.93850101 34.99851139
   0.02958908  8.07723670 34.99666206
   0.00000000  1.97720600  0.00000000
   0.00801323  6.93849332 34.99891970
 


--------------------------------------------------------------------------------------------------------


 use parallel FFT for orbitals z direction half grid
 k-point   1 :   0.0000 0.0000 0.0000  plane waves: 1539209

 maximum and minimum number of plane-waves per node :    192406   192397

 maximum number of plane-waves:   1539209
 maximum index in each direction: 
   IXMAX=   90   IYMAX=   90   IZMAX=   90
   IXMIN=  -90   IYMIN=  -90   IZMIN=    0


 parallel 3D FFT for wavefunctions:
    minimum data exchange during FFTs selected (reduces bandwidth)
 parallel 3D FFT for charge:
    minimum data exchange during FFTs selected (reduces bandwidth)


 total amount of memory used by VASP MPI-rank0  1850337. kBytes
=======================================================================

   base      :      30000. kBytes
   nonl-proj :      52334. kBytes
   fftplans  :     601440. kBytes
   grid      :    1154248. kBytes
   one-center:          1. kBytes
   wavefun   :      12314. kBytes
 
     INWAV:  cpu time    0.0000: real time    0.0000
 Broyden mixing: mesh for mixing (old mesh)
   NGX =181   NGY =181   NGZ =181
  (NGX  =756   NGY  =756   NGZ  =756)
  gives a total of ****** points

 initial charge density was supplied:
 charge density of overlapping atoms calculated
 number of electron      18.0000000 magnetization 
 keeping initial charge density in first step


--------------------------------------------------------------------------------------------------------


 Maximum index for augmentation-charges          1116 (set IRDMAX)


--------------------------------------------------------------------------------------------------------


 First call to EWALD:  gamma=   0.051
 Maximum number of real-space cells 3x 3x 3
 Maximum number of reciprocal cells 3x 3x 3

    FEWALD:  cpu time    0.0007: real time    0.0007


--------------------------------------- Iteration      1(   1)  ---------------------------------------


    POTLOK:  cpu time   12.0643: real time   12.0847
    SETDIJ:  cpu time    0.0570: real time    0.0586
     EDDAV:  cpu time    7.4104: real time    7.4745
       DOS:  cpu time    0.0004: real time    0.0004
    --------------------------------------------
      LOOP:  cpu time   19.5320: real time   19.6182

 eigenvalue-minimisations  :    48
 total energy-change (2. order) : 0.1485195E+03  (-0.3391498E+03)
 number of electron      18.0000000 magnetization 
 augmentation part       18.0000000 magnetization 

 Free energy of the ion-electron system (eV)
  ---------------------------------------------------
  alpha Z        PSCENC =         0.02234163
  Ewald energy   TEWEN  =       524.58823544
  -Hartree energ DENC   =     -1336.53999739
  -exchange      EXHF   =         0.00000000
  -V(xc)+E(xc)   XCENC  =        71.85334961
  PAW double counting   =       802.92211551     -812.08006040
  entropy T*S    EENTRO =        -0.00000000
  eigenvalues    EBANDS =      -139.13576851
  atomic energy  EATOM  =      1036.88928565
  Solvation  Ediel_sol  =         0.00000000
  ---------------------------------------------------
  free energy    TOTEN  =       148.51950154 eV

  energy without entropy =      148.51950154  energy(sigma->0) =      148.51950154


--------------------------------------------------------------------------------------------------------




--------------------------------------- Iteration      1(   2)  ---------------------------------------


     EDDAV:  cpu time    8.3473: real time    8.3609
       DOS:  cpu time    0.0013: real time    0.0013
    --------------------------------------------
      LOOP:  cpu time    8.3486: real time    8.3621

 eigenvalue-minimisations  :    56
 total energy-change (2. order) :-0.1165487E+03  (-0.1132034E+03)
 number of electron      18.0000000 magnetization 
 augmentation part       18.0000000 magnetization 

 Free energy of the ion-electron system (eV)
  ---------------------------------------------------
  alpha Z        PSCENC =         0.02234163
  Ewald energy   TEWEN  =       524.58823544
  -Hartree energ DENC   =     -1336.53999739
  -exchange      EXHF   =         0.00000000
  -V(xc)+E(xc)   XCENC  =        71.85334961
  PAW double counting   =       802.92211551     -812.08006040
  entropy T*S    EENTRO =        -0.00000000
  eigenvalues    EBANDS =      -255.68442481
  atomic energy  EATOM  =      1036.88928565
  Solvation  Ediel_sol  =         0.00000000
  ---------------------------------------------------
  free energy    TOTEN  =        31.97084524 eV

  energy without entropy =       31.97084524  energy(sigma->0) =       31.97084524


--------------------------------------------------------------------------------------------------------




--------------------------------------- Iteration      1(   3)  ---------------------------------------


     EDDAV:  cpu time    6.4767: real time    6.4874
       DOS:  cpu time    0.0020: real time    0.0020
    --------------------------------------------
      LOOP:  cpu time    6.4788: real time    6.4894

 eigenvalue-minimisations  :    40
 total energy-change (2. order) :-0.5588594E+02  (-0.5583644E+02)
 number of electron      18.0000000 magnetization 
 augmentation part       18.0000000 magnetization 

 Free energy of the ion-electron system (eV)
  ---------------------------------------------------
  alpha Z        PSCENC =         0.02234163
  Ewald energy   TEWEN  =       524.58823544
  -Hartree energ DENC   =     -1336.53999739
  -exchange      EXHF   =         0.00000000
  -V(xc)+E(xc)   XCENC  =        71.85334961
  PAW double counting   =       802.92211551     -812.08006040
  entropy T*S    EENTRO =        -0.00000000
  eigenvalues    EBANDS =      -311.57036754
  atomic energy  EATOM  =      1036.88928565
  Solvation  Ediel_sol  =         0.00000000
  ---------------------------------------------------
  free energy    TOTEN  =       -23.91509749 eV

  energy without entropy =      -23.91509749  energy(sigma->0) =      -23.91509749


--------------------------------------------------------------------------------------------------------




--------------------------------------- Iteration      1(   4)  ---------------------------------------


     EDDAV:  cpu time    7.4463: real time    7.4587
       DOS:  cpu time    0.0011: real time    0.0011
    --------------------------------------------
      LOOP:  cpu time    7.4474: real time    7.4597

 eigenvalue-minimisations  :    48
 total energy-change (2. order) :-0.7061070E+01  (-0.7050627E+01)
 number of electron      18.0000000 magnetization 
 augmentation part       18.0000000 magnetization 

 Free energy of the ion-electron system (eV)
  ---------------------------------------------------
  alpha Z        PSCENC =         0.02234163
  Ewald energy   TEWEN  =       524.58823544
  -Hartree energ DENC   =     -1336.53999739
  -exchange      EXHF   =         0.00000000
  -V(xc)+E(xc)   XCENC  =        71.85334961
  PAW double counting   =       802.92211551     -812.08006040
  entropy T*S    EENTRO =        -0.00000000
  eigenvalues    EBANDS =      -318.63143706
  atomic energy  EATOM  =      1036.88928565
  Solvation  Ediel_sol  =         0.00000000
  ---------------------------------------------------
  free energy    TOTEN  =       -30.97616701 eV

  energy without entropy =      -30.97616701  energy(sigma->0) =      -30.97616701


--------------------------------------------------------------------------------------------------------




--------------------------------------- Iteration      1(   5)  ---------------------------------------


     EDDAV:  cpu time    6.4947: real time    6.5052
       DOS:  cpu time    0.0030: real time    0.0030
    CHARGE:  cpu time    1.6992: real time    1.7015
    MIXING:  cpu time    0.2045: real time    0.2048
    --------------------------------------------
      LOOP:  cpu time    8.4014: real time    8.4145

 eigenvalue-minimisations  :    40
 total energy-change (2. order) :-0.6655631E-01  (-0.6600023E-01)
 number of electron      17.9999998 magnetization 
 augmentation part        3.0885864 magnetization 

 Broyden mixing:
  rms(total) = 0.42502E+01    rms(broyden)= 0.42502E+01
  rms(prec ) = 0.42571E+01
  weight for this iteration     100.00

 Free energy of the ion-electron system (eV)
  ---------------------------------------------------
  alpha Z        PSCENC =         0.02234163
  Ewald energy   TEWEN  =       524.58823544
  -Hartree energ DENC   =     -1336.53999739
  -exchange      EXHF   =         0.00000000
  -V(xc)+E(xc)   XCENC  =        71.85334961
  PAW double counting   =       802.92211551     -812.08006040
  entropy T*S    EENTRO =        -0.00000000
  eigenvalues    EBANDS =      -318.69799338
  atomic energy  EATOM  =      1036.88928565
  Solvation  Ediel_sol  =         0.00000000
  ---------------------------------------------------
  free energy    TOTEN  =       -31.04272333 eV

  energy without entropy =      -31.04272333  energy(sigma->0) =      -31.04272333


--------------------------------------------------------------------------------------------------------




--------------------------------------- Iteration      1(   6)  ---------------------------------------


    POTLOK:  cpu time   11.8118: real time   11.8288
    SETDIJ:  cpu time    0.0516: real time    0.0516
     EDDAV:  cpu time    6.4985: real time    6.5094
       DOS:  cpu time    0.0016: real time    0.0016
    CHARGE:  cpu time    1.6195: real time    1.6218
    MIXING:  cpu time    0.2241: real time    0.2311
    --------------------------------------------
      LOOP:  cpu time   20.2071: real time   20.2443

 eigenvalue-minimisations  :    40
 total energy-change (2. order) : 0.2633351E+01  (-0.1056446E+01)
 number of electron      17.9999999 magnetization 
 augmentation part        2.6975333 magnetization 

 Broyden mixing:
  rms(total) = 0.40099E+01    rms(broyden)= 0.40099E+01
  rms(prec ) = 0.40108E+01
  weight for this iteration     100.00

 eigenvalues of (default mixing * dielectric matrix)
  average eigenvalue GAMMA=   0.7524
  0.7524

 Free energy of the ion-electron system (eV)
  ---------------------------------------------------
  alpha Z        PSCENC =         0.02234163
  Ewald energy   TEWEN  =       524.58823544
  -Hartree energ DENC   =     -1373.85497875
  -exchange      EXHF   =         0.00000000
  -V(xc)+E(xc)   XCENC  =        73.98378424
  PAW double counting   =      1482.38760227    -1493.29701683
  entropy T*S    EENTRO =        -0.00000000
  eigenvalues    EBANDS =      -279.12862598
  atomic energy  EATOM  =      1036.88928565
  Solvation  Ediel_sol  =         0.00000000
  ---------------------------------------------------
  free energy    TOTEN  =       -28.40937234 eV

  energy without entropy =      -28.40937234  energy(sigma->0) =      -28.40937234


--------------------------------------------------------------------------------------------------------




--------------------------------------- Iteration      1(   7)  ---------------------------------------


    POTLOK:  cpu time   11.7932: real time   11.8103
    SETDIJ:  cpu time    0.0522: real time    0.0523
     EDDAV:  cpu time    5.6127: real time    5.6220
       DOS:  cpu time    0.0016: real time    0.0016
    CHARGE:  cpu time    1.6435: real time    1.6460
    MIXING:  cpu time    0.2202: real time    0.2206
    --------------------------------------------
      LOOP:  cpu time   19.3236: real time   19.3528

 eigenvalue-minimisations  :    32
 total energy-change (2. order) : 0.1879616E+00  (-0.3459314E-01)
 number of electron      17.9999999 magnetization 
 augmentation part        2.7067791 magnetization 

 Broyden mixing:
  rms(total) = 0.27482E+01    rms(broyden)= 0.27482E+01
  rms(prec ) = 0.27488E+01
  weight for this iteration     100.00

 eigenvalues of (default mixing * dielectric matrix)
  average eigenvalue GAMMA=   1.6833
  0.9776  2.3889

 Free energy of the ion-electron system (eV)
  ---------------------------------------------------
  alpha Z        PSCENC =         0.02234163
  Ewald energy   TEWEN  =       524.58823544
  -Hartree energ DENC   =     -1377.48403892
  -exchange      EXHF   =         0.00000000
  -V(xc)+E(xc)   XCENC  =        74.20992417
  PAW double counting   =      2045.39267042    -2056.14373880
  entropy T*S    EENTRO =        -0.00000000
  eigenvalues    EBANDS =      -275.69609029
  atomic energy  EATOM  =      1036.88928565
  Solvation  Ediel_sol  =         0.00000000
  ---------------------------------------------------
  free energy    TOTEN  =       -28.22141071 eV

  energy without entropy =      -28.22141071  energy(sigma->0) =      -28.22141071


--------------------------------------------------------------------------------------------------------




--------------------------------------- Iteration      1(   8)  ---------------------------------------


    POTLOK:  cpu time   11.8189: real time   11.8363
    SETDIJ:  cpu time    0.0526: real time    0.0526
     EDDAV:  cpu time    7.3969: real time    7.4089
       DOS:  cpu time    0.0027: real time    0.0027
    CHARGE:  cpu time    1.6461: real time    1.6484
    MIXING:  cpu time    0.2357: real time    0.2361
    --------------------------------------------
      LOOP:  cpu time   21.1530: real time   21.1851

 eigenvalue-minimisations  :    48
 total energy-change (2. order) : 0.1507569E+00  (-0.3670347E-01)
 number of electron      17.9999999 magnetization 
 augmentation part        2.6812416 magnetization 

 Broyden mixing:
  rms(total) = 0.42714E+00    rms(broyden)= 0.42714E+00
  rms(prec ) = 0.42784E+00
  weight for this iteration     100.00

 eigenvalues of (default mixing * dielectric matrix)
  average eigenvalue GAMMA=   1.3757
  2.5765  0.8768  0.6737

 Free energy of the ion-electron system (eV)
  ---------------------------------------------------
  alpha Z        PSCENC =         0.02234163
  Ewald energy   TEWEN  =       524.58823544
  -Hartree energ DENC   =     -1388.66322262
  -exchange      EXHF   =         0.00000000
  -V(xc)+E(xc)   XCENC  =        74.90158625
  PAW double counting   =      3646.25113904    -3656.92117766
  entropy T*S    EENTRO =        -0.00000000
  eigenvalues    EBANDS =      -265.13884149
  atomic energy  EATOM  =      1036.88928565
  Solvation  Ediel_sol  =         0.00000000
  ---------------------------------------------------
  free energy    TOTEN  =       -28.07065377 eV

  energy without entropy =      -28.07065377  energy(sigma->0) =      -28.07065377


--------------------------------------------------------------------------------------------------------




--------------------------------------- Iteration      1(   9)  ---------------------------------------


    POTLOK:  cpu time   11.7764: real time   11.7936
    SETDIJ:  cpu time    0.0547: real time    0.0547
     EDDAV:  cpu time    5.5771: real time    5.5874
       DOS:  cpu time    0.0032: real time    0.0032
    CHARGE:  cpu time    1.6629: real time    1.6655
    MIXING:  cpu time    0.2529: real time    0.2533
    --------------------------------------------
      LOOP:  cpu time   19.3272: real time   19.3576

 eigenvalue-minimisations  :    32
 total energy-change (2. order) : 0.1390756E-01  (-0.5913945E-02)
 number of electron      17.9999999 magnetization 
 augmentation part        2.6908310 magnetization 

 Broyden mixing:
  rms(total) = 0.21665E+00    rms(broyden)= 0.21665E+00
  rms(prec ) = 0.21704E+00
  weight for this iteration     100.00

 eigenvalues of (default mixing * dielectric matrix)
  average eigenvalue GAMMA=   1.3753
  2.4910  1.1343  1.1343  0.7417

 Free energy of the ion-electron system (eV)
  ---------------------------------------------------
  alpha Z        PSCENC =         0.02234163
  Ewald energy   TEWEN  =       524.58823544
  -Hartree energ DENC   =     -1388.77269226
  -exchange      EXHF   =         0.00000000
  -V(xc)+E(xc)   XCENC  =        74.90507044
  PAW double counting   =      3770.24531970    -3780.84316594
  entropy T*S    EENTRO =        -0.00000000
  eigenvalues    EBANDS =      -265.09114086
  atomic energy  EATOM  =      1036.88928565
  Solvation  Ediel_sol  =         0.00000000
  ---------------------------------------------------
  free energy    TOTEN  =       -28.05674621 eV

  energy without entropy =      -28.05674621  energy(sigma->0) =      -28.05674621


--------------------------------------------------------------------------------------------------------




--------------------------------------- Iteration      1(  10)  ---------------------------------------


    POTLOK:  cpu time   11.8077: real time   11.8250
    SETDIJ:  cpu time    0.0555: real time    0.0555
     EDDAV:  cpu time    8.3443: real time    8.3582
       DOS:  cpu time    0.0007: real time    0.0007
    CHARGE:  cpu time    1.6663: real time    1.6688
    MIXING:  cpu time    0.2589: real time    0.2594
    --------------------------------------------
      LOOP:  cpu time   22.1335: real time   22.1675

 eigenvalue-minimisations  :    56
 total energy-change (2. order) :-0.1210450E-02  (-0.9548702E-03)
 number of electron      17.9999999 magnetization 
 augmentation part        2.6875656 magnetization 

 Broyden mixing:
  rms(total) = 0.54486E-01    rms(broyden)= 0.54486E-01
  rms(prec ) = 0.55204E-01
  weight for this iteration     100.00

 eigenvalues of (default mixing * dielectric matrix)
  average eigenvalue GAMMA=   1.4424
  2.4102  2.0170  1.0336  1.0336  0.7174

 Free energy of the ion-electron system (eV)
  ---------------------------------------------------
  alpha Z        PSCENC =         0.02234163
  Ewald energy   TEWEN  =       524.58823544
  -Hartree energ DENC   =     -1388.64130203
  -exchange      EXHF   =         0.00000000
  -V(xc)+E(xc)   XCENC  =        74.87330675
  PAW double counting   =      3720.97296536    -3731.55109427
  entropy T*S    EENTRO =        -0.00000000
  eigenvalues    EBANDS =      -265.21169519
  atomic energy  EATOM  =      1036.88928565
  Solvation  Ediel_sol  =         0.00000000
  ---------------------------------------------------
  free energy    TOTEN  =       -28.05795666 eV

  energy without entropy =      -28.05795666  energy(sigma->0) =      -28.05795666


--------------------------------------------------------------------------------------------------------




--------------------------------------- Iteration      1(  11)  ---------------------------------------


    POTLOK:  cpu time   11.8268: real time   11.8442
    SETDIJ:  cpu time    0.0541: real time    0.0541
     EDDAV:  cpu time    6.5506: real time    6.5614
       DOS:  cpu time    0.0051: real time    0.0051
    CHARGE:  cpu time    1.6648: real time    1.6672
    MIXING:  cpu time    0.2669: real time    0.2673
    --------------------------------------------
      LOOP:  cpu time   20.3683: real time   20.3992

 eigenvalue-minimisations  :    40
 total energy-change (2. order) :-0.3422507E-02  (-0.2684993E-03)
 number of electron      17.9999999 magnetization 
 augmentation part        2.6901099 magnetization 

 Broyden mixing:
  rms(total) = 0.24472E-01    rms(broyden)= 0.24472E-01
  rms(prec ) = 0.25279E-01
  weight for this iteration     100.00

 eigenvalues of (default mixing * dielectric matrix)
  average eigenvalue GAMMA=   1.3567
  2.4402  1.9727  0.7305  0.8960  0.8960  1.2046

 Free energy of the ion-electron system (eV)
  ---------------------------------------------------
  alpha Z        PSCENC =         0.02234163
  Ewald energy   TEWEN  =       524.58823544
  -Hartree energ DENC   =     -1388.51590734
  -exchange      EXHF   =         0.00000000
  -V(xc)+E(xc)   XCENC  =        74.84885427
  PAW double counting   =      3715.94010403    -3726.47956433
  entropy T*S    EENTRO =        -0.00000000
  eigenvalues    EBANDS =      -265.35472851
  atomic energy  EATOM  =      1036.88928565
  Solvation  Ediel_sol  =         0.00000000
  ---------------------------------------------------
  free energy    TOTEN  =       -28.06137916 eV

  energy without entropy =      -28.06137916  energy(sigma->0) =      -28.06137916


--------------------------------------------------------------------------------------------------------




--------------------------------------- Iteration      1(  12)  ---------------------------------------


    POTLOK:  cpu time   11.7871: real time   11.8042
    SETDIJ:  cpu time    0.0547: real time    0.0547
     EDDAV:  cpu time    7.4398: real time    7.4519
       DOS:  cpu time    0.0013: real time    0.0013
    CHARGE:  cpu time    1.6472: real time    1.6496
    MIXING:  cpu time    0.2709: real time    0.2713
    --------------------------------------------
      LOOP:  cpu time   21.2010: real time   21.2331

 eigenvalue-minimisations  :    48
 total energy-change (2. order) :-0.1595216E-02  (-0.2982194E-04)
 number of electron      17.9999999 magnetization 
 augmentation part        2.6897242 magnetization 

 Broyden mixing:
  rms(total) = 0.12109E-01    rms(broyden)= 0.12109E-01
  rms(prec ) = 0.13280E-01
  weight for this iteration     100.00

 eigenvalues of (default mixing * dielectric matrix)
  average eigenvalue GAMMA=   1.5154
  2.7837  2.2544  1.8482  0.7317  1.0159  1.0159  0.9579

 Free energy of the ion-electron system (eV)
  ---------------------------------------------------
  alpha Z        PSCENC =         0.02234163
  Ewald energy   TEWEN  =       524.58823544
  -Hartree energ DENC   =     -1388.72260410
  -exchange      EXHF   =         0.00000000
  -V(xc)+E(xc)   XCENC  =        74.85601417
  PAW double counting   =      3713.10920125    -3723.64806662
  entropy T*S    EENTRO =        -0.00000000
  eigenvalues    EBANDS =      -265.15738180
  atomic energy  EATOM  =      1036.88928565
  Solvation  Ediel_sol  =         0.00000000
  ---------------------------------------------------
  free energy    TOTEN  =       -28.06297438 eV

  energy without entropy =      -28.06297438  energy(sigma->0) =      -28.06297438


--------------------------------------------------------------------------------------------------------




--------------------------------------- Iteration      1(  13)  ---------------------------------------


    POTLOK:  cpu time   11.7921: real time   11.8117
    SETDIJ:  cpu time    0.0514: real time    0.0514
     EDDAV:  cpu time    5.5717: real time    5.5807
       DOS:  cpu time    0.0030: real time    0.0030
    CHARGE:  cpu time    1.6711: real time    1.6736
    MIXING:  cpu time    0.2698: real time    0.2739
    --------------------------------------------
      LOOP:  cpu time   19.3591: real time   19.3943

 eigenvalue-minimisations  :    32
 total energy-change (2. order) :-0.4281493E-02  (-0.9747742E-04)
 number of electron      17.9999999 magnetization 
 augmentation part        2.6891477 magnetization 

 Broyden mixing:
  rms(total) = 0.53493E-02    rms(broyden)= 0.53493E-02
  rms(prec ) = 0.63673E-02
  weight for this iteration     100.00

 eigenvalues of (default mixing * dielectric matrix)
  average eigenvalue GAMMA=   1.5651
  3.4033  2.4485  1.7827  1.1369  1.1369  0.7374  0.9375  0.9375

 Free energy of the ion-electron system (eV)
  ---------------------------------------------------
  alpha Z        PSCENC =         0.02234163
  Ewald energy   TEWEN  =       524.58823544
  -Hartree energ DENC   =     -1389.11853439
  -exchange      EXHF   =         0.00000000
  -V(xc)+E(xc)   XCENC  =        74.86588137
  PAW double counting   =      3707.94502193    -3718.47921836
  entropy T*S    EENTRO =        -0.00000000
  eigenvalues    EBANDS =      -264.78026914
  atomic energy  EATOM  =      1036.88928565
  Solvation  Ediel_sol  =         0.00000000
  ---------------------------------------------------
  free energy    TOTEN  =       -28.06725587 eV

  energy without entropy =      -28.06725587  energy(sigma->0) =      -28.06725587


--------------------------------------------------------------------------------------------------------




--------------------------------------- Iteration      1(  14)  ---------------------------------------


    POTLOK:  cpu time   11.8250: real time   11.8423
    SETDIJ:  cpu time    0.0528: real time    0.0529
     EDDAV:  cpu time    7.4566: real time    7.4691
       DOS:  cpu time    0.0009: real time    0.0009
    CHARGE:  cpu time    1.6590: real time    1.6613
    MIXING:  cpu time    0.3046: real time    0.3051
    --------------------------------------------
      LOOP:  cpu time   21.2989: real time   21.3315

 eigenvalue-minimisations  :    48
 total energy-change (2. order) :-0.2478730E-02  (-0.3002138E-04)
 number of electron      17.9999999 magnetization 
 augmentation part        2.6890094 magnetization 

 Broyden mixing:
  rms(total) = 0.33863E-02    rms(broyden)= 0.33863E-02
  rms(prec ) = 0.41970E-02
  weight for this iteration     100.00

 eigenvalues of (default mixing * dielectric matrix)
  average eigenvalue GAMMA=   1.6894
  4.2770  2.4718  2.0699  1.5345  1.1216  1.1216  0.7389  0.9347  0.9347

 Free energy of the ion-electron system (eV)
  ---------------------------------------------------
  alpha Z        PSCENC =         0.02234163
  Ewald energy   TEWEN  =       524.58823544
  -Hartree energ DENC   =     -1389.23732402
  -exchange      EXHF   =         0.00000000
  -V(xc)+E(xc)   XCENC  =        74.86598939
  PAW double counting   =      3705.29544554    -3715.82743591
  entropy T*S    EENTRO =        -0.00000000
  eigenvalues    EBANDS =      -264.66627232
  atomic energy  EATOM  =      1036.88928565
  Solvation  Ediel_sol  =         0.00000000
  ---------------------------------------------------
  free energy    TOTEN  =       -28.06973460 eV

  energy without entropy =      -28.06973460  energy(sigma->0) =      -28.06973460


--------------------------------------------------------------------------------------------------------




--------------------------------------- Iteration      1(  15)  ---------------------------------------


    POTLOK:  cpu time   11.8350: real time   11.8523
    SETDIJ:  cpu time    0.0535: real time    0.0535
     EDDAV:  cpu time    7.4000: real time    7.4120
       DOS:  cpu time    0.0006: real time    0.0006
    CHARGE:  cpu time    1.6632: real time    1.6656
    MIXING:  cpu time    0.2957: real time    0.2961
    --------------------------------------------
      LOOP:  cpu time   21.2479: real time   21.2801

 eigenvalue-minimisations  :    48
 total energy-change (2. order) :-0.2885789E-02  (-0.3719017E-04)
 number of electron      17.9999999 magnetization 
 augmentation part        2.6891372 magnetization 

 Broyden mixing:
  rms(total) = 0.16807E-02    rms(broyden)= 0.16807E-02
  rms(prec ) = 0.22092E-02
  weight for this iteration     100.00

 eigenvalues of (default mixing * dielectric matrix)
  average eigenvalue GAMMA=   1.8068
  5.5150  2.5605  2.5605  1.4537  1.4537  0.9781  0.9781  0.7383  0.9630  0.8668

 Free energy of the ion-electron system (eV)
  ---------------------------------------------------
  alpha Z        PSCENC =         0.02234163
  Ewald energy   TEWEN  =       524.58823544
  -Hartree energ DENC   =     -1389.31027947
  -exchange      EXHF   =         0.00000000
  -V(xc)+E(xc)   XCENC  =        74.86331258
  PAW double counting   =      3705.05977670    -3715.58995627
  entropy T*S    EENTRO =        -0.00000000
  eigenvalues    EBANDS =      -264.59533664
  atomic energy  EATOM  =      1036.88928565
  Solvation  Ediel_sol  =         0.00000000
  ---------------------------------------------------
  free energy    TOTEN  =       -28.07262039 eV

  energy without entropy =      -28.07262039  energy(sigma->0) =      -28.07262039


--------------------------------------------------------------------------------------------------------




--------------------------------------- Iteration      1(  16)  ---------------------------------------


    POTLOK:  cpu time   11.7923: real time   11.8095
    SETDIJ:  cpu time    0.0537: real time    0.0538
     EDDAV:  cpu time    7.3905: real time    7.4026
       DOS:  cpu time    0.0013: real time    0.0013
    CHARGE:  cpu time    1.6493: real time    1.6518
    MIXING:  cpu time    0.3367: real time    0.3372
    --------------------------------------------
      LOOP:  cpu time   21.2238: real time   21.2561

 eigenvalue-minimisations  :    48
 total energy-change (2. order) :-0.1800515E-02  (-0.2504957E-04)
 number of electron      17.9999999 magnetization 
 augmentation part        2.6888686 magnetization 

 Broyden mixing:
  rms(total) = 0.93833E-03    rms(broyden)= 0.93833E-03
  rms(prec ) = 0.11917E-02
  weight for this iteration     100.00

 eigenvalues of (default mixing * dielectric matrix)
  average eigenvalue GAMMA=   1.8998
  6.5424  2.8882  2.5387  1.6433  1.6433  1.1476  0.9975  0.9975  0.7380  0.9303
  0.8313

 Free energy of the ion-electron system (eV)
  ---------------------------------------------------
  alpha Z        PSCENC =         0.02234163
  Ewald energy   TEWEN  =       524.58823544
  -Hartree energ DENC   =     -1389.36446332
  -exchange      EXHF   =         0.00000000
  -V(xc)+E(xc)   XCENC  =        74.86212618
  PAW double counting   =      3705.35512835    -3715.88576870
  entropy T*S    EENTRO =        -0.00000000
  eigenvalues    EBANDS =      -264.54130613
  atomic energy  EATOM  =      1036.88928565
  Solvation  Ediel_sol  =         0.00000000
  ---------------------------------------------------
  free energy    TOTEN  =       -28.07442091 eV

  energy without entropy =      -28.07442091  energy(sigma->0) =      -28.07442091


--------------------------------------------------------------------------------------------------------




--------------------------------------- Iteration      1(  17)  ---------------------------------------


    POTLOK:  cpu time   11.8333: real time   11.8503
    SETDIJ:  cpu time    0.0502: real time    0.0502
     EDDAV:  cpu time    7.4405: real time    7.4529
       DOS:  cpu time    0.0003: real time    0.0003
    CHARGE:  cpu time    1.6505: real time    1.6530
    MIXING:  cpu time    0.3231: real time    0.3237
    --------------------------------------------
      LOOP:  cpu time   21.2980: real time   21.3304

 eigenvalue-minimisations  :    48
 total energy-change (2. order) :-0.8754389E-03  (-0.6350137E-05)
 number of electron      17.9999999 magnetization 
 augmentation part        2.6887592 magnetization 

 Broyden mixing:
  rms(total) = 0.65328E-03    rms(broyden)= 0.65328E-03
  rms(prec ) = 0.77231E-03
  weight for this iteration     100.00

 eigenvalues of (default mixing * dielectric matrix)
  average eigenvalue GAMMA=   2.0066
  7.4352  3.4318  2.4243  2.4243  1.4685  1.4685  0.9934  0.9934  0.7383  0.9145
  0.8936  0.8936

 Free energy of the ion-electron system (eV)
  ---------------------------------------------------
  alpha Z        PSCENC =         0.02234163
  Ewald energy   TEWEN  =       524.58823544
  -Hartree energ DENC   =     -1389.36934878
  -exchange      EXHF   =         0.00000000
  -V(xc)+E(xc)   XCENC  =        74.86085149
  PAW double counting   =      3705.54686618    -3716.07734279
  entropy T*S    EENTRO =        -0.00000000
  eigenvalues    EBANDS =      -264.53618516
  atomic energy  EATOM  =      1036.88928565
  Solvation  Ediel_sol  =         0.00000000
  ---------------------------------------------------
  free energy    TOTEN  =       -28.07529635 eV

  energy without entropy =      -28.07529635  energy(sigma->0) =      -28.07529635


--------------------------------------------------------------------------------------------------------




--------------------------------------- Iteration      1(  18)  ---------------------------------------


    POTLOK:  cpu time   11.8230: real time   11.8402
    SETDIJ:  cpu time    0.0512: real time    0.0513
     EDDAV:  cpu time    5.6195: real time    5.6288
       DOS:  cpu time    0.0001: real time    0.0001
    CHARGE:  cpu time    1.6767: real time    1.6791
    MIXING:  cpu time    0.3380: real time    0.3386
    --------------------------------------------
      LOOP:  cpu time   19.5086: real time   19.5381

 eigenvalue-minimisations  :    32
 total energy-change (2. order) :-0.5174416E-03  (-0.2230888E-05)
 number of electron      17.9999999 magnetization 
 augmentation part        2.6888199 magnetization 

 Broyden mixing:
  rms(total) = 0.44005E-03    rms(broyden)= 0.44005E-03
  rms(prec ) = 0.49015E-03
  weight for this iteration     100.00

 eigenvalues of (default mixing * dielectric matrix)
  average eigenvalue GAMMA=   2.0840
  8.0737  3.5257  2.8434  2.3966  1.9482  1.5340  1.3831  0.9974  0.9974  0.7380
  0.9066  0.8743  0.8743

 Free energy of the ion-electron system (eV)
  ---------------------------------------------------
  alpha Z        PSCENC =         0.02234163
  Ewald energy   TEWEN  =       524.58823544
  -Hartree energ DENC   =     -1389.35074131
  -exchange      EXHF   =         0.00000000
  -V(xc)+E(xc)   XCENC  =        74.85930385
  PAW double counting   =      3705.24113894    -3715.77106368
  entropy T*S    EENTRO =        -0.00000000
  eigenvalues    EBANDS =      -264.55431430
  atomic energy  EATOM  =      1036.88928565
  Solvation  Ediel_sol  =         0.00000000
  ---------------------------------------------------
  free energy    TOTEN  =       -28.07581379 eV

  energy without entropy =      -28.07581379  energy(sigma->0) =      -28.07581379


--------------------------------------------------------------------------------------------------------




--------------------------------------- Iteration      1(  19)  ---------------------------------------


    POTLOK:  cpu time   11.7991: real time   11.8163
    SETDIJ:  cpu time    0.0525: real time    0.0525
     EDDAV:  cpu time    7.4655: real time    7.4778
       DOS:  cpu time    0.0004: real time    0.0004
    CHARGE:  cpu time    1.6503: real time    1.6527
    MIXING:  cpu time    0.4381: real time    0.4387
    --------------------------------------------
      LOOP:  cpu time   21.4060: real time   21.4386

 eigenvalue-minimisations  :    48
 total energy-change (2. order) :-0.2517426E-03  (-0.5201899E-06)
 number of electron      17.9999999 magnetization 
 augmentation part        2.6888335 magnetization 

 Broyden mixing:
  rms(total) = 0.21204E-03    rms(broyden)= 0.21204E-03
  rms(prec ) = 0.24210E-03
  weight for this iteration     100.00

 eigenvalues of (default mixing * dielectric matrix)
  average eigenvalue GAMMA=   2.1310
  8.6140  4.4437  2.8651  2.4363  2.1651  1.4746  1.4746  0.9942  0.9942  0.7379
  0.9164  0.9164  0.9007  0.9007

 Free energy of the ion-electron system (eV)
  ---------------------------------------------------
  alpha Z        PSCENC =         0.02234163
  Ewald energy   TEWEN  =       524.58823544
  -Hartree energ DENC   =     -1389.34469203
  -exchange      EXHF   =         0.00000000
  -V(xc)+E(xc)   XCENC  =        74.85881393
  PAW double counting   =      3705.30131567    -3715.83118305
  entropy T*S    EENTRO =        -0.00000000
  eigenvalues    EBANDS =      -264.56018276
  atomic energy  EATOM  =      1036.88928565
  Solvation  Ediel_sol  =         0.00000000
  ---------------------------------------------------
  free energy    TOTEN  =       -28.07606553 eV

  energy without entropy =      -28.07606553  energy(sigma->0) =      -28.07606553


--------------------------------------------------------------------------------------------------------




--------------------------------------- Iteration      1(  20)  ---------------------------------------


    POTLOK:  cpu time   11.8214: real time   11.8386
    SETDIJ:  cpu time    0.0579: real time    0.0579
     EDDAV:  cpu time    7.4256: real time    7.4378
       DOS:  cpu time    0.0020: real time    0.0020
    CHARGE:  cpu time    1.6498: real time    1.6523
    MIXING:  cpu time    0.3874: real time    0.3880
    --------------------------------------------
      LOOP:  cpu time   21.3441: real time   21.3766

 eigenvalue-minimisations  :    48
 total energy-change (2. order) :-0.9858558E-04  (-0.1596611E-06)
 number of electron      17.9999999 magnetization 
 augmentation part        2.6888255 magnetization 

 Broyden mixing:
  rms(total) = 0.10912E-03    rms(broyden)= 0.10912E-03
  rms(prec ) = 0.13068E-03
  weight for this iteration     100.00

 eigenvalues of (default mixing * dielectric matrix)
  average eigenvalue GAMMA=   2.2477
  9.0338  5.2019  3.1434  2.7475  2.4679  1.7820  1.5200  1.4337  1.0016  1.0016
  0.7379  0.9713  0.9234  0.8751  0.8751

 Free energy of the ion-electron system (eV)
  ---------------------------------------------------
  alpha Z        PSCENC =         0.02234163
  Ewald energy   TEWEN  =       524.58823544
  -Hartree energ DENC   =     -1389.34069764
  -exchange      EXHF   =         0.00000000
  -V(xc)+E(xc)   XCENC  =        74.85857884
  PAW double counting   =      3705.25456271    -3715.78455290
  entropy T*S    EENTRO =        -0.00000000
  eigenvalues    EBANDS =      -264.56391785
  atomic energy  EATOM  =      1036.88928565
  Solvation  Ediel_sol  =         0.00000000
  ---------------------------------------------------
  free energy    TOTEN  =       -28.07616412 eV

  energy without entropy =      -28.07616412  energy(sigma->0) =      -28.07616412


--------------------------------------------------------------------------------------------------------




--------------------------------------- Iteration      1(  21)  ---------------------------------------


    POTLOK:  cpu time   11.8170: real time   11.8369
    SETDIJ:  cpu time    0.0567: real time    0.0567
     EDDAV:  cpu time    5.5468: real time    5.5581
       DOS:  cpu time    0.0018: real time    0.0018
    CHARGE:  cpu time    1.6294: real time    1.6317
    MIXING:  cpu time    0.4593: real time    0.4600
    --------------------------------------------
      LOOP:  cpu time   19.5110: real time   19.5452

 eigenvalue-minimisations  :    32
 total energy-change (2. order) :-0.9064773E-04  (-0.1255831E-06)
 number of electron      17.9999999 magnetization 
 augmentation part        2.6888262 magnetization 

 Broyden mixing:
  rms(total) = 0.75138E-04    rms(broyden)= 0.75138E-04
  rms(prec ) = 0.80889E-04
  weight for this iteration     100.00

 eigenvalues of (default mixing * dielectric matrix)
  average eigenvalue GAMMA=   2.2299
  9.0308  5.7518  3.4906  2.6361  2.4621  2.1088  1.4766  1.4766  0.9969  0.9969
  0.7379  0.9626  0.9626  0.8691  0.8691  0.8505

 Free energy of the ion-electron system (eV)
  ---------------------------------------------------
  alpha Z        PSCENC =         0.02234163
  Ewald energy   TEWEN  =       524.58823544
  -Hartree energ DENC   =     -1389.33943335
  -exchange      EXHF   =         0.00000000
  -V(xc)+E(xc)   XCENC  =        74.85843271
  PAW double counting   =      3705.26894614    -3715.79895391
  entropy T*S    EENTRO =        -0.00000000
  eigenvalues    EBANDS =      -264.56510907
  atomic energy  EATOM  =      1036.88928565
  Solvation  Ediel_sol  =         0.00000000
  ---------------------------------------------------
  free energy    TOTEN  =       -28.07625476 eV

  energy without entropy =      -28.07625476  energy(sigma->0) =      -28.07625476


--------------------------------------------------------------------------------------------------------




--------------------------------------- Iteration      1(  22)  ---------------------------------------


    POTLOK:  cpu time   11.7968: real time   11.8138
    SETDIJ:  cpu time    0.0527: real time    0.0527
     EDDAV:  cpu time    6.5276: real time    6.5383
       DOS:  cpu time    0.0025: real time    0.0025
    CHARGE:  cpu time    1.6361: real time    1.6385
    MIXING:  cpu time    0.5049: real time    0.5056
    --------------------------------------------
      LOOP:  cpu time   20.5205: real time   20.5513

 eigenvalue-minimisations  :    40
 total energy-change (2. order) :-0.1697327E-04  (-0.9192901E-08)
 number of electron      17.9999999 magnetization 
 augmentation part        2.6888248 magnetization 

 Broyden mixing:
  rms(total) = 0.41661E-04    rms(broyden)= 0.41661E-04
  rms(prec ) = 0.46722E-04
  weight for this iteration     100.00

 eigenvalues of (default mixing * dielectric matrix)
  average eigenvalue GAMMA=   2.1605
  9.0176  5.9526  3.6295  2.6300  2.4836  2.0482  1.4949  1.4949  0.9928  0.9928
  0.9695  0.9695  0.7378  0.8453  0.8453  0.8124  0.8124

 Free energy of the ion-electron system (eV)
  ---------------------------------------------------
  alpha Z        PSCENC =         0.02234163
  Ewald energy   TEWEN  =       524.58823544
  -Hartree energ DENC   =     -1389.34001563
  -exchange      EXHF   =         0.00000000
  -V(xc)+E(xc)   XCENC  =        74.85844179
  PAW double counting   =      3705.27720118    -3715.80719407
  entropy T*S    EENTRO =        -0.00000000
  eigenvalues    EBANDS =      -264.56456772
  atomic energy  EATOM  =      1036.88928565
  Solvation  Ediel_sol  =         0.00000000
  ---------------------------------------------------
  free energy    TOTEN  =       -28.07627174 eV

  energy without entropy =      -28.07627174  energy(sigma->0) =      -28.07627174


--------------------------------------------------------------------------------------------------------




--------------------------------------- Iteration      1(  23)  ---------------------------------------


    POTLOK:  cpu time   11.7716: real time   11.7887
    SETDIJ:  cpu time    0.0537: real time    0.0537
     EDDAV:  cpu time    6.4750: real time    6.4854
       DOS:  cpu time    0.0018: real time    0.0018
    CHARGE:  cpu time    1.6436: real time    1.6463
    MIXING:  cpu time    0.4430: real time    0.4437
    --------------------------------------------
      LOOP:  cpu time   20.3887: real time   20.4196

 eigenvalue-minimisations  :    40
 total energy-change (2. order) :-0.7976228E-05  (-0.3938116E-08)
 number of electron      17.9999999 magnetization 
 augmentation part        2.6888211 magnetization 

 Broyden mixing:
  rms(total) = 0.32719E-04    rms(broyden)= 0.32719E-04
  rms(prec ) = 0.36736E-04
  weight for this iteration     100.00

 eigenvalues of (default mixing * dielectric matrix)
  average eigenvalue GAMMA=   2.1799
  9.1230  6.1285  3.7119  2.9319  2.4089  2.4089  1.6808  1.6808  1.2672  1.1043
  0.9997  0.9997  0.7379  0.8881  0.8881  0.8701  0.8701  0.5389

 Free energy of the ion-electron system (eV)
  ---------------------------------------------------
  alpha Z        PSCENC =         0.02234163
  Ewald energy   TEWEN  =       524.58823544
  -Hartree energ DENC   =     -1389.34069088
  -exchange      EXHF   =         0.00000000
  -V(xc)+E(xc)   XCENC  =        74.85847009
  PAW double counting   =      3705.26751983    -3715.79752599
  entropy T*S    EENTRO =        -0.00000000
  eigenvalues    EBANDS =      -264.56391549
  atomic energy  EATOM  =      1036.88928565
  Solvation  Ediel_sol  =         0.00000000
  ---------------------------------------------------
  free energy    TOTEN  =       -28.07627971 eV

  energy without entropy =      -28.07627971  energy(sigma->0) =      -28.07627971


--------------------------------------------------------------------------------------------------------




--------------------------------------- Iteration      1(  24)  ---------------------------------------


    POTLOK:  cpu time   11.7917: real time   11.8087
    SETDIJ:  cpu time    0.0543: real time    0.0543
     EDDAV:  cpu time    4.6678: real time    4.6754
       DOS:  cpu time    0.0001: real time    0.0001
    CHARGE:  cpu time    1.6521: real time    1.6546
    MIXING:  cpu time    0.4690: real time    0.4697
    --------------------------------------------
      LOOP:  cpu time   18.6350: real time   18.6628

 eigenvalue-minimisations  :    24
 total energy-change (2. order) :-0.1340273E-04  (-0.6984166E-08)
 number of electron      17.9999999 magnetization 
 augmentation part        2.6888200 magnetization 

 Broyden mixing:
  rms(total) = 0.26503E-04    rms(broyden)= 0.26503E-04
  rms(prec ) = 0.27950E-04
  weight for this iteration     100.00

 eigenvalues of (default mixing * dielectric matrix)
  average eigenvalue GAMMA=   2.1710
  9.4514  6.2380  4.1302  2.8173  2.5382  2.2901  2.0780  1.5240  1.4350  0.7379
  0.9918  0.9918  0.9475  0.9475  1.0115  0.9182  0.8642  0.8642  0.4730

 Free energy of the ion-electron system (eV)
  ---------------------------------------------------
  alpha Z        PSCENC =         0.02234163
  Ewald energy   TEWEN  =       524.58823544
  -Hartree energ DENC   =     -1389.34146731
  -exchange      EXHF   =         0.00000000
  -V(xc)+E(xc)   XCENC  =        74.85848766
  PAW double counting   =      3705.27577035    -3715.80577496
  entropy T*S    EENTRO =        -0.00000000
  eigenvalues    EBANDS =      -264.56317157
  atomic energy  EATOM  =      1036.88928565
  Solvation  Ediel_sol  =         0.00000000
  ---------------------------------------------------
  free energy    TOTEN  =       -28.07629312 eV

  energy without entropy =      -28.07629312  energy(sigma->0) =      -28.07629312


--------------------------------------------------------------------------------------------------------




--------------------------------------- Iteration      1(  25)  ---------------------------------------


    POTLOK:  cpu time   11.7966: real time   11.8137
    SETDIJ:  cpu time    0.0517: real time    0.0517
     EDDAV:  cpu time    6.5147: real time    6.5263
       DOS:  cpu time    0.0011: real time    0.0011
    CHARGE:  cpu time    1.6588: real time    1.6624
    MIXING:  cpu time    0.5679: real time    0.5687
    --------------------------------------------
      LOOP:  cpu time   20.5908: real time   20.6240

 eigenvalue-minimisations  :    40
 total energy-change (2. order) :-0.3345787E-05  (-0.2043427E-08)
 number of electron      17.9999999 magnetization 
 augmentation part        2.6888206 magnetization 

 Broyden mixing:
  rms(total) = 0.14836E-04    rms(broyden)= 0.14836E-04
  rms(prec ) = 0.16118E-04
  weight for this iteration     100.00

 eigenvalues of (default mixing * dielectric matrix)
  average eigenvalue GAMMA=   2.1608
  9.6013  6.3750  4.5629  2.9730  2.4382  2.2159  2.2159  1.4715  1.4715  1.0748
  1.0748  1.0028  1.0028  0.7379  0.9730  0.8779  0.8779  0.9096  0.9096  0.4497

 Free energy of the ion-electron system (eV)
  ---------------------------------------------------
  alpha Z        PSCENC =         0.02234163
  Ewald energy   TEWEN  =       524.58823544
  -Hartree energ DENC   =     -1389.34172027
  -exchange      EXHF   =         0.00000000
  -V(xc)+E(xc)   XCENC  =        74.85849321
  PAW double counting   =      3705.27421759    -3715.80421743
  entropy T*S    EENTRO =        -0.00000000
  eigenvalues    EBANDS =      -264.56293228
  atomic energy  EATOM  =      1036.88928565
  Solvation  Ediel_sol  =         0.00000000
  ---------------------------------------------------
  free energy    TOTEN  =       -28.07629646 eV

  energy without entropy =      -28.07629646  energy(sigma->0) =      -28.07629646


--------------------------------------------------------------------------------------------------------




--------------------------------------- Iteration      1(  26)  ---------------------------------------


    POTLOK:  cpu time   11.7684: real time   11.7857
    SETDIJ:  cpu time    0.0533: real time    0.0534
     EDDAV:  cpu time    4.6452: real time    4.6527
       DOS:  cpu time    0.0011: real time    0.0011
    CHARGE:  cpu time    1.6414: real time    1.6439
    MIXING:  cpu time    0.5134: real time    0.5142
    --------------------------------------------
      LOOP:  cpu time   18.6228: real time   18.6509

 eigenvalue-minimisations  :    24
 total energy-change (2. order) :-0.2116340E-05  (-0.1573799E-08)
 number of electron      17.9999999 magnetization 
 augmentation part        2.6888209 magnetization 

 Broyden mixing:
  rms(total) = 0.10964E-04    rms(broyden)= 0.10964E-04
  rms(prec ) = 0.11952E-04
  weight for this iteration     100.00

 eigenvalues of (default mixing * dielectric matrix)
  average eigenvalue GAMMA=   2.1998
  9.5888  6.8658  4.8365  3.3772  2.6379  2.5734  2.1863  1.6281  1.6281  1.2041
  1.2041  0.9995  0.9995  0.9537  0.9537  0.9060  0.8692  0.8692  0.7382  0.7359
  0.4408

 Free energy of the ion-electron system (eV)
  ---------------------------------------------------
  alpha Z        PSCENC =         0.02234163
  Ewald energy   TEWEN  =       524.58823544
  -Hartree energ DENC   =     -1389.34182153
  -exchange      EXHF   =         0.00000000
  -V(xc)+E(xc)   XCENC  =        74.85849504
  PAW double counting   =      3705.26989478    -3715.79989762
  entropy T*S    EENTRO =        -0.00000000
  eigenvalues    EBANDS =      -264.56283196
  atomic energy  EATOM  =      1036.88928565
  Solvation  Ediel_sol  =         0.00000000
  ---------------------------------------------------
  free energy    TOTEN  =       -28.07629858 eV

  energy without entropy =      -28.07629858  energy(sigma->0) =      -28.07629858


--------------------------------------------------------------------------------------------------------




--------------------------------------- Iteration      1(  27)  ---------------------------------------


    POTLOK:  cpu time   11.7693: real time   11.7869
    SETDIJ:  cpu time    0.0532: real time    0.0532
     EDDAV:  cpu time    4.6518: real time    4.6594
       DOS:  cpu time    0.0021: real time    0.0021
    CHARGE:  cpu time    1.6639: real time    1.6664
    MIXING:  cpu time    0.5112: real time    0.5120
    --------------------------------------------
      LOOP:  cpu time   18.6515: real time   18.6799

 eigenvalue-minimisations  :    24
 total energy-change (2. order) :-0.2906713E-05  (-0.1502251E-08)
 number of electron      17.9999999 magnetization 
 augmentation part        2.6888213 magnetization 

 Broyden mixing:
  rms(total) = 0.65388E-05    rms(broyden)= 0.65388E-05
  rms(prec ) = 0.69215E-05
  weight for this iteration     100.00

 eigenvalues of (default mixing * dielectric matrix)
  average eigenvalue GAMMA=   2.1470
  9.6657  6.8129  4.9621  3.4529  2.7224  2.4937  2.1401  1.6777  1.6777  1.1702
  1.1702  0.9888  0.9888  0.9511  0.9511  0.7379  0.9037  0.9037  0.8791  0.8791
  0.6688  0.4356

 Free energy of the ion-electron system (eV)
  ---------------------------------------------------
  alpha Z        PSCENC =         0.02234163
  Ewald energy   TEWEN  =       524.58823544
  -Hartree energ DENC   =     -1389.34160016
  -exchange      EXHF   =         0.00000000
  -V(xc)+E(xc)   XCENC  =        74.85848354
  PAW double counting   =      3705.26860702    -3715.79860930
  entropy T*S    EENTRO =        -0.00000000
  eigenvalues    EBANDS =      -264.56304530
  atomic energy  EATOM  =      1036.88928565
  Solvation  Ediel_sol  =         0.00000000
  ---------------------------------------------------
  free energy    TOTEN  =       -28.07630148 eV

  energy without entropy =      -28.07630148  energy(sigma->0) =      -28.07630148


--------------------------------------------------------------------------------------------------------




--------------------------------------- Iteration      1(  28)  ---------------------------------------


    POTLOK:  cpu time   11.8142: real time   11.8312
    SETDIJ:  cpu time    0.0548: real time    0.0548
     EDDAV:  cpu time    6.5017: real time    6.5147
       DOS:  cpu time    0.0022: real time    0.0022
    CHARGE:  cpu time    1.6625: real time    1.6648
    MIXING:  cpu time    0.5318: real time    0.5327
    --------------------------------------------
      LOOP:  cpu time   20.5672: real time   20.6005

 eigenvalue-minimisations  :    40
 total energy-change (2. order) :-0.4668002E-06  (-0.7765699E-09)
 number of electron      17.9999999 magnetization 
 augmentation part        2.6888215 magnetization 

 Broyden mixing:
  rms(total) = 0.43247E-05    rms(broyden)= 0.43247E-05
  rms(prec ) = 0.47016E-05
  weight for this iteration     100.00

 eigenvalues of (default mixing * dielectric matrix)
  average eigenvalue GAMMA=   2.1342
  9.7144  7.0534  5.0857  3.5407  2.6967  2.4673  2.1185  2.1185  1.4733  1.4733
  0.9978  0.9978  1.0095  1.0095  0.7379  1.0292  0.8915  0.8915  0.9583  0.9583
  0.8345  0.5958  0.4326

 Free energy of the ion-electron system (eV)
  ---------------------------------------------------
  alpha Z        PSCENC =         0.02234163
  Ewald energy   TEWEN  =       524.58823544
  -Hartree energ DENC   =     -1389.34158770
  -exchange      EXHF   =         0.00000000
  -V(xc)+E(xc)   XCENC  =        74.85848192
  PAW double counting   =      3705.26979956    -3715.79980019
  entropy T*S    EENTRO =        -0.00000000
  eigenvalues    EBANDS =      -264.56305826
  atomic energy  EATOM  =      1036.88928565
  Solvation  Ediel_sol  =         0.00000000
  ---------------------------------------------------
  free energy    TOTEN  =       -28.07630195 eV

  energy without entropy =      -28.07630195  energy(sigma->0) =      -28.07630195


--------------------------------------------------------------------------------------------------------




--------------------------------------- Iteration      1(  29)  ---------------------------------------


    POTLOK:  cpu time   11.7927: real time   11.8098
    SETDIJ:  cpu time    0.0535: real time    0.0535
     EDDAV:  cpu time    6.4837: real time    6.4942
       DOS:  cpu time    0.0034: real time    0.0034
    CHARGE:  cpu time    1.6477: real time    1.6501
    MIXING:  cpu time    0.5629: real time    0.5637
    --------------------------------------------
      LOOP:  cpu time   20.5439: real time   20.5747

 eigenvalue-minimisations  :    40
 total energy-change (2. order) :-0.4658114E-06  (-0.6499778E-09)
 number of electron      17.9999999 magnetization 
 augmentation part        2.6888214 magnetization 

 Broyden mixing:
  rms(total) = 0.30941E-05    rms(broyden)= 0.30941E-05
  rms(prec ) = 0.33711E-05
  weight for this iteration     100.00

 eigenvalues of (default mixing * dielectric matrix)
  average eigenvalue GAMMA=   2.2220
  9.7029  7.5187  5.5049  4.2195  2.9274  2.9274  2.4488  2.2293  1.6772  1.6772
  1.1939  1.1939  0.9959  0.9959  1.0067  1.0067  0.7379  0.9601  0.8800  0.8800
  0.8879  0.7937  0.5327  0.4293

 Free energy of the ion-electron system (eV)
  ---------------------------------------------------
  alpha Z        PSCENC =         0.02234163
  Ewald energy   TEWEN  =       524.58823544
  -Hartree energ DENC   =     -1389.34154831
  -exchange      EXHF   =         0.00000000
  -V(xc)+E(xc)   XCENC  =        74.85847908
  PAW double counting   =      3705.27210225    -3715.80210188
  entropy T*S    EENTRO =        -0.00000000
  eigenvalues    EBANDS =      -264.56309627
  atomic energy  EATOM  =      1036.88928565
  Solvation  Ediel_sol  =         0.00000000
  ---------------------------------------------------
  free energy    TOTEN  =       -28.07630242 eV

  energy without entropy =      -28.07630242  energy(sigma->0) =      -28.07630242


--------------------------------------------------------------------------------------------------------




--------------------------------------- Iteration      1(  30)  ---------------------------------------


    POTLOK:  cpu time   11.8676: real time   11.8848
    SETDIJ:  cpu time    0.0509: real time    0.0510
     EDDAV:  cpu time    4.6599: real time    4.6674
       DOS:  cpu time    0.0014: real time    0.0014
    CHARGE:  cpu time    1.6513: real time    1.6537
    MIXING:  cpu time    0.5880: real time    0.5889
    --------------------------------------------
      LOOP:  cpu time   18.8191: real time   18.8472

 eigenvalue-minimisations  :    24
 total energy-change (2. order) :-0.6493296E-06  (-0.5958665E-09)
 number of electron      17.9999999 magnetization 
 augmentation part        2.6888214 magnetization 

 Broyden mixing:
  rms(total) = 0.22714E-05    rms(broyden)= 0.22714E-05
  rms(prec ) = 0.23330E-05
  weight for this iteration     100.00

 eigenvalues of (default mixing * dielectric matrix)
  average eigenvalue GAMMA=   2.1891
  9.7579  7.6448  5.7206  4.3440  3.1533  2.6740  2.4637  2.1005  1.8326  1.6460
  1.2985  1.2985  0.9500  0.9500  1.0070  1.0070  0.7379  0.9724  0.8841  0.8841
  0.8886  0.8886  0.6869  0.5083  0.4279

 Free energy of the ion-electron system (eV)
  ---------------------------------------------------
  alpha Z        PSCENC =         0.02234163
  Ewald energy   TEWEN  =       524.58823544
  -Hartree energ DENC   =     -1389.34153821
  -exchange      EXHF   =         0.00000000
  -V(xc)+E(xc)   XCENC  =        74.85847795
  PAW double counting   =      3705.27309895    -3715.80309857
  entropy T*S    EENTRO =        -0.00000000
  eigenvalues    EBANDS =      -264.56310590
  atomic energy  EATOM  =      1036.88928565
  Solvation  Ediel_sol  =         0.00000000
  ---------------------------------------------------
  free energy    TOTEN  =       -28.07630307 eV

  energy without entropy =      -28.07630307  energy(sigma->0) =      -28.07630307


--------------------------------------------------------------------------------------------------------




--------------------------------------- Iteration      1(  31)  ---------------------------------------


    POTLOK:  cpu time   11.7577: real time   11.7747
    SETDIJ:  cpu time    0.0548: real time    0.0548
     EDDAV:  cpu time    6.4840: real time    6.4948
       DOS:  cpu time    0.0006: real time    0.0006
    --------------------------------------------
      LOOP:  cpu time   18.2971: real time   18.3248

 eigenvalue-minimisations  :    40
 total energy-change (2. order) :-0.7107997E-07  (-0.4674092E-09)
 number of electron      17.9999999 magnetization 
 augmentation part        2.6888214 magnetization 

 Free energy of the ion-electron system (eV)
  ---------------------------------------------------
  alpha Z        PSCENC =         0.02234163
  Ewald energy   TEWEN  =       524.58823544
  -Hartree energ DENC   =     -1389.34153493
  -exchange      EXHF   =         0.00000000
  -V(xc)+E(xc)   XCENC  =        74.85847777
  PAW double counting   =      3705.27251755    -3715.80251654
  entropy T*S    EENTRO =        -0.00000000
  eigenvalues    EBANDS =      -264.56310970
  atomic energy  EATOM  =      1036.88928565
  Solvation  Ediel_sol  =         0.00000000
  ---------------------------------------------------
  free energy    TOTEN  =       -28.07630314 eV

  energy without entropy =      -28.07630314  energy(sigma->0) =      -28.07630314


--------------------------------------------------------------------------------------------------------




 average (electrostatic) potential at core
  the test charge radii are     0.6256  0.8471  0.8742
  (the norm of the test charge is              1.0000)
       1 -41.4095       2 -41.3959       3 -86.8393       4 -90.6969       5 -94.0068
 
 
 
 E-fermi :  -7.1477     XC(G=0):  -0.0378     alpha+bet : -0.0076


 k-point     1 :       0.0000    0.0000    0.0000
  band No.  band energies     occupation 
      1     -29.8120      2.00000
      2     -25.4744      2.00000
      3     -14.2062      2.00000
      4     -13.1299      2.00000
      5     -12.0494      2.00000
      6     -12.0489      2.00000
      7      -9.1980      2.00000
      8      -9.1469      2.00000
      9      -7.2158      2.00000
     10      -2.4166      0.00000
     11      -2.4161      0.00000
     12      -1.0310      0.00000
     13      -0.0582      0.00000
     14       0.0085      0.00000
     15       0.0996      0.00000
     16       0.1045      0.00000


--------------------------------------------------------------------------------------------------------


 soft charge-density along one line, spin component            1
         0         1         2         3         4         5         6         7         8         9
 total charge-density along one line
 
 pseudopotential strength for first ion, spin component:            1
 -2.341  -3.716  -0.007  -0.024   0.001
 -3.716  -5.732  -0.014  -0.047   0.001
 -0.007  -0.014  -0.124   0.008  -0.000
 -0.024  -0.047   0.008  -0.097  -0.001
  0.001   0.001  -0.000  -0.001  -0.128
 total augmentation occupancy for first ion, spin component:            1
  2.826  -0.512   0.262   1.014  -0.030
 -0.512   0.212  -0.018  -0.122   0.004
  0.262  -0.018   0.090   0.089  -0.003
  1.014  -0.122   0.089   0.402  -0.009
 -0.030   0.004  -0.003  -0.009   0.103


------------------------ aborting loop because EDIFF is reached ----------------------------------------



 DIPCOR: dipole corrections for dipol
 direction  1 min pos   353, direction  2 min pos   412, direction  3 min pos   389,
 dipolmoment          -0.012518     -0.228542      0.306623 electrons x Angstroem
 Tr[quadrupol]         8.577547

 energy correction for charged system         0.000000 eV
 dipol+quadrupol energy correction            0.000103 eV
 added-field ion interaction          0.000000 eV  (added to PSCEN)

 
  *************** adding dipol energy to TOTEN NOW **************** 
    CHARGE:  cpu time    1.6581: real time    1.6606
    FORLOC:  cpu time    0.5593: real time    0.5600
    FORNL :  cpu time    0.1708: real time    0.1710
    STRESS:  cpu time    2.8029: real time    2.8073
    FORHAR:  cpu time    3.4087: real time    3.4137
    MIXING:  cpu time    0.6265: real time    0.6276
    OFIELD:  cpu time    0.0000: real time    0.0000

  FORCE on cell =-STRESS in cart. coord.  units (eV):
  Direction    XX          YY          ZZ          XY          YZ          ZX
  --------------------------------------------------------------------------------------
  Alpha Z     0.02234     0.02234     0.02234
  Ewald     -63.62201   563.35798    24.85172     6.54423    29.20503    -2.57281
  Hartree   346.08626   681.69174   361.56355     2.51874     6.64378    -0.45174
  E(xc)     -79.80994   -78.21932   -79.44694     0.02446     0.08861    -0.01080
  Local    -638.61593 -1541.03954  -713.45399    -8.40519   -27.85669     2.17119
  n-local    60.10413    45.72208    55.94069    -0.22616    -0.50934     0.13003
  augment    91.26331    84.55352    85.66706    -0.03670    -1.48502     0.16455
  Kinetic   284.57338   251.42929   266.47397    -0.30741    -5.52966     0.52352
  Fock        0.00000     0.00000     0.00000     0.00000     0.00000     0.00000
  -------------------------------------------------------------------------------------
  Total       0.00154     7.51809     1.61841     0.11198     0.55671    -0.04604
  in kB       0.00006     0.28094     0.06048     0.00418     0.02080    -0.00172
  external pressure =        0.11 kB  Pullay stress =        0.00 kB


 VOLUME and BASIS-vectors are now :
 -----------------------------------------------------------------------------
  energy-cutoff  :     1000.00
  volume of cell :    42875.00
      direct lattice vectors                 reciprocal lattice vectors
    35.000000000  0.000000000  0.000000000     0.028571429  0.000000000  0.000000000
     0.000000000 35.000000000  0.000000000     0.000000000  0.028571429  0.000000000
     0.000000000  0.000000000 35.000000000     0.000000000  0.000000000  0.028571429

  length of vectors
    35.000000000 35.000000000 35.000000000     0.028571429  0.028571429  0.028571429


 FORCES acting on ions
    electron-ion (+dipol)            ewald-force                    non-local-force                 convergence-correction
 -----------------------------------------------------------------------------------------------
   -.248E+01 0.295E+02 0.859E+02   0.275E+01 -.323E+02 -.951E+02   -.217E+00 0.218E+01 0.746E+01   0.299E-07 -.370E-06 -.139E-05
   -.988E+00 -.813E+02 -.326E+01   0.109E+01 0.909E+02 0.370E+01   -.872E-01 -.778E+01 -.267E+00   -.258E-08 0.140E-05 0.202E-06
   -.439E+01 -.241E+03 0.253E+00   0.510E+01 0.279E+03 -.335E+00   -.619E+00 -.326E+02 0.743E-01   0.150E-06 0.838E-06 -.853E-06
   0.163E+01 0.585E+02 -.368E+02   -.391E+01 -.100E+03 0.907E+02   0.221E+01 0.406E+02 -.523E+02   -.180E-06 -.165E-06 0.253E-05
   0.356E+01 0.160E+03 -.852E+00   -.503E+01 -.237E+03 0.106E+01   0.138E+01 0.722E+02 -.204E+00   0.285E-06 0.555E-05 0.477E-06
 -----------------------------------------------------------------------------------------------
   -.267E+01 -.746E+02 0.452E+02   0.000E+00 0.568E-13 0.444E-15   0.267E+01 0.746E+02 -.452E+02   0.283E-06 0.725E-05 0.966E-06
 
 
 POSITION                                       TOTAL-FORCE (eV/Angst)
 -----------------------------------------------------------------------------------
      0.02749      1.74109     34.06848         0.049154     -0.612571     -1.740307
      0.01191      2.93850     34.99851         0.016991      1.852669      0.165524
      0.02959      8.07724     34.99666         0.093444      4.951117     -0.007801
      0.00000      1.97721      0.00000        -0.066370     -1.231446      1.575625
      0.00801      6.93849     34.99892        -0.093218     -4.959769      0.006959
 -----------------------------------------------------------------------------------
    total drift:                                0.000114     -0.000364     -0.000128


--------------------------------------------------------------------------------------------------------



  FREE ENERGIE OF THE ION-ELECTRON SYSTEM (eV)
  ---------------------------------------------------
  free  energy   TOTEN  =       -28.07620015 eV

  energy  without entropy=      -28.07620015  energy(sigma->0) =      -28.07620015
 


--------------------------------------------------------------------------------------------------------


    POTLOK:  cpu time   11.9047: real time   11.9217


--------------------------------------------------------------------------------------------------------


 writing wavefunctions
     LOOP+:  cpu time  958.2609: real time  961.7515
    4ORBIT:  cpu time    0.0000: real time    0.0000

 total amount of memory used by VASP MPI-rank0  1850337. kBytes
=======================================================================

   base      :      30000. kBytes
   nonl-proj :      52334. kBytes
   fftplans  :     601440. kBytes
   grid      :    1154248. kBytes
   one-center:          1. kBytes
   wavefun   :      12314. kBytes
 
  
  
 General timing and accounting informations for this job:
 ========================================================
  
                  Total CPU time used (sec):     1349.875
                            User time (sec):     1301.618
                          System time (sec):       48.256
                         Elapsed time (sec):     1363.534
  
                   Maximum memory used (kb):     2293332.
                   Average memory used (kb):           0.
  
                          Minor page faults:     26541100
                          Major page faults:         1317
                 Voluntary context switches:        23705
