 vasp.6.1.2 22Jul20 (build Jan  6 2021 09:55:43) gamma-only                      
 executed on             LinuxPGI date 2021.03.01  21:38:37
 running on   32 total cores
 distrk:  each k-point on   32 cores,    1 groups
 distr:  one band on NCORE=   8 cores,    4 groups


--------------------------------------------------------------------------------------------------------


 INCAR:
 POTCAR:    PAW_PBE H_s 15May2010                 
 POTCAR:    PAW_PBE C_s 06Sep2000                 
 POTCAR:    PAW_PBE O_s 07Sep2000                 
 POTCAR:    PAW_PBE H_s 15May2010                 
   VRHFIN =H: ultrasoft test                                                                        
   LEXCH  = PE                                                                                      
   EATOM  =    12.4884 eV,    0.9179 Ry                                                             
                                                                                                    
   TITEL  = PAW_PBE H_s 15May2010                                                                   
   LULTRA =        F    use ultrasoft PP ?                                                          
   IUNSCR =        0    unscreen: 0-lin 1-nonlin 2-no                                               
   RPACOR =    0.000    partial core radius                                                         
   POMASS =    1.000; ZVAL   =    1.000    mass and valenz                                          
   RCORE  =    1.300    outmost cutoff radius                                                       
   RWIGS  =    0.700; RWIGS  =    0.370    wigner-seitz radius (au A)                               
   ENMAX  =  200.000; ENMIN  =  150.000 eV                                                          
   RCLOC  =    0.701    cutoff for local pot                                                        
   LCOR   =        T    correct aug charges                                                         
   LPAW   =        T    paw PP                                                                      
   EAUG   =  300.000                                                                                
   RMAX   =    1.330    core radius for proj-oper                                                   
   RAUG   =    1.200    factor for augmentation sphere                                              
   RDEP   =    1.337    radius for radial grids                                                     
   RDEPT  =    1.114    core radius for aug-charge                                                  
                                                                                                    
   Atomic configuration                                                                             
    2 entries                                                                                       
     n  l   j            E        occ.                                                              
     1  0  0.50        -6.4927   1.0000                                                             
     2  1  0.50        -3.4015   0.0000                                                             
   Description                                                                                      
     l       E           TYP  RCUT    TYP  RCUT                                                     
     0     -6.4927494     23  1.300                                                                 
     0      6.8029130     23  1.300                                                                 
     1     -4.0817478     23  1.300                                                                 
  local pseudopotential read in
  atomic valenz-charges read in
  non local Contribution for L=            0  read in
    real space projection operators read in
  non local Contribution for L=            0  read in
    real space projection operators read in
  non local Contribution for L=            1  read in
    real space projection operators read in
    PAW grid and wavefunctions read in
 
   number of l-projection  operators is LMAX  =            3
   number of lm-projection operators is LMMAX =            5
 
 POTCAR:    PAW_PBE C_s 06Sep2000                 
   VRHFIN =C: s2p2                                                                                  
   LEXCH  = PE                                                                                      
   EATOM  =   147.1560 eV,   10.8157 Ry                                                             
                                                                                                    
   TITEL  = PAW_PBE C_s 06Sep2000                                                                   
   LULTRA =        F    use ultrasoft PP ?                                                          
   IUNSCR =        0    unscreen: 0-lin 1-nonlin 2-no                                               
   RPACOR =    0.000    partial core radius                                                         
   POMASS =   12.011; ZVAL   =    4.000    mass and valenz                                          
   RCORE  =    1.850    outmost cutoff radius                                                       
   RWIGS  =    1.890; RWIGS  =    1.000    wigner-seitz radius (au A)                               
   ENMAX  =  273.911; ENMIN  =  205.433 eV                                                          
   RCLOC  =    0.804    cutoff for local pot                                                        
   LCOR   =        T    correct aug charges                                                         
   LPAW   =        T    paw PP                                                                      
   EAUG   =  439.243                                                                                
   DEXC   =    0.000                                                                                
   RMAX   =    1.897    core radius for proj-oper                                                   
   RAUG   =    1.300    factor for augmentation sphere                                              
   RDEP   =    1.940    radius for radial grids                                                     
   RDEPT  =    1.573    core radius for aug-charge                                                  
                                                                                                    
   Atomic configuration                                                                             
    4 entries                                                                                       
     n  l   j            E        occ.                                                              
     1  0  0.50      -273.3789   2.0000                                                             
     2  0  0.50       -13.7508   2.0000                                                             
     2  1  0.50        -5.2854   2.0000                                                             
     3  2  1.50        -1.3606   0.0000                                                             
   Description                                                                                      
     l       E           TYP  RCUT    TYP  RCUT                                                     
     0    -13.7508457     23  1.500                                                                 
     0    -11.0934578     23  1.500                                                                 
     1     -5.2854381     23  1.850                                                                 
     1     -1.3099858     23  1.850                                                                 
  local pseudopotential read in
  atomic valenz-charges read in
  non local Contribution for L=            0  read in
    real space projection operators read in
  non local Contribution for L=            0  read in
    real space projection operators read in
  non local Contribution for L=            1  read in
    real space projection operators read in
  non local Contribution for L=            1  read in
    real space projection operators read in
    PAW grid and wavefunctions read in
 
   number of l-projection  operators is LMAX  =            4
   number of lm-projection operators is LMMAX =            8
 
 POTCAR:    PAW_PBE O_s 07Sep2000                 
   VRHFIN =O: s2p4                                                                                  
   LEXCH  = PE                                                                                      
   EATOM  =   432.3788 eV,   31.7789 Ry                                                             
                                                                                                    
   TITEL  = PAW_PBE O_s 07Sep2000                                                                   
   LULTRA =        F    use ultrasoft PP ?                                                          
   IUNSCR =        0    unscreen: 0-lin 1-nonlin 2-no                                               
   RPACOR =    0.000    partial core radius                                                         
   POMASS =   16.000; ZVAL   =    6.000    mass and valenz                                          
   RCORE  =    1.850    outmost cutoff radius                                                       
   RWIGS  =    1.700; RWIGS  =    0.900    wigner-seitz radius (au A)                               
   ENMAX  =  282.853; ENMIN  =  212.140 eV                                                          
   RCLOC  =    0.804    cutoff for local pot                                                        
   LCOR   =        T    correct aug charges                                                         
   LPAW   =        T    paw PP                                                                      
   EAUG   =  412.352                                                                                
   RMAX   =    1.897    core radius for proj-oper                                                   
   RAUG   =    1.300    factor for augmentation sphere                                              
   RDEP   =    1.878    radius for radial grids                                                     
   RDEPT  =    1.572    core radius for aug-charge                                                  
                                                                                                    
   Atomic configuration                                                                             
    4 entries                                                                                       
     n  l   j            E        occ.                                                              
     1  0  0.50      -514.6923   2.0000                                                             
     2  0  0.50       -23.9615   2.0000                                                             
     2  1  0.50        -9.0305   4.0000                                                             
     3  2  1.50        -1.3606   0.0000                                                             
   Description                                                                                      
     l       E           TYP  RCUT    TYP  RCUT                                                     
     0    -23.9615315     23  1.500                                                                 
     0    -25.3221141     23  1.500                                                                 
     1     -9.0304908     23  1.850                                                                 
     1     -7.3935399     23  1.850                                                                 
  local pseudopotential read in
  atomic valenz-charges read in
  non local Contribution for L=            0  read in
    real space projection operators read in
  non local Contribution for L=            0  read in
    real space projection operators read in
  non local Contribution for L=            1  read in
    real space projection operators read in
  non local Contribution for L=            1  read in
    real space projection operators read in
    PAW grid and wavefunctions read in
 
   number of l-projection  operators is LMAX  =            4
   number of lm-projection operators is LMMAX =            8
 
  PAW_PBE H_s 15May2010                 :
 energy of atom  1       EATOM=  -12.4884
 kinetic energy error for atom=    0.0000 (will be added to EATOM!!)
  PAW_PBE C_s 06Sep2000                 :
 energy of atom  2       EATOM= -147.1560
 kinetic energy error for atom=    0.0002 (will be added to EATOM!!)
  PAW_PBE O_s 07Sep2000                 :
 energy of atom  3       EATOM= -432.3788
 kinetic energy error for atom=    0.0004 (will be added to EATOM!!)
 
 
 POSCAR:  H  C  O
  positions in cartesian coordinates
  No initial velocities read in
 exchange correlation table for  LEXCH =        8
   RHO(1)=    0.500       N(1)  =     2000
   RHO(2)=  100.500       N(2)  =     4000
 


--------------------------------------------------------------------------------------------------------


 ion  position               nearest neighbor table
   1  0.001  0.050  0.973-   4 0.96
   2  0.000  0.084  1.000-   4 0.96
   3  0.001  0.191  1.000-   5 1.14
   4  0.000  0.056  0.000-   2 0.96   1 0.96
   5  0.000  0.158  1.000-   3 1.14
 
 -----------------------------------------------------------------------------
|                                                                             |
|           W    W    AA    RRRRR   N    N  II  N    N   GGGG   !!!           |
|           W    W   A  A   R    R  NN   N  II  NN   N  G    G  !!!           |
|           W    W  A    A  R    R  N N  N  II  N N  N  G       !!!           |
|           W WW W  AAAAAA  RRRRR   N  N N  II  N  N N  G  GGG   !            |
|           WW  WW  A    A  R   R   N   NN  II  N   NN  G    G                |
|           W    W  A    A  R    R  N    N  II  N    N   GGGG   !!!           |
|                                                                             |
|     The distance between some ions is very small. Please check the          |
|     nearest-neighbor list in the OUTCAR file.                               |
|     I HOPE YOU KNOW WHAT YOU ARE DOING!                                     |
|                                                                             |
 -----------------------------------------------------------------------------

  LATTYP: Found a simple cubic cell.
 ALAT       =    35.0000000000
  
  Lattice vectors:
  
 A1 = (  35.0000000000,   0.0000000000,   0.0000000000)
 A2 = (   0.0000000000,  35.0000000000,   0.0000000000)
 A3 = (   0.0000000000,   0.0000000000,  35.0000000000)


Analysis of symmetry for initial positions (statically):
=====================================================================
 Subroutine PRICEL returns:
 Original cell was already a primitive cell.
 

 Routine SETGRP: Setting up the symmetry group for a 
 simple cubic supercell.


 Subroutine GETGRP returns: Found  1 space group operations
 (whereof  1 operations were pure point group operations)
 out of a pool of 48 trial point group operations.


The static configuration has the point symmetry C_1 .


Analysis of symmetry for dynamics (positions and initial velocities):
=====================================================================
 Subroutine PRICEL returns:
 Original cell was already a primitive cell.
 

 Routine SETGRP: Setting up the symmetry group for a 
 simple cubic supercell.


 Subroutine GETGRP returns: Found  1 space group operations
 (whereof  1 operations were pure point group operations)
 out of a pool of 48 trial point group operations.


The dynamic configuration has the point symmetry C_1 .


 Subroutine INISYM returns: Found  1 space group operations
 (whereof  1 operations are pure point group operations),
 and found     1 'primitive' translations


----------------------------------------------------------------------------------------

                                     Primitive cell                                     

  volume of cell :   42875.0000

  direct lattice vectors                    reciprocal lattice vectors
    35.000000000  0.000000000  0.000000000     0.028571429  0.000000000  0.000000000
     0.000000000 35.000000000  0.000000000     0.000000000  0.028571429  0.000000000
     0.000000000  0.000000000 35.000000000     0.000000000  0.000000000  0.028571429

  length of vectors
    35.000000000 35.000000000 35.000000000     0.028571429  0.028571429  0.028571429

  position of ions in fractional coordinates (direct lattice)
     0.000785426  0.049745327  0.973385225
     0.000340417  0.083957172  0.999957468
     0.000845402  0.190778191  0.999904630
     0.000000000  0.056491600  0.000000000
     0.000228949  0.158242666  0.999969134

  ion indices of the primitive-cell ions
   primitive index   ion index
                 1           1
                 2           2
                 3           3
                 4           4
                 5           5

----------------------------------------------------------------------------------------

 
 
 KPOINTS: automatic mesh                          

Automatic generation of k-mesh.
Space group operators:
 irot       det(A)        alpha          n_x          n_y          n_z        tau_x        tau_y        tau_z
    1     1.000000     0.000000     1.000000     0.000000     0.000000     0.000000     0.000000     0.000000
 
 Subroutine IBZKPT returns following result:
 ===========================================
 
 Found      1 irreducible k-points:
 
 Following reciprocal coordinates:
            Coordinates               Weight
  0.000000  0.000000  0.000000      1.000000
 
 Following cartesian coordinates:
            Coordinates               Weight
  0.000000  0.000000  0.000000      1.000000
 


--------------------------------------------------------------------------------------------------------




 Dimension of arrays:
   k-points           NKPTS =      1   k-points in BZ     NKDIM =      1   number of bands    NBANDS=     16
   number of dos      NEDOS =    301   number of ions     NIONS =      5
   non local maximal  LDIM  =      4   non local SUM 2l+1 LMDIM =      8
   total plane-waves  NPLWV = ******
   max r-space proj   IRMAX =      1   max aug-charges    IRDMAX=  29269
   dimension x,y,z NGX =   378 NGY =  378 NGZ =  378
   dimension x,y,z NGXF=   756 NGYF=  756 NGZF=  756
   support grid    NGXF=   756 NGYF=  756 NGZF=  756
   ions per type =               2   1   2
   NGX,Y,Z   is equivalent  to a cutoff of  17.95, 17.95, 17.95 a.u.
   NGXF,Y,Z  is equivalent  to a cutoff of  35.91, 35.91, 35.91 a.u.

 SYSTEM =  C                                       
 POSCAR =   H  C  O                                

 Startparameter for this run:
   NWRITE =      2    write-flag & timer
   PREC   = acc       normal or accurate (medium, high low for compatibility)
   ISTART =      0    job   : 0-new  1-cont  2-samecut
   ICHARG =      2    charge: 1-file 2-atom 10-const
   ISPIN  =      1    spin polarized calculation?
   LNONCOLLINEAR =      F non collinear calculations
   LSORBIT =      F    spin-orbit coupling
   INIWAV =      1    electr: 0-lowe 1-rand  2-diag
   LASPH  =      T    aspherical Exc in radial PAW
   METAGGA=      F    non-selfconsistent MetaGGA calc.

 Electronic Relaxation 1
   ENCUT  = 1000.0 eV  73.50 Ry    8.57 a.u.  90.25 90.25 90.25*2*pi/ulx,y,z
   ENINI  = 1000.0     initial cutoff
   ENAUG  =  439.2 eV  augmentation charge cutoff
   NELM   =     60;   NELMIN=  2; NELMDL= -5     # of ELM steps 
   EDIFF  = 0.1E-06   stopping-criterion for ELM
   LREAL  =      F    real-space projection
   NLSPLINE    = F    spline interpolate recip. space projectors
   LCOMPAT=      F    compatible to vasp.4.4
   GGA_COMPAT  = T    GGA compatible to vasp.4.4-vasp.4.6
   LMAXPAW     = -100 max onsite density
   LMAXMIX     =    2 max onsite mixed and CHGCAR
   VOSKOWN=      0    Vosko Wilk Nusair interpolation
   ROPT   =    0.00000   0.00000   0.00000
 Ionic relaxation
   EDIFFG = 0.1E-05   stopping-criterion for IOM
   NSW    =      0    number of steps for IOM
   NBLOCK =      1;   KBLOCK =      1    inner block; outer block 
   IBRION =     -1    ionic relax: 0-MD 1-quasi-New 2-CG
   NFREE  =      0    steps in history (QN), initial steepest desc. (CG)
   ISIF   =      2    stress and relaxation
   IWAVPR =     10    prediction:  0-non 1-charg 2-wave 3-comb
   ISYM   =      2    0-nonsym 1-usesym 2-fastsym
   LCORR  =      T    Harris-Foulkes like correction to forces

   POTIM  = 0.5000    time-step for ionic-motion
   TEIN   =    0.0    initial temperature
   TEBEG  =    0.0;   TEEND  =   0.0 temperature during run
   SMASS  =  -3.00    Nose mass-parameter (am)
   estimated Nose-frequenzy (Omega)   =  0.10E-29 period in steps = 0.13E+47 mass=  -0.280E-25a.u.
   SCALEE = 1.0000    scale energy and forces
   NPACO  =    256;   APACO  = 16.0  distance and # of slots for P.C.
   PSTRESS=    0.0 pullay stress

  Mass of Ions in am
   POMASS =   1.00 12.01 16.00
  Ionic Valenz
   ZVAL   =   1.00  4.00  6.00
  Atomic Wigner-Seitz radii
   RWIGS  =  -1.00 -1.00 -1.00
  virtual crystal weights 
   VCA    =   1.00  1.00  1.00
   NELECT =      18.0000    total number of electrons
   NUPDOWN=      -1.0000    fix difference up-down

 DOS related values:
   EMIN   =  10.00;   EMAX   =-10.00  energy-range for DOS
   EFERMI =   0.00
   ISMEAR =     0;   SIGMA  =   0.01  broadening in eV -4-tet -1-fermi 0-gaus

 Electronic relaxation 2 (details)
   IALGO  =     38    algorithm
   LDIAG  =      T    sub-space diagonalisation (order eigenvalues)
   LSUBROT=      F    optimize rotation matrix (better conditioning)
   TURBO    =      0    0=normal 1=particle mesh
   IRESTART =      0    0=no restart 2=restart with 2 vectors
   NREBOOT  =      0    no. of reboots
   NMIN     =      0    reboot dimension
   EREF     =   0.00    reference energy to select bands
   IMIX   =      4    mixing-type and parameters
     AMIX     =   0.40;   BMIX     =  1.00
     AMIX_MAG =   1.60;   BMIX_MAG =  1.00
     AMIN     =   0.10
     WC   =   100.;   INIMIX=   1;  MIXPRE=   1;  MAXMIX= -45

 Intra band minimization:
   WEIMIN = 0.0000     energy-eigenvalue tresh-hold
   EBREAK =  0.16E-08  absolut break condition
   DEPER  =   0.30     relativ break condition  

   TIME   =   0.40     timestep for ELM

  volume/ion in A,a.u.               =    8575.00     57866.96
  Fermi-wavevector in a.u.,A,eV,Ry     =   0.122583  0.231649  0.204450  0.015027
  Thomas-Fermi vector in A             =   0.746568
 
 Write flags
   LWAVE        =      T    write WAVECAR
   LDOWNSAMPLE  =      F    k-point downsampling of WAVECAR
   LCHARG       =      T    write CHGCAR
   LVTOT        =      F    write LOCPOT, total local potential
   LVHAR        =      F    write LOCPOT, Hartree potential only
   LELF         =      F    write electronic localiz. function (ELF)
   LORBIT       =      0    0 simple, 1 ext, 2 COOP (PROOUT), +10 PAW based schemes


 Dipole corrections
   LMONO  =      F    monopole corrections only (constant potential shift)
   LDIPOL =      F    correct potential (dipole corrections)
   IDIPOL =      4    1-x, 2-y, 3-z, 4-all directions 
   EPSILON=  1.0000000 bulk dielectric constant

 Exchange correlation treatment:
   GGA     =    --    GGA type
   LEXCH   =     8    internal setting for exchange type
   VOSKOWN=      0    Vosko Wilk Nusair interpolation
   LHFCALC =     F    Hartree Fock is set to
   LHFONE  =     F    Hartree Fock one center treatment
   AEXX    =    0.0000 exact exchange contribution

 Linear response parameters
   LEPSILON=     F    determine dielectric tensor
   LRPA    =     F    only Hartree local field effects (RPA)
   LNABLA  =     F    use nabla operator in PAW spheres
   LVEL    =     F    velocity operator in full k-point grid
   LINTERFAST=   F  fast interpolation
   KINTER  =     0    interpolate to denser k-point grid
   CSHIFT  =0.1000    complex shift for real part using Kramers Kronig
   OMEGAMAX=  -1.0    maximum frequency
   DEG_THRESHOLD= 0.2000000E-02 threshold for treating states as degnerate
   RTIME   =   -0.100 relaxation time in fs
  (WPLASMAI=    0.000 imaginary part of plasma frequency in eV, 0.658/RTIME)
   DFIELD  = 0.0000000 0.0000000 0.0000000 field for delta impulse in time
 
 Orbital magnetization related:
   ORBITALMAG=     F  switch on orbital magnetization
   LCHIMAG   =     F  perturbation theory with respect to B field
   DQ        =  0.001000  dq finite difference perturbation B field
   LLRAUG    =     F  two centre corrections for induced B field



--------------------------------------------------------------------------------------------------------


 Static calculation
 charge density and potential will be updated during run
 non-spin polarized calculation
 Variant of blocked Davidson
 Davidson routine will perform the subspace rotation
 perform sub-space diagonalisation
    after iterative eigenvector-optimisation
 modified Broyden-mixing scheme, WC =      100.0
 initial mixing is a Kerker type mixing with AMIX =  0.4000 and BMIX =      1.0000
 Hartree-type preconditioning will be used
 using additional bands             7
 reciprocal scheme for non local part
 calculate Harris-corrections to forces 
   (improved forces if not selfconsistent)
 use gradient corrections 
 use of overlap-Matrix (Vanderbilt PP)
 Gauss-broadening in eV      SIGMA  =   0.01


--------------------------------------------------------------------------------------------------------


  energy-cutoff  :     1000.00
  volume of cell :    42875.00
      direct lattice vectors                 reciprocal lattice vectors
    35.000000000  0.000000000  0.000000000     0.028571429  0.000000000  0.000000000
     0.000000000 35.000000000  0.000000000     0.000000000  0.028571429  0.000000000
     0.000000000  0.000000000 35.000000000     0.000000000  0.000000000  0.028571429

  length of vectors
    35.000000000 35.000000000 35.000000000     0.028571429  0.028571429  0.028571429


 
 k-points in units of 2pi/SCALE and weight: automatic mesh                          
   0.00000000  0.00000000  0.00000000       1.000
 
 k-points in reciprocal lattice and weights: automatic mesh                          
   0.00000000  0.00000000  0.00000000       1.000
 
 position of ions in fractional coordinates (direct lattice) 
   0.00078543  0.04974533  0.97338523
   0.00034042  0.08395717  0.99995747
   0.00084540  0.19077819  0.99990463
   0.00000000  0.05649160  0.00000000
   0.00022895  0.15824267  0.99996913
 
 position of ions in cartesian coordinates  (Angst):
   0.02748992  1.74108643 34.06848289
   0.01191459  2.93850101 34.99851139
   0.02958908  6.67723670 34.99666206
   0.00000000  1.97720600  0.00000000
   0.00801323  5.53849332 34.99891970
 


--------------------------------------------------------------------------------------------------------


 use parallel FFT for orbitals z direction half grid
 k-point   1 :   0.0000 0.0000 0.0000  plane waves: 1539209

 maximum and minimum number of plane-waves per node :    192406   192397

 maximum number of plane-waves:   1539209
 maximum index in each direction: 
   IXMAX=   90   IYMAX=   90   IZMAX=   90
   IXMIN=  -90   IYMIN=  -90   IZMIN=    0


 parallel 3D FFT for wavefunctions:
    minimum data exchange during FFTs selected (reduces bandwidth)
 parallel 3D FFT for charge:
    minimum data exchange during FFTs selected (reduces bandwidth)


 total amount of memory used by VASP MPI-rank0  1850337. kBytes
=======================================================================

   base      :      30000. kBytes
   nonl-proj :      52334. kBytes
   fftplans  :     601440. kBytes
   grid      :    1154248. kBytes
   one-center:          1. kBytes
   wavefun   :      12314. kBytes
 
     INWAV:  cpu time    0.0000: real time    0.0000
 Broyden mixing: mesh for mixing (old mesh)
   NGX =181   NGY =181   NGZ =181
  (NGX  =756   NGY  =756   NGZ  =756)
  gives a total of ****** points

 initial charge density was supplied:
 charge density of overlapping atoms calculated
 number of electron      18.0000000 magnetization 
 keeping initial charge density in first step


--------------------------------------------------------------------------------------------------------


 Maximum index for augmentation-charges          1120 (set IRDMAX)


--------------------------------------------------------------------------------------------------------


 First call to EWALD:  gamma=   0.051
 Maximum number of real-space cells 3x 3x 3
 Maximum number of reciprocal cells 3x 3x 3

    FEWALD:  cpu time    0.0007: real time    0.0007


--------------------------------------- Iteration      1(   1)  ---------------------------------------


    POTLOK:  cpu time   11.6055: real time   11.6218
    SETDIJ:  cpu time    0.0548: real time    0.0569
     EDDAV:  cpu time    7.0702: real time    7.1135
       DOS:  cpu time    0.0010: real time    0.0010
    --------------------------------------------
      LOOP:  cpu time   18.7315: real time   18.7933

 eigenvalue-minimisations  :    48
 total energy-change (2. order) : 0.1453116E+03  (-0.3425037E+03)
 number of electron      18.0000000 magnetization 
 augmentation part       18.0000000 magnetization 

 Free energy of the ion-electron system (eV)
  ---------------------------------------------------
  alpha Z        PSCENC =         0.02234163
  Ewald energy   TEWEN  =       605.80482946
  -Hartree energ DENC   =     -1417.66173180
  -exchange      EXHF   =         0.00000000
  -V(xc)+E(xc)   XCENC  =        71.88891633
  PAW double counting   =       802.92211551     -812.08006040
  entropy T*S    EENTRO =        -0.00000000
  eigenvalues    EBANDS =      -142.47406412
  atomic energy  EATOM  =      1036.88928565
  Solvation  Ediel_sol  =         0.00000000
  ---------------------------------------------------
  free energy    TOTEN  =       145.31163225 eV

  energy without entropy =      145.31163225  energy(sigma->0) =      145.31163225


--------------------------------------------------------------------------------------------------------




--------------------------------------- Iteration      1(   2)  ---------------------------------------


     EDDAV:  cpu time    7.0679: real time    7.0791
       DOS:  cpu time    0.0009: real time    0.0009
    --------------------------------------------
      LOOP:  cpu time    7.0689: real time    7.0800

 eigenvalue-minimisations  :    48
 total energy-change (2. order) :-0.1237659E+03  (-0.1235261E+03)
 number of electron      18.0000000 magnetization 
 augmentation part       18.0000000 magnetization 

 Free energy of the ion-electron system (eV)
  ---------------------------------------------------
  alpha Z        PSCENC =         0.02234163
  Ewald energy   TEWEN  =       605.80482946
  -Hartree energ DENC   =     -1417.66173180
  -exchange      EXHF   =         0.00000000
  -V(xc)+E(xc)   XCENC  =        71.88891633
  PAW double counting   =       802.92211551     -812.08006040
  entropy T*S    EENTRO =        -0.00000072
  eigenvalues    EBANDS =      -266.23998474
  atomic energy  EATOM  =      1036.88928565
  Solvation  Ediel_sol  =         0.00000000
  ---------------------------------------------------
  free energy    TOTEN  =        21.54571092 eV

  energy without entropy =       21.54571164  energy(sigma->0) =       21.54571128


--------------------------------------------------------------------------------------------------------




--------------------------------------- Iteration      1(   3)  ---------------------------------------


     EDDAV:  cpu time    7.1121: real time    7.1234
       DOS:  cpu time    0.0044: real time    0.0044
    --------------------------------------------
      LOOP:  cpu time    7.1164: real time    7.1278

 eigenvalue-minimisations  :    48
 total energy-change (2. order) :-0.3866561E+02  (-0.3864130E+02)
 number of electron      18.0000000 magnetization 
 augmentation part       18.0000000 magnetization 

 Free energy of the ion-electron system (eV)
  ---------------------------------------------------
  alpha Z        PSCENC =         0.02234163
  Ewald energy   TEWEN  =       605.80482946
  -Hartree energ DENC   =     -1417.66173180
  -exchange      EXHF   =         0.00000000
  -V(xc)+E(xc)   XCENC  =        71.88891633
  PAW double counting   =       802.92211551     -812.08006040
  entropy T*S    EENTRO =        -0.00000000
  eigenvalues    EBANDS =      -304.90559765
  atomic energy  EATOM  =      1036.88928565
  Solvation  Ediel_sol  =         0.00000000
  ---------------------------------------------------
  free energy    TOTEN  =       -17.11990127 eV

  energy without entropy =      -17.11990127  energy(sigma->0) =      -17.11990127


--------------------------------------------------------------------------------------------------------




--------------------------------------- Iteration      1(   4)  ---------------------------------------


     EDDAV:  cpu time    5.3648: real time    5.3734
       DOS:  cpu time    0.0028: real time    0.0028
    --------------------------------------------
      LOOP:  cpu time    5.3676: real time    5.3762

 eigenvalue-minimisations  :    32
 total energy-change (2. order) :-0.1327040E+02  (-0.1326359E+02)
 number of electron      18.0000000 magnetization 
 augmentation part       18.0000000 magnetization 

 Free energy of the ion-electron system (eV)
  ---------------------------------------------------
  alpha Z        PSCENC =         0.02234163
  Ewald energy   TEWEN  =       605.80482946
  -Hartree energ DENC   =     -1417.66173180
  -exchange      EXHF   =         0.00000000
  -V(xc)+E(xc)   XCENC  =        71.88891633
  PAW double counting   =       802.92211551     -812.08006040
  entropy T*S    EENTRO =        -0.00000000
  eigenvalues    EBANDS =      -318.17599624
  atomic energy  EATOM  =      1036.88928565
  Solvation  Ediel_sol  =         0.00000000
  ---------------------------------------------------
  free energy    TOTEN  =       -30.39029986 eV

  energy without entropy =      -30.39029986  energy(sigma->0) =      -30.39029986


--------------------------------------------------------------------------------------------------------




--------------------------------------- Iteration      1(   5)  ---------------------------------------


     EDDAV:  cpu time    6.2270: real time    6.2369
       DOS:  cpu time    0.0018: real time    0.0018
    CHARGE:  cpu time    1.5585: real time    1.5607
    MIXING:  cpu time    0.2045: real time    0.2048
    --------------------------------------------
      LOOP:  cpu time    7.9918: real time    8.0043

 eigenvalue-minimisations  :    40
 total energy-change (2. order) :-0.6454090E+00  (-0.6445357E+00)
 number of electron      17.9999999 magnetization 
 augmentation part        3.0888943 magnetization 

 Broyden mixing:
  rms(total) = 0.42432E+01    rms(broyden)= 0.42432E+01
  rms(prec ) = 0.42500E+01
  weight for this iteration     100.00

 Free energy of the ion-electron system (eV)
  ---------------------------------------------------
  alpha Z        PSCENC =         0.02234163
  Ewald energy   TEWEN  =       605.80482946
  -Hartree energ DENC   =     -1417.66173180
  -exchange      EXHF   =         0.00000000
  -V(xc)+E(xc)   XCENC  =        71.88891633
  PAW double counting   =       802.92211551     -812.08006040
  entropy T*S    EENTRO =        -0.00000000
  eigenvalues    EBANDS =      -318.82140522
  atomic energy  EATOM  =      1036.88928565
  Solvation  Ediel_sol  =         0.00000000
  ---------------------------------------------------
  free energy    TOTEN  =       -31.03570884 eV

  energy without entropy =      -31.03570884  energy(sigma->0) =      -31.03570884


--------------------------------------------------------------------------------------------------------




--------------------------------------- Iteration      1(   6)  ---------------------------------------


    POTLOK:  cpu time   11.4440: real time   11.4605
    SETDIJ:  cpu time    0.0564: real time    0.0564
     EDDAV:  cpu time    6.2388: real time    6.2487
       DOS:  cpu time    0.0012: real time    0.0012
    CHARGE:  cpu time    1.5598: real time    1.5621
    MIXING:  cpu time    0.2061: real time    0.3046
    --------------------------------------------
      LOOP:  cpu time   19.5064: real time   19.6335

 eigenvalue-minimisations  :    40
 total energy-change (2. order) : 0.2601787E+01  (-0.1106607E+01)
 number of electron      18.0000000 magnetization 
 augmentation part        2.6978336 magnetization 

 Broyden mixing:
  rms(total) = 0.40215E+01    rms(broyden)= 0.40215E+01
  rms(prec ) = 0.40223E+01
  weight for this iteration     100.00

 eigenvalues of (default mixing * dielectric matrix)
  average eigenvalue GAMMA=   0.7298
  0.7298

 Free energy of the ion-electron system (eV)
  ---------------------------------------------------
  alpha Z        PSCENC =         0.02234163
  Ewald energy   TEWEN  =       605.80482946
  -Hartree energ DENC   =     -1454.44849787
  -exchange      EXHF   =         0.00000000
  -V(xc)+E(xc)   XCENC  =        74.01299450
  PAW double counting   =      1478.63227736    -1489.54202542
  entropy T*S    EENTRO =        -0.00000000
  eigenvalues    EBANDS =      -279.80512679
  atomic energy  EATOM  =      1036.88928565
  Solvation  Ediel_sol  =         0.00000000
  ---------------------------------------------------
  free energy    TOTEN  =       -28.43392148 eV

  energy without entropy =      -28.43392148  energy(sigma->0) =      -28.43392148


--------------------------------------------------------------------------------------------------------




--------------------------------------- Iteration      1(   7)  ---------------------------------------


    POTLOK:  cpu time   11.4842: real time   11.5006
    SETDIJ:  cpu time    0.0526: real time    0.0526
     EDDAV:  cpu time    5.3160: real time    5.3243
       DOS:  cpu time    0.0002: real time    0.0002
    CHARGE:  cpu time    1.5779: real time    1.5803
    MIXING:  cpu time    0.2172: real time    0.2176
    --------------------------------------------
      LOOP:  cpu time   18.6481: real time   18.6757

 eigenvalue-minimisations  :    32
 total energy-change (2. order) : 0.1775137E+00  (-0.3475953E-01)
 number of electron      17.9999999 magnetization 
 augmentation part        2.7101092 magnetization 

 Broyden mixing:
  rms(total) = 0.27702E+01    rms(broyden)= 0.27702E+01
  rms(prec ) = 0.27707E+01
  weight for this iteration     100.00

 eigenvalues of (default mixing * dielectric matrix)
  average eigenvalue GAMMA=   1.6723
  0.9731  2.3714

 Free energy of the ion-electron system (eV)
  ---------------------------------------------------
  alpha Z        PSCENC =         0.02234163
  Ewald energy   TEWEN  =       605.80482946
  -Hartree energ DENC   =     -1457.75137314
  -exchange      EXHF   =         0.00000000
  -V(xc)+E(xc)   XCENC  =        74.23130486
  PAW double counting   =      2024.91262130    -2035.67049315
  entropy T*S    EENTRO =        -0.00000000
  eigenvalues    EBANDS =      -276.69492436
  atomic energy  EATOM  =      1036.88928565
  Solvation  Ediel_sol  =         0.00000000
  ---------------------------------------------------
  free energy    TOTEN  =       -28.25640776 eV

  energy without entropy =      -28.25640776  energy(sigma->0) =      -28.25640776


--------------------------------------------------------------------------------------------------------




--------------------------------------- Iteration      1(   8)  ---------------------------------------


    POTLOK:  cpu time   11.4570: real time   11.4733
    SETDIJ:  cpu time    0.0535: real time    0.0535
     EDDAV:  cpu time    7.1068: real time    7.1184
       DOS:  cpu time    0.0010: real time    0.0010
    CHARGE:  cpu time    1.5822: real time    1.5844
    MIXING:  cpu time    0.2366: real time    0.2369
    --------------------------------------------
      LOOP:  cpu time   20.4371: real time   20.4676

 eigenvalue-minimisations  :    48
 total energy-change (2. order) : 0.1566408E+00  (-0.3443824E-01)
 number of electron      17.9999999 magnetization 
 augmentation part        2.6796401 magnetization 

 Broyden mixing:
  rms(total) = 0.41143E+00    rms(broyden)= 0.41143E+00
  rms(prec ) = 0.41207E+00
  weight for this iteration     100.00

 eigenvalues of (default mixing * dielectric matrix)
  average eigenvalue GAMMA=   1.3732
  2.5704  0.8862  0.6631

 Free energy of the ion-electron system (eV)
  ---------------------------------------------------
  alpha Z        PSCENC =         0.02234163
  Ewald energy   TEWEN  =       605.80482946
  -Hartree energ DENC   =     -1468.80314195
  -exchange      EXHF   =         0.00000000
  -V(xc)+E(xc)   XCENC  =        74.93106655
  PAW double counting   =      3624.60827213    -3635.31792299
  entropy T*S    EENTRO =        -0.00000000
  eigenvalues    EBANDS =      -266.23449737
  atomic energy  EATOM  =      1036.88928565
  Solvation  Ediel_sol  =         0.00000000
  ---------------------------------------------------
  free energy    TOTEN  =       -28.09976691 eV

  energy without entropy =      -28.09976691  energy(sigma->0) =      -28.09976691


--------------------------------------------------------------------------------------------------------




--------------------------------------- Iteration      1(   9)  ---------------------------------------


    POTLOK:  cpu time   11.4686: real time   11.4850
    SETDIJ:  cpu time    0.0537: real time    0.0537
     EDDAV:  cpu time    6.2538: real time    6.2637
       DOS:  cpu time    0.0009: real time    0.0009
    CHARGE:  cpu time    1.5683: real time    1.5705
    MIXING:  cpu time    0.2316: real time    0.2320
    --------------------------------------------
      LOOP:  cpu time   19.5769: real time   19.6058

 eigenvalue-minimisations  :    40
 total energy-change (2. order) : 0.1225416E-01  (-0.4860973E-02)
 number of electron      17.9999999 magnetization 
 augmentation part        2.6909521 magnetization 

 Broyden mixing:
  rms(total) = 0.20347E+00    rms(broyden)= 0.20347E+00
  rms(prec ) = 0.20389E+00
  weight for this iteration     100.00

 eigenvalues of (default mixing * dielectric matrix)
  average eigenvalue GAMMA=   1.3903
  2.5244  0.7409  1.1480  1.1480

 Free energy of the ion-electron system (eV)
  ---------------------------------------------------
  alpha Z        PSCENC =         0.02234163
  Ewald energy   TEWEN  =       605.80482946
  -Hartree energ DENC   =     -1468.74353145
  -exchange      EXHF   =         0.00000000
  -V(xc)+E(xc)   XCENC  =        74.92786874
  PAW double counting   =      3760.88512407    -3771.51219959
  entropy T*S    EENTRO =        -0.00000000
  eigenvalues    EBANDS =      -266.36123126
  atomic energy  EATOM  =      1036.88928565
  Solvation  Ediel_sol  =         0.00000000
  ---------------------------------------------------
  free energy    TOTEN  =       -28.08751275 eV

  energy without entropy =      -28.08751275  energy(sigma->0) =      -28.08751275


--------------------------------------------------------------------------------------------------------




--------------------------------------- Iteration      1(  10)  ---------------------------------------


    POTLOK:  cpu time   11.4504: real time   11.4667
    SETDIJ:  cpu time    0.0539: real time    0.0539
     EDDAV:  cpu time    7.9972: real time    8.0110
       DOS:  cpu time    0.0001: real time    0.0002
    CHARGE:  cpu time    1.5774: real time    1.5796
    MIXING:  cpu time    0.3014: real time    0.3017
    --------------------------------------------
      LOOP:  cpu time   21.3803: real time   21.4131

 eigenvalue-minimisations  :    56
 total energy-change (2. order) :-0.6796242E-03  (-0.7287015E-03)
 number of electron      17.9999999 magnetization 
 augmentation part        2.6901012 magnetization 

 Broyden mixing:
  rms(total) = 0.69586E-01    rms(broyden)= 0.69586E-01
  rms(prec ) = 0.70179E-01
  weight for this iteration     100.00

 eigenvalues of (default mixing * dielectric matrix)
  average eigenvalue GAMMA=   1.4477
  2.4789  1.9911  1.0612  0.9886  0.7190

 Free energy of the ion-electron system (eV)
  ---------------------------------------------------
  alpha Z        PSCENC =         0.02234163
  Ewald energy   TEWEN  =       605.80482946
  -Hartree energ DENC   =     -1468.51776799
  -exchange      EXHF   =         0.00000000
  -V(xc)+E(xc)   XCENC  =        74.89091580
  PAW double counting   =      3727.13623238    -3737.72906604
  entropy T*S    EENTRO =        -0.00000000
  eigenvalues    EBANDS =      -266.58496326
  atomic energy  EATOM  =      1036.88928565
  Solvation  Ediel_sol  =         0.00000000
  ---------------------------------------------------
  free energy    TOTEN  =       -28.08819238 eV

  energy without entropy =      -28.08819238  energy(sigma->0) =      -28.08819238


--------------------------------------------------------------------------------------------------------




--------------------------------------- Iteration      1(  11)  ---------------------------------------


    POTLOK:  cpu time   11.5000: real time   11.5167
    SETDIJ:  cpu time    0.0519: real time    0.0519
     EDDAV:  cpu time    6.2296: real time    6.2395
       DOS:  cpu time    0.0011: real time    0.0011
    CHARGE:  cpu time    1.5961: real time    1.5983
    MIXING:  cpu time    0.2435: real time    0.2439
    --------------------------------------------
      LOOP:  cpu time   19.6222: real time   19.6515

 eigenvalue-minimisations  :    40
 total energy-change (2. order) :-0.2929711E-02  (-0.2632370E-03)
 number of electron      17.9999999 magnetization 
 augmentation part        2.6915208 magnetization 

 Broyden mixing:
  rms(total) = 0.22199E-01    rms(broyden)= 0.22199E-01
  rms(prec ) = 0.23131E-01
  weight for this iteration     100.00

 eigenvalues of (default mixing * dielectric matrix)
  average eigenvalue GAMMA=   1.4191
  2.4992  2.0199  1.2783  0.7270  0.9951  0.9951

 Free energy of the ion-electron system (eV)
  ---------------------------------------------------
  alpha Z        PSCENC =         0.02234163
  Ewald energy   TEWEN  =       605.80482946
  -Hartree energ DENC   =     -1468.44607895
  -exchange      EXHF   =         0.00000000
  -V(xc)+E(xc)   XCENC  =        74.86869064
  PAW double counting   =      3717.39487858    -3727.95255031
  entropy T*S    EENTRO =        -0.00000000
  eigenvalues    EBANDS =      -266.67251878
  atomic energy  EATOM  =      1036.88928565
  Solvation  Ediel_sol  =         0.00000000
  ---------------------------------------------------
  free energy    TOTEN  =       -28.09112209 eV

  energy without entropy =      -28.09112209  energy(sigma->0) =      -28.09112209


--------------------------------------------------------------------------------------------------------




--------------------------------------- Iteration      1(  12)  ---------------------------------------


    POTLOK:  cpu time   11.4888: real time   11.5048
    SETDIJ:  cpu time    0.0585: real time    0.0585
     EDDAV:  cpu time    7.1389: real time    7.1506
       DOS:  cpu time    0.0002: real time    0.0002
    CHARGE:  cpu time    1.5621: real time    1.5641
    MIXING:  cpu time    0.2536: real time    0.2539
    --------------------------------------------
      LOOP:  cpu time   20.5019: real time   20.5322

 eigenvalue-minimisations  :    48
 total energy-change (2. order) :-0.2154808E-02  (-0.6713595E-04)
 number of electron      17.9999999 magnetization 
 augmentation part        2.6913117 magnetization 

 Broyden mixing:
  rms(total) = 0.11949E-01    rms(broyden)= 0.11949E-01
  rms(prec ) = 0.13095E-01
  weight for this iteration     100.00

 eigenvalues of (default mixing * dielectric matrix)
  average eigenvalue GAMMA=   1.4805
  2.6819  2.2099  1.8285  1.0481  1.0481  0.7387  0.8082

 Free energy of the ion-electron system (eV)
  ---------------------------------------------------
  alpha Z        PSCENC =         0.02234163
  Ewald energy   TEWEN  =       605.80482946
  -Hartree energ DENC   =     -1468.67515970
  -exchange      EXHF   =         0.00000000
  -V(xc)+E(xc)   XCENC  =        74.87474751
  PAW double counting   =      3712.98626929    -3723.54038874
  entropy T*S    EENTRO =        -0.00000000
  eigenvalues    EBANDS =      -266.45520199
  atomic energy  EATOM  =      1036.88928565
  Solvation  Ediel_sol  =         0.00000000
  ---------------------------------------------------
  free energy    TOTEN  =       -28.09327690 eV

  energy without entropy =      -28.09327690  energy(sigma->0) =      -28.09327690


--------------------------------------------------------------------------------------------------------




--------------------------------------- Iteration      1(  13)  ---------------------------------------


    POTLOK:  cpu time   11.5234: real time   11.5399
    SETDIJ:  cpu time    0.0517: real time    0.0517
     EDDAV:  cpu time    5.3351: real time    5.3436
       DOS:  cpu time    0.0015: real time    0.0015
    CHARGE:  cpu time    1.5543: real time    1.5566
    MIXING:  cpu time    0.3814: real time    0.3819
    --------------------------------------------
      LOOP:  cpu time   18.8473: real time   18.8750

 eigenvalue-minimisations  :    32
 total energy-change (2. order) :-0.3200658E-02  (-0.5581219E-04)
 number of electron      17.9999999 magnetization 
 augmentation part        2.6910242 magnetization 

 Broyden mixing:
  rms(total) = 0.69407E-02    rms(broyden)= 0.69407E-02
  rms(prec ) = 0.79114E-02
  weight for this iteration     100.00

 eigenvalues of (default mixing * dielectric matrix)
  average eigenvalue GAMMA=   1.5373
  3.3130  2.4814  1.5821  1.1794  1.1794  0.7366  0.9134  0.9134

 Free energy of the ion-electron system (eV)
  ---------------------------------------------------
  alpha Z        PSCENC =         0.02234163
  Ewald energy   TEWEN  =       605.80482946
  -Hartree energ DENC   =     -1468.94618488
  -exchange      EXHF   =         0.00000000
  -V(xc)+E(xc)   XCENC  =        74.87920502
  PAW double counting   =      3708.27887760    -3718.82902567
  entropy T*S    EENTRO =        -0.00000000
  eigenvalues    EBANDS =      -266.19580636
  atomic energy  EATOM  =      1036.88928565
  Solvation  Ediel_sol  =         0.00000000
  ---------------------------------------------------
  free energy    TOTEN  =       -28.09647755 eV

  energy without entropy =      -28.09647755  energy(sigma->0) =      -28.09647755


--------------------------------------------------------------------------------------------------------




--------------------------------------- Iteration      1(  14)  ---------------------------------------


    POTLOK:  cpu time   11.4525: real time   11.4689
    SETDIJ:  cpu time    0.0544: real time    0.0544
     EDDAV:  cpu time    7.0523: real time    7.0636
       DOS:  cpu time    0.0009: real time    0.0009
    CHARGE:  cpu time    1.5815: real time    1.5838
    MIXING:  cpu time    0.3619: real time    0.3623
    --------------------------------------------
      LOOP:  cpu time   20.5035: real time   20.5339

 eigenvalue-minimisations  :    48
 total energy-change (2. order) :-0.2498143E-02  (-0.3700743E-04)
 number of electron      17.9999999 magnetization 
 augmentation part        2.6906293 magnetization 

 Broyden mixing:
  rms(total) = 0.39055E-02    rms(broyden)= 0.39055E-02
  rms(prec ) = 0.47660E-02
  weight for this iteration     100.00

 eigenvalues of (default mixing * dielectric matrix)
  average eigenvalue GAMMA=   1.5705
  3.6906  2.5087  1.9388  1.3167  1.0958  1.0958  0.9882  0.7499  0.7499

 Free energy of the ion-electron system (eV)
  ---------------------------------------------------
  alpha Z        PSCENC =         0.02234163
  Ewald energy   TEWEN  =       605.80482946
  -Hartree energ DENC   =     -1469.09526572
  -exchange      EXHF   =         0.00000000
  -V(xc)+E(xc)   XCENC  =        74.87942397
  PAW double counting   =      3705.36785776    -3715.91586849
  entropy T*S    EENTRO =        -0.00000000
  eigenvalues    EBANDS =      -266.05157994
  atomic energy  EATOM  =      1036.88928565
  Solvation  Ediel_sol  =         0.00000000
  ---------------------------------------------------
  free energy    TOTEN  =       -28.09897570 eV

  energy without entropy =      -28.09897570  energy(sigma->0) =      -28.09897570


--------------------------------------------------------------------------------------------------------




--------------------------------------- Iteration      1(  15)  ---------------------------------------


    POTLOK:  cpu time   11.4782: real time   11.4945
    SETDIJ:  cpu time    0.0546: real time    0.0546
     EDDAV:  cpu time    7.1118: real time    7.1259
       DOS:  cpu time    0.0001: real time    0.0001
    CHARGE:  cpu time    1.5684: real time    1.5706
    MIXING:  cpu time    0.3047: real time    0.3051
    --------------------------------------------
      LOOP:  cpu time   20.5178: real time   20.5509

 eigenvalue-minimisations  :    48
 total energy-change (2. order) :-0.2942660E-02  (-0.4033015E-04)
 number of electron      17.9999999 magnetization 
 augmentation part        2.6906765 magnetization 

 Broyden mixing:
  rms(total) = 0.18962E-02    rms(broyden)= 0.18962E-02
  rms(prec ) = 0.25038E-02
  weight for this iteration     100.00

 eigenvalues of (default mixing * dielectric matrix)
  average eigenvalue GAMMA=   1.7945
  5.5917  2.5621  2.5009  1.5463  1.2797  0.9828  0.9828  0.7374  0.8807  0.8807

 Free energy of the ion-electron system (eV)
  ---------------------------------------------------
  alpha Z        PSCENC =         0.02234163
  Ewald energy   TEWEN  =       605.80482946
  -Hartree energ DENC   =     -1469.21077532
  -exchange      EXHF   =         0.00000000
  -V(xc)+E(xc)   XCENC  =        74.87735247
  PAW double counting   =      3704.75292771    -3715.29951547
  entropy T*S    EENTRO =        -0.00000000
  eigenvalues    EBANDS =      -265.93836447
  atomic energy  EATOM  =      1036.88928565
  Solvation  Ediel_sol  =         0.00000000
  ---------------------------------------------------
  free energy    TOTEN  =       -28.10191836 eV

  energy without entropy =      -28.10191836  energy(sigma->0) =      -28.10191836


--------------------------------------------------------------------------------------------------------




--------------------------------------- Iteration      1(  16)  ---------------------------------------


    POTLOK:  cpu time   11.4613: real time   11.4806
    SETDIJ:  cpu time    0.0562: real time    0.0562
     EDDAV:  cpu time    6.2105: real time    6.2204
       DOS:  cpu time    0.0014: real time    0.0014
    CHARGE:  cpu time    1.5887: real time    1.5909
    MIXING:  cpu time    0.3140: real time    0.3145
    --------------------------------------------
      LOOP:  cpu time   19.6321: real time   19.6640

 eigenvalue-minimisations  :    40
 total energy-change (2. order) :-0.1995508E-02  (-0.3521473E-04)
 number of electron      17.9999999 magnetization 
 augmentation part        2.6904816 magnetization 

 Broyden mixing:
  rms(total) = 0.16667E-02    rms(broyden)= 0.16667E-02
  rms(prec ) = 0.18522E-02
  weight for this iteration     100.00

 eigenvalues of (default mixing * dielectric matrix)
  average eigenvalue GAMMA=   1.8594
  6.0968  2.6489  2.6489  1.7790  1.7790  1.0345  1.0345  1.0121  0.7394  0.8401
  0.8401

 Free energy of the ion-electron system (eV)
  ---------------------------------------------------
  alpha Z        PSCENC =         0.02234163
  Ewald energy   TEWEN  =       605.80482946
  -Hartree energ DENC   =     -1469.30262714
  -exchange      EXHF   =         0.00000000
  -V(xc)+E(xc)   XCENC  =        74.87561786
  PAW double counting   =      3704.92923781    -3715.47499779
  entropy T*S    EENTRO =        -0.00000000
  eigenvalues    EBANDS =      -265.84760133
  atomic energy  EATOM  =      1036.88928565
  Solvation  Ediel_sol  =         0.00000000
  ---------------------------------------------------
  free energy    TOTEN  =       -28.10391386 eV

  energy without entropy =      -28.10391386  energy(sigma->0) =      -28.10391386


--------------------------------------------------------------------------------------------------------




--------------------------------------- Iteration      1(  17)  ---------------------------------------


    POTLOK:  cpu time   11.4753: real time   11.4917
    SETDIJ:  cpu time    0.0569: real time    0.0569
     EDDAV:  cpu time    7.0783: real time    7.0902
       DOS:  cpu time    0.0008: real time    0.0008
    CHARGE:  cpu time    1.5789: real time    1.5810
    MIXING:  cpu time    0.3630: real time    0.3639
    --------------------------------------------
      LOOP:  cpu time   20.5531: real time   20.5846

 eigenvalue-minimisations  :    48
 total energy-change (2. order) :-0.9658453E-03  (-0.5747034E-05)
 number of electron      17.9999999 magnetization 
 augmentation part        2.6903416 magnetization 

 Broyden mixing:
  rms(total) = 0.64257E-03    rms(broyden)= 0.64257E-03
  rms(prec ) = 0.80452E-03
  weight for this iteration     100.00

 eigenvalues of (default mixing * dielectric matrix)
  average eigenvalue GAMMA=   1.8727
  6.8656  2.9163  2.4990  1.8907  1.5697  1.2481  1.0693  1.0693  0.7396  0.8855
  0.8855  0.8344

 Free energy of the ion-electron system (eV)
  ---------------------------------------------------
  alpha Z        PSCENC =         0.02234163
  Ewald energy   TEWEN  =       605.80482946
  -Hartree energ DENC   =     -1469.31469511
  -exchange      EXHF   =         0.00000000
  -V(xc)+E(xc)   XCENC  =        74.87440399
  PAW double counting   =      3705.32708201    -3715.87277267
  entropy T*S    EENTRO =        -0.00000000
  eigenvalues    EBANDS =      -265.83535466
  atomic energy  EATOM  =      1036.88928565
  Solvation  Ediel_sol  =         0.00000000
  ---------------------------------------------------
  free energy    TOTEN  =       -28.10487971 eV

  energy without entropy =      -28.10487971  energy(sigma->0) =      -28.10487971


--------------------------------------------------------------------------------------------------------




--------------------------------------- Iteration      1(  18)  ---------------------------------------


    POTLOK:  cpu time   11.4853: real time   11.5015
    SETDIJ:  cpu time    0.0533: real time    0.0534
     EDDAV:  cpu time    7.0907: real time    7.1019
       DOS:  cpu time    0.0011: real time    0.0010
    CHARGE:  cpu time    1.6007: real time    1.6029
    MIXING:  cpu time    0.4202: real time    0.4208
    --------------------------------------------
      LOOP:  cpu time   20.6513: real time   20.6815

 eigenvalue-minimisations  :    48
 total energy-change (2. order) :-0.4546063E-03  (-0.1720394E-05)
 number of electron      17.9999999 magnetization 
 augmentation part        2.6903831 magnetization 

 Broyden mixing:
  rms(total) = 0.48710E-03    rms(broyden)= 0.48710E-03
  rms(prec ) = 0.57702E-03
  weight for this iteration     100.00

 eigenvalues of (default mixing * dielectric matrix)
  average eigenvalue GAMMA=   2.0178
  7.8094  3.5162  2.5345  2.4049  1.6901  1.6901  1.2036  1.0241  1.0241  0.7393
  0.8979  0.8486  0.8486

 Free energy of the ion-electron system (eV)
  ---------------------------------------------------
  alpha Z        PSCENC =         0.02234163
  Ewald energy   TEWEN  =       605.80482946
  -Hartree energ DENC   =     -1469.31237458
  -exchange      EXHF   =         0.00000000
  -V(xc)+E(xc)   XCENC  =        74.87318005
  PAW double counting   =      3704.96598188    -3715.51120694
  entropy T*S    EENTRO =        -0.00000000
  eigenvalues    EBANDS =      -265.83737147
  atomic energy  EATOM  =      1036.88928565
  Solvation  Ediel_sol  =         0.00000000
  ---------------------------------------------------
  free energy    TOTEN  =       -28.10533432 eV

  energy without entropy =      -28.10533432  energy(sigma->0) =      -28.10533432


--------------------------------------------------------------------------------------------------------




--------------------------------------- Iteration      1(  19)  ---------------------------------------


    POTLOK:  cpu time   11.4831: real time   11.4994
    SETDIJ:  cpu time    0.0617: real time    0.0618
     EDDAV:  cpu time    5.3234: real time    5.3321
       DOS:  cpu time    0.0004: real time    0.0004
    CHARGE:  cpu time    1.5663: real time    1.5686
    MIXING:  cpu time    0.3553: real time    0.3559
    --------------------------------------------
      LOOP:  cpu time   18.7903: real time   18.8180

 eigenvalue-minimisations  :    32
 total energy-change (2. order) :-0.4036017E-03  (-0.1452808E-05)
 number of electron      17.9999999 magnetization 
 augmentation part        2.6903508 magnetization 

 Broyden mixing:
  rms(total) = 0.32101E-03    rms(broyden)= 0.32101E-03
  rms(prec ) = 0.35508E-03
  weight for this iteration     100.00

 eigenvalues of (default mixing * dielectric matrix)
  average eigenvalue GAMMA=   2.0442
  8.0315  4.2916  2.5105  2.5105  1.9854  1.6878  1.1997  1.0402  1.0402  0.7395
  0.9417  0.9417  0.8494  0.8494

 Free energy of the ion-electron system (eV)
  ---------------------------------------------------
  alpha Z        PSCENC =         0.02234163
  Ewald energy   TEWEN  =       605.80482946
  -Hartree energ DENC   =     -1469.31151904
  -exchange      EXHF   =         0.00000000
  -V(xc)+E(xc)   XCENC  =        74.87260801
  PAW double counting   =      3704.97280614    -3715.51811210
  entropy T*S    EENTRO =        -0.00000000
  eigenvalues    EBANDS =      -265.83797768
  atomic energy  EATOM  =      1036.88928565
  Solvation  Ediel_sol  =         0.00000000
  ---------------------------------------------------
  free energy    TOTEN  =       -28.10573792 eV

  energy without entropy =      -28.10573792  energy(sigma->0) =      -28.10573792


--------------------------------------------------------------------------------------------------------




--------------------------------------- Iteration      1(  20)  ---------------------------------------


    POTLOK:  cpu time   11.4772: real time   11.4935
    SETDIJ:  cpu time    0.0518: real time    0.0518
     EDDAV:  cpu time    7.0934: real time    7.1046
       DOS:  cpu time    0.0012: real time    0.0012
    CHARGE:  cpu time    1.6253: real time    1.6275
    MIXING:  cpu time    0.3722: real time    0.3729
    --------------------------------------------
      LOOP:  cpu time   20.6210: real time   20.6516

 eigenvalue-minimisations  :    48
 total energy-change (2. order) :-0.1449192E-03  (-0.2891315E-06)
 number of electron      17.9999999 magnetization 
 augmentation part        2.6903364 magnetization 

 Broyden mixing:
  rms(total) = 0.20496E-03    rms(broyden)= 0.20496E-03
  rms(prec ) = 0.22531E-03
  weight for this iteration     100.00

 eigenvalues of (default mixing * dielectric matrix)
  average eigenvalue GAMMA=   2.1038
  8.6671  4.8442  2.8883  2.5196  1.7206  1.7098  1.7098  1.2171  1.0084  1.0084
  0.7395  0.9590  0.8607  0.8520  0.8520

 Free energy of the ion-electron system (eV)
  ---------------------------------------------------
  alpha Z        PSCENC =         0.02234163
  Ewald energy   TEWEN  =       605.80482946
  -Hartree energ DENC   =     -1469.30854109
  -exchange      EXHF   =         0.00000000
  -V(xc)+E(xc)   XCENC  =        74.87237304
  PAW double counting   =      3704.99333565    -3715.53873523
  entropy T*S    EENTRO =        -0.00000000
  eigenvalues    EBANDS =      -265.84077195
  atomic energy  EATOM  =      1036.88928565
  Solvation  Ediel_sol  =         0.00000000
  ---------------------------------------------------
  free energy    TOTEN  =       -28.10588284 eV

  energy without entropy =      -28.10588284  energy(sigma->0) =      -28.10588284


--------------------------------------------------------------------------------------------------------




--------------------------------------- Iteration      1(  21)  ---------------------------------------


    POTLOK:  cpu time   11.4742: real time   11.4906
    SETDIJ:  cpu time    0.0544: real time    0.0544
     EDDAV:  cpu time    7.0748: real time    7.0861
       DOS:  cpu time    0.0017: real time    0.0017
    CHARGE:  cpu time    1.5875: real time    1.5899
    MIXING:  cpu time    0.4731: real time    0.4738
    --------------------------------------------
      LOOP:  cpu time   20.6657: real time   20.6965

 eigenvalue-minimisations  :    48
 total energy-change (2. order) :-0.8928683E-04  (-0.9401932E-07)
 number of electron      17.9999999 magnetization 
 augmentation part        2.6903637 magnetization 

 Broyden mixing:
  rms(total) = 0.10939E-03    rms(broyden)= 0.10939E-03
  rms(prec ) = 0.12185E-03
  weight for this iteration     100.00

 eigenvalues of (default mixing * dielectric matrix)
  average eigenvalue GAMMA=   2.1691
  9.0854  5.2663  3.2417  2.5323  2.5323  1.8360  1.8360  1.1032  1.1032  0.9700
  0.9700  0.7393  0.8845  0.8845  0.8609  0.8609

 Free energy of the ion-electron system (eV)
  ---------------------------------------------------
  alpha Z        PSCENC =         0.02234163
  Ewald energy   TEWEN  =       605.80482946
  -Hartree energ DENC   =     -1469.30676091
  -exchange      EXHF   =         0.00000000
  -V(xc)+E(xc)   XCENC  =        74.87216406
  PAW double counting   =      3704.95500135    -3715.50026494
  entropy T*S    EENTRO =        -0.00000000
  eigenvalues    EBANDS =      -265.84256842
  atomic energy  EATOM  =      1036.88928565
  Solvation  Ediel_sol  =         0.00000000
  ---------------------------------------------------
  free energy    TOTEN  =       -28.10597212 eV

  energy without entropy =      -28.10597212  energy(sigma->0) =      -28.10597212


--------------------------------------------------------------------------------------------------------




--------------------------------------- Iteration      1(  22)  ---------------------------------------


    POTLOK:  cpu time   11.4628: real time   11.4789
    SETDIJ:  cpu time    0.0539: real time    0.0540
     EDDAV:  cpu time    5.3980: real time    5.4075
       DOS:  cpu time    0.0007: real time    0.0007
    CHARGE:  cpu time    1.5830: real time    1.5853
    MIXING:  cpu time    0.4034: real time    0.4041
    --------------------------------------------
      LOOP:  cpu time   18.9019: real time   18.9305

 eigenvalue-minimisations  :    32
 total energy-change (2. order) :-0.5647350E-04  (-0.5216235E-07)
 number of electron      17.9999999 magnetization 
 augmentation part        2.6903488 magnetization 

 Broyden mixing:
  rms(total) = 0.65001E-04    rms(broyden)= 0.65001E-04
  rms(prec ) = 0.70139E-04
  weight for this iteration     100.00

 eigenvalues of (default mixing * dielectric matrix)
  average eigenvalue GAMMA=   2.1537
  8.9985  5.7301  3.3926  2.7221  2.4729  1.7822  1.5873  1.5873  1.1080  1.1080
  0.9830  0.9830  0.7394  0.8598  0.8598  0.8497  0.8497

 Free energy of the ion-electron system (eV)
  ---------------------------------------------------
  alpha Z        PSCENC =         0.02234163
  Ewald energy   TEWEN  =       605.80482946
  -Hartree energ DENC   =     -1469.30771055
  -exchange      EXHF   =         0.00000000
  -V(xc)+E(xc)   XCENC  =        74.87215193
  PAW double counting   =      3704.99644837    -3715.54180785
  entropy T*S    EENTRO =        -0.00000000
  eigenvalues    EBANDS =      -265.84156723
  atomic energy  EATOM  =      1036.88928565
  Solvation  Ediel_sol  =         0.00000000
  ---------------------------------------------------
  free energy    TOTEN  =       -28.10602860 eV

  energy without entropy =      -28.10602860  energy(sigma->0) =      -28.10602860


--------------------------------------------------------------------------------------------------------




--------------------------------------- Iteration      1(  23)  ---------------------------------------


    POTLOK:  cpu time   11.4439: real time   11.4612
    SETDIJ:  cpu time    0.0642: real time    0.0643
     EDDAV:  cpu time    6.2285: real time    6.2384
       DOS:  cpu time    0.0019: real time    0.0019
    CHARGE:  cpu time    1.5740: real time    1.5763
    MIXING:  cpu time    0.5164: real time    0.5171
    --------------------------------------------
      LOOP:  cpu time   19.8291: real time   19.8593

 eigenvalue-minimisations  :    40
 total energy-change (2. order) :-0.1712135E-04  (-0.9304099E-08)
 number of electron      17.9999999 magnetization 
 augmentation part        2.6903542 magnetization 

 Broyden mixing:
  rms(total) = 0.45218E-04    rms(broyden)= 0.45218E-04
  rms(prec ) = 0.48536E-04
  weight for this iteration     100.00

 eigenvalues of (default mixing * dielectric matrix)
  average eigenvalue GAMMA=   2.1390
  9.1923  5.9572  3.7904  2.7039  2.5030  1.8702  1.8702  1.5107  1.1081  1.1081
  0.9962  0.9962  0.7394  0.8471  0.8365  0.8365  0.8182  0.8182

 Free energy of the ion-electron system (eV)
  ---------------------------------------------------
  alpha Z        PSCENC =         0.02234163
  Ewald energy   TEWEN  =       605.80482946
  -Hartree energ DENC   =     -1469.30702854
  -exchange      EXHF   =         0.00000000
  -V(xc)+E(xc)   XCENC  =        74.87210346
  PAW double counting   =      3704.99618594    -3715.54152395
  entropy T*S    EENTRO =        -0.00000000
  eigenvalues    EBANDS =      -265.84223936
  atomic energy  EATOM  =      1036.88928565
  Solvation  Ediel_sol  =         0.00000000
  ---------------------------------------------------
  free energy    TOTEN  =       -28.10604572 eV

  energy without entropy =      -28.10604572  energy(sigma->0) =      -28.10604572


--------------------------------------------------------------------------------------------------------




--------------------------------------- Iteration      1(  24)  ---------------------------------------


    POTLOK:  cpu time   11.4278: real time   11.4441
    SETDIJ:  cpu time    0.0521: real time    0.0521
     EDDAV:  cpu time    4.4537: real time    4.4606
       DOS:  cpu time    0.0029: real time    0.0029
    CHARGE:  cpu time    1.5724: real time    1.5747
    MIXING:  cpu time    0.4209: real time    0.4216
    --------------------------------------------
      LOOP:  cpu time   17.9297: real time   17.9561

 eigenvalue-minimisations  :    24
 total energy-change (2. order) :-0.9312938E-05  (-0.4808292E-08)
 number of electron      17.9999999 magnetization 
 augmentation part        2.6903516 magnetization 

 Broyden mixing:
  rms(total) = 0.29163E-04    rms(broyden)= 0.29163E-04
  rms(prec ) = 0.31469E-04
  weight for this iteration     100.00

 eigenvalues of (default mixing * dielectric matrix)
  average eigenvalue GAMMA=   2.1752
  9.5065  6.2593  4.2288  2.7329  2.7329  2.3226  1.9601  1.7682  1.0661  1.0661
  0.9369  0.9369  1.0179  0.7394  0.8493  0.8493  0.8636  0.8636  0.6281

 Free energy of the ion-electron system (eV)
  ---------------------------------------------------
  alpha Z        PSCENC =         0.02234163
  Ewald energy   TEWEN  =       605.80482946
  -Hartree energ DENC   =     -1469.30770738
  -exchange      EXHF   =         0.00000000
  -V(xc)+E(xc)   XCENC  =        74.87212421
  PAW double counting   =      3704.98640714    -3715.53174256
  entropy T*S    EENTRO =        -0.00000000
  eigenvalues    EBANDS =      -265.84159316
  atomic energy  EATOM  =      1036.88928565
  Solvation  Ediel_sol  =         0.00000000
  ---------------------------------------------------
  free energy    TOTEN  =       -28.10605503 eV

  energy without entropy =      -28.10605503  energy(sigma->0) =      -28.10605503


--------------------------------------------------------------------------------------------------------




--------------------------------------- Iteration      1(  25)  ---------------------------------------


    POTLOK:  cpu time   11.3917: real time   11.4083
    SETDIJ:  cpu time    0.0549: real time    0.0549
     EDDAV:  cpu time    4.4386: real time    4.4466
       DOS:  cpu time    0.0014: real time    0.0014
    CHARGE:  cpu time    1.5778: real time    1.5801
    MIXING:  cpu time    0.4372: real time    0.4379
    --------------------------------------------
      LOOP:  cpu time   17.9015: real time   17.9292

 eigenvalue-minimisations  :    24
 total energy-change (2. order) :-0.7924882E-05  (-0.4051360E-08)
 number of electron      17.9999999 magnetization 
 augmentation part        2.6903519 magnetization 

 Broyden mixing:
  rms(total) = 0.29326E-04    rms(broyden)= 0.29326E-04
  rms(prec ) = 0.30092E-04
  weight for this iteration     100.00

 eigenvalues of (default mixing * dielectric matrix)
  average eigenvalue GAMMA=   2.1490
  9.4632  6.5195  4.4333  2.8385  2.6913  2.4281  1.8482  1.8482  1.1818  1.1818
  0.9916  0.9916  1.0299  0.8592  0.8592  0.7393  0.8966  0.8397  0.8397  0.4998

 Free energy of the ion-electron system (eV)
  ---------------------------------------------------
  alpha Z        PSCENC =         0.02234163
  Ewald energy   TEWEN  =       605.80482946
  -Hartree energ DENC   =     -1469.30808265
  -exchange      EXHF   =         0.00000000
  -V(xc)+E(xc)   XCENC  =        74.87212827
  PAW double counting   =      3704.99996890    -3715.54529038
  entropy T*S    EENTRO =        -0.00000000
  eigenvalues    EBANDS =      -265.84124384
  atomic energy  EATOM  =      1036.88928565
  Solvation  Ediel_sol  =         0.00000000
  ---------------------------------------------------
  free energy    TOTEN  =       -28.10606296 eV

  energy without entropy =      -28.10606296  energy(sigma->0) =      -28.10606296


--------------------------------------------------------------------------------------------------------




--------------------------------------- Iteration      1(  26)  ---------------------------------------


    POTLOK:  cpu time   11.4339: real time   11.4504
    SETDIJ:  cpu time    0.0521: real time    0.0522
     EDDAV:  cpu time    6.2397: real time    6.2495
       DOS:  cpu time    0.0028: real time    0.0028
    CHARGE:  cpu time    1.5858: real time    1.5880
    MIXING:  cpu time    0.4670: real time    0.4678
    --------------------------------------------
      LOOP:  cpu time   19.7814: real time   19.8107

 eigenvalue-minimisations  :    40
 total energy-change (2. order) :-0.2619342E-05  (-0.1658467E-08)
 number of electron      17.9999999 magnetization 
 augmentation part        2.6903514 magnetization 

 Broyden mixing:
  rms(total) = 0.13743E-04    rms(broyden)= 0.13743E-04
  rms(prec ) = 0.14588E-04
  weight for this iteration     100.00

 eigenvalues of (default mixing * dielectric matrix)
  average eigenvalue GAMMA=   2.1335
  9.5316  6.6460  4.6295  3.0820  2.5892  2.4666  1.8213  1.8213  1.3124  1.3124
  1.0447  1.0447  1.0100  1.0100  0.7395  0.8804  0.8804  0.8507  0.8507  0.8047
  0.4750

 Free energy of the ion-electron system (eV)
  ---------------------------------------------------
  alpha Z        PSCENC =         0.02234163
  Ewald energy   TEWEN  =       605.80482946
  -Hartree energ DENC   =     -1469.30808977
  -exchange      EXHF   =         0.00000000
  -V(xc)+E(xc)   XCENC  =        74.87212608
  PAW double counting   =      3704.99487315    -3715.54019411
  entropy T*S    EENTRO =        -0.00000000
  eigenvalues    EBANDS =      -265.84123766
  atomic energy  EATOM  =      1036.88928565
  Solvation  Ediel_sol  =         0.00000000
  ---------------------------------------------------
  free energy    TOTEN  =       -28.10606558 eV

  energy without entropy =      -28.10606558  energy(sigma->0) =      -28.10606558


--------------------------------------------------------------------------------------------------------




--------------------------------------- Iteration      1(  27)  ---------------------------------------


    POTLOK:  cpu time   11.4156: real time   11.4316
    SETDIJ:  cpu time    0.0541: real time    0.0541
     EDDAV:  cpu time    4.5003: real time    4.5072
       DOS:  cpu time    0.0007: real time    0.0007
    CHARGE:  cpu time    1.5800: real time    1.5821
    MIXING:  cpu time    0.4834: real time    0.4841
    --------------------------------------------
      LOOP:  cpu time   18.0340: real time   18.0599

 eigenvalue-minimisations  :    24
 total energy-change (2. order) :-0.2022170E-05  (-0.1175687E-08)
 number of electron      17.9999999 magnetization 
 augmentation part        2.6903524 magnetization 

 Broyden mixing:
  rms(total) = 0.97039E-05    rms(broyden)= 0.97039E-05
  rms(prec ) = 0.10264E-04
  weight for this iteration     100.00

 eigenvalues of (default mixing * dielectric matrix)
  average eigenvalue GAMMA=   2.1605
  9.6003  6.8274  4.8316  3.1921  2.6005  2.6005  2.4520  1.7635  1.7635  1.1956
  1.1956  0.9932  0.9932  1.0402  1.0402  0.8624  0.8624  0.8664  0.8664  0.7395
  0.7825  0.4621

 Free energy of the ion-electron system (eV)
  ---------------------------------------------------
  alpha Z        PSCENC =         0.02234163
  Ewald energy   TEWEN  =       605.80482946
  -Hartree energ DENC   =     -1469.30809291
  -exchange      EXHF   =         0.00000000
  -V(xc)+E(xc)   XCENC  =        74.87212335
  PAW double counting   =      3704.99530217    -3715.54062423
  entropy T*S    EENTRO =        -0.00000000
  eigenvalues    EBANDS =      -265.84123271
  atomic energy  EATOM  =      1036.88928565
  Solvation  Ediel_sol  =         0.00000000
  ---------------------------------------------------
  free energy    TOTEN  =       -28.10606760 eV

  energy without entropy =      -28.10606760  energy(sigma->0) =      -28.10606760


--------------------------------------------------------------------------------------------------------




--------------------------------------- Iteration      1(  28)  ---------------------------------------


    POTLOK:  cpu time   11.4435: real time   11.4598
    SETDIJ:  cpu time    0.0542: real time    0.0542
     EDDAV:  cpu time    5.3753: real time    5.3839
       DOS:  cpu time    0.0002: real time    0.0002
    CHARGE:  cpu time    1.6264: real time    1.6286
    MIXING:  cpu time    0.5176: real time    0.5184
    --------------------------------------------
      LOOP:  cpu time   19.0172: real time   19.0452

 eigenvalue-minimisations  :    32
 total energy-change (2. order) :-0.1754958E-05  (-0.9604140E-09)
 number of electron      17.9999999 magnetization 
 augmentation part        2.6903520 magnetization 

 Broyden mixing:
  rms(total) = 0.85227E-05    rms(broyden)= 0.85227E-05
  rms(prec ) = 0.87142E-05
  weight for this iteration     100.00

 eigenvalues of (default mixing * dielectric matrix)
  average eigenvalue GAMMA=   2.2030
  9.6442  7.0669  5.1111  3.7174  3.0666  2.4669  2.4669  1.9643  1.9643  1.5250
  1.3253  1.0772  1.0772  0.9834  0.9834  0.9112  0.8291  0.8291  0.8456  0.8456
  0.7395  0.7697  0.4585

 Free energy of the ion-electron system (eV)
  ---------------------------------------------------
  alpha Z        PSCENC =         0.02234163
  Ewald energy   TEWEN  =       605.80482946
  -Hartree energ DENC   =     -1469.30812750
  -exchange      EXHF   =         0.00000000
  -V(xc)+E(xc)   XCENC  =        74.87212481
  PAW double counting   =      3704.99209759    -3715.53742506
  entropy T*S    EENTRO =        -0.00000000
  eigenvalues    EBANDS =      -265.84119593
  atomic energy  EATOM  =      1036.88928565
  Solvation  Ediel_sol  =         0.00000000
  ---------------------------------------------------
  free energy    TOTEN  =       -28.10606935 eV

  energy without entropy =      -28.10606935  energy(sigma->0) =      -28.10606935


--------------------------------------------------------------------------------------------------------




--------------------------------------- Iteration      1(  29)  ---------------------------------------


    POTLOK:  cpu time   11.4608: real time   11.4772
    SETDIJ:  cpu time    0.0520: real time    0.0520
     EDDAV:  cpu time    4.5053: real time    4.5152
       DOS:  cpu time    0.0004: real time    0.0004
    CHARGE:  cpu time    1.5786: real time    1.5810
    MIXING:  cpu time    0.5414: real time    0.5422
    --------------------------------------------
      LOOP:  cpu time   18.1385: real time   18.1680

 eigenvalue-minimisations  :    24
 total energy-change (2. order) :-0.7179217E-06  (-0.7257821E-09)
 number of electron      17.9999999 magnetization 
 augmentation part        2.6903523 magnetization 

 Broyden mixing:
  rms(total) = 0.38908E-05    rms(broyden)= 0.38908E-05
  rms(prec ) = 0.40115E-05
  weight for this iteration     100.00

 eigenvalues of (default mixing * dielectric matrix)
  average eigenvalue GAMMA=   2.2189
  9.6881  7.2909  5.4411  3.9934  3.2883  2.5727  2.3585  2.3585  1.7965  1.7965
  1.1962  1.1962  1.1930  0.9830  0.9830  0.9431  0.8569  0.8569  0.8570  0.8570
  0.7395  0.7743  0.7743  0.4578

 Free energy of the ion-electron system (eV)
  ---------------------------------------------------
  alpha Z        PSCENC =         0.02234163
  Ewald energy   TEWEN  =       605.80482946
  -Hartree energ DENC   =     -1469.30809537
  -exchange      EXHF   =         0.00000000
  -V(xc)+E(xc)   XCENC  =        74.87212323
  PAW double counting   =      3704.99335382    -3715.53868002
  entropy T*S    EENTRO =        -0.00000000
  eigenvalues    EBANDS =      -265.84122846
  atomic energy  EATOM  =      1036.88928565
  Solvation  Ediel_sol  =         0.00000000
  ---------------------------------------------------
  free energy    TOTEN  =       -28.10607007 eV

  energy without entropy =      -28.10607007  energy(sigma->0) =      -28.10607007


--------------------------------------------------------------------------------------------------------




--------------------------------------- Iteration      1(  30)  ---------------------------------------


    POTLOK:  cpu time   11.4234: real time   11.4397
    SETDIJ:  cpu time    0.0546: real time    0.0546
     EDDAV:  cpu time    6.2275: real time    6.2373
       DOS:  cpu time    0.0001: real time    0.0001
    CHARGE:  cpu time    1.5870: real time    1.5892
    MIXING:  cpu time    0.5533: real time    0.5542
    --------------------------------------------
      LOOP:  cpu time   19.8459: real time   19.8751

 eigenvalue-minimisations  :    40
 total energy-change (2. order) :-0.2847098E-06  (-0.5241620E-09)
 number of electron      17.9999999 magnetization 
 augmentation part        2.6903521 magnetization 

 Broyden mixing:
  rms(total) = 0.27688E-05    rms(broyden)= 0.27688E-05
  rms(prec ) = 0.28298E-05
  weight for this iteration     100.00

 eigenvalues of (default mixing * dielectric matrix)
  average eigenvalue GAMMA=   2.1878
  9.7226  7.4632  5.5845  4.1350  3.2126  2.6387  2.3128  2.3128  1.7973  1.7973
  1.2910  1.1965  1.1965  0.9808  0.9808  0.9561  0.9254  0.9254  0.8436  0.8436
  0.8315  0.8315  0.7392  0.7197  0.4572

 Free energy of the ion-electron system (eV)
  ---------------------------------------------------
  alpha Z        PSCENC =         0.02234163
  Ewald energy   TEWEN  =       605.80482946
  -Hartree energ DENC   =     -1469.30804360
  -exchange      EXHF   =         0.00000000
  -V(xc)+E(xc)   XCENC  =        74.87211999
  PAW double counting   =      3704.99246851    -3715.53779304
  entropy T*S    EENTRO =        -0.00000000
  eigenvalues    EBANDS =      -265.84127896
  atomic energy  EATOM  =      1036.88928565
  Solvation  Ediel_sol  =         0.00000000
  ---------------------------------------------------
  free energy    TOTEN  =       -28.10607036 eV

  energy without entropy =      -28.10607036  energy(sigma->0) =      -28.10607036


--------------------------------------------------------------------------------------------------------




--------------------------------------- Iteration      1(  31)  ---------------------------------------


    POTLOK:  cpu time   11.4074: real time   11.4236
    SETDIJ:  cpu time    0.0556: real time    0.0556
     EDDAV:  cpu time    6.2691: real time    6.2792
       DOS:  cpu time    0.0007: real time    0.0007
    --------------------------------------------
      LOOP:  cpu time   17.7328: real time   17.7591

 eigenvalue-minimisations  :    40
 total energy-change (2. order) :-0.8178654E-07  (-0.4671072E-09)
 number of electron      17.9999999 magnetization 
 augmentation part        2.6903521 magnetization 

 Free energy of the ion-electron system (eV)
  ---------------------------------------------------
  alpha Z        PSCENC =         0.02234163
  Ewald energy   TEWEN  =       605.80482946
  -Hartree energ DENC   =     -1469.30803804
  -exchange      EXHF   =         0.00000000
  -V(xc)+E(xc)   XCENC  =        74.87211976
  PAW double counting   =      3704.99282958    -3715.53815469
  entropy T*S    EENTRO =        -0.00000000
  eigenvalues    EBANDS =      -265.84128378
  atomic energy  EATOM  =      1036.88928565
  Solvation  Ediel_sol  =         0.00000000
  ---------------------------------------------------
  free energy    TOTEN  =       -28.10607044 eV

  energy without entropy =      -28.10607044  energy(sigma->0) =      -28.10607044


--------------------------------------------------------------------------------------------------------




 average (electrostatic) potential at core
  the test charge radii are     0.6256  0.8471  0.8742
  (the norm of the test charge is              1.0000)
       1 -41.3374       2 -41.2728       3 -87.0181       4 -90.6102       5 -94.2092
 
 
 
 E-fermi :  -7.0833     XC(G=0):  -0.0367     alpha+bet : -0.0076


 k-point     1 :       0.0000    0.0000    0.0000
  band No.  band energies     occupation 
      1     -29.9994      2.00000
      2     -25.3878      2.00000
      3     -14.4803      2.00000
      4     -13.0279      2.00000
      5     -12.2356      2.00000
      6     -12.2334      2.00000
      7      -9.3197      2.00000
      8      -9.0976      2.00000
      9      -7.1389      2.00000
     10      -2.5788      0.00000
     11      -2.5762      0.00000
     12      -0.8887      0.00000
     13      -0.0213      0.00000
     14       0.0280      0.00000
     15       0.1024      0.00000
     16       0.1039      0.00000


--------------------------------------------------------------------------------------------------------


 soft charge-density along one line, spin component            1
         0         1         2         3         4         5         6         7         8         9
 total charge-density along one line
 
 pseudopotential strength for first ion, spin component:            1
 -2.339  -3.713  -0.007  -0.024   0.001
 -3.713  -5.726  -0.014  -0.047   0.001
 -0.007  -0.014  -0.124   0.008  -0.000
 -0.024  -0.047   0.008  -0.097  -0.001
  0.001   0.001  -0.000  -0.001  -0.129
 total augmentation occupancy for first ion, spin component:            1
  2.827  -0.512   0.262   1.013  -0.030
 -0.512   0.212  -0.018  -0.122   0.004
  0.262  -0.018   0.090   0.089  -0.003
  1.013  -0.122   0.089   0.401  -0.009
 -0.030   0.004  -0.003  -0.009   0.103


------------------------ aborting loop because EDIFF is reached ----------------------------------------



 DIPCOR: dipole corrections for dipol
 direction  1 min pos   352, direction  2 min pos   407, direction  3 min pos   387,
 dipolmoment          -0.012491     -0.260460      0.304139 electrons x Angstroem
 Tr[quadrupol]         8.259784

 energy correction for charged system         0.000000 eV
 dipol+quadrupol energy correction            0.000113 eV
 added-field ion interaction          0.000000 eV  (added to PSCEN)

 
  *************** adding dipol energy to TOTEN NOW **************** 
    CHARGE:  cpu time    1.5884: real time    1.5907
    FORLOC:  cpu time    0.5626: real time    0.5632
    FORNL :  cpu time    0.1625: real time    0.1628
    STRESS:  cpu time    2.7730: real time    2.7773
    FORHAR:  cpu time    3.3204: real time    3.3252
    MIXING:  cpu time    0.5764: real time    0.5773
    OFIELD:  cpu time    0.0000: real time    0.0000

  FORCE on cell =-STRESS in cart. coord.  units (eV):
  Direction    XX          YY          ZZ          XY          YZ          ZX
  --------------------------------------------------------------------------------------
  Alpha Z     0.02234     0.02234     0.02234
  Ewald     -63.29011   642.96720    26.12720     6.85362    32.25110    -2.58817
  Hartree   351.71612   750.01964   367.57227     2.82823     8.65469    -0.45518
  E(xc)     -79.83296   -78.22081   -79.46976     0.02439     0.08883    -0.01080
  Local    -644.64991 -1688.83579  -720.81274    -9.02173   -32.88188     2.19007
  n-local    60.08738    45.70859    55.92484    -0.22623    -0.51119     0.13003
  augment    91.32473    84.57849    85.73239    -0.03766    -1.49392     0.16445
  Kinetic   284.62393   251.28464   266.51399    -0.30778    -5.55070     0.52382
  Fock        0.00000     0.00000     0.00000     0.00000     0.00000     0.00000
  -------------------------------------------------------------------------------------
  Total       0.00153     7.52431     1.61053     0.11284     0.55693    -0.04578
  in kB       0.00006     0.28117     0.06018     0.00422     0.02081    -0.00171
  external pressure =        0.11 kB  Pullay stress =        0.00 kB


 VOLUME and BASIS-vectors are now :
 -----------------------------------------------------------------------------
  energy-cutoff  :     1000.00
  volume of cell :    42875.00
      direct lattice vectors                 reciprocal lattice vectors
    35.000000000  0.000000000  0.000000000     0.028571429  0.000000000  0.000000000
     0.000000000 35.000000000  0.000000000     0.000000000  0.028571429  0.000000000
     0.000000000  0.000000000 35.000000000     0.000000000  0.000000000  0.028571429

  length of vectors
    35.000000000 35.000000000 35.000000000     0.028571429  0.028571429  0.028571429


 FORCES acting on ions
    electron-ion (+dipol)            ewald-force                    non-local-force                 convergence-correction
 -----------------------------------------------------------------------------------------------
   -.250E+01 0.328E+02 0.870E+02   0.276E+01 -.356E+02 -.962E+02   -.216E+00 0.217E+01 0.745E+01   -.889E-09 0.252E-06 -.373E-06
   -.991E+00 -.719E+02 -.327E+01   0.109E+01 0.816E+02 0.370E+01   -.871E-01 -.780E+01 -.266E+00   -.876E-08 0.607E-06 0.562E-07
   -.444E+01 -.250E+03 0.363E-01   0.516E+01 0.288E+03 -.124E+00   -.627E+00 -.330E+02 0.821E-01   -.869E-07 -.256E-05 0.142E-05
   0.174E+01 0.851E+02 -.369E+02   -.402E+01 -.127E+03 0.907E+02   0.221E+01 0.403E+02 -.522E+02   -.569E-07 0.247E-05 -.212E-06
   0.353E+01 0.131E+03 -.158E+01   -.500E+01 -.207E+03 0.186E+01   0.138E+01 0.712E+02 -.274E+00   -.438E-06 -.198E-04 0.298E-05
 -----------------------------------------------------------------------------------------------
   -.266E+01 -.730E+02 0.452E+02   0.000E+00 0.284E-13 0.198E-13   0.266E+01 0.730E+02 -.452E+02   -.592E-06 -.190E-04 0.386E-05
 
 
 POSITION                                       TOTAL-FORCE (eV/Angst)
 -----------------------------------------------------------------------------------
      0.02749      1.74109     34.06848         0.048883     -0.612829     -1.731856
      0.01191      2.93850     34.99851         0.015746      1.886153      0.164136
      0.02959      6.67724     34.99666         0.093266      4.980560     -0.005476
      0.00000      1.97721      0.00000        -0.065505     -1.244219      1.568641
      0.00801      5.53849     34.99892        -0.092390     -5.009666      0.004555
 -----------------------------------------------------------------------------------
    total drift:                                0.000055     -0.000789     -0.000119


--------------------------------------------------------------------------------------------------------



  FREE ENERGIE OF THE ION-ELECTRON SYSTEM (eV)
  ---------------------------------------------------
  free  energy   TOTEN  =       -28.10595754 eV

  energy  without entropy=      -28.10595754  energy(sigma->0) =      -28.10595754
 


--------------------------------------------------------------------------------------------------------


    POTLOK:  cpu time   11.4913: real time   11.5074


--------------------------------------------------------------------------------------------------------


 writing wavefunctions
     LOOP+:  cpu time  939.6785: real time  943.3767
    4ORBIT:  cpu time    0.0000: real time    0.0000

 total amount of memory used by VASP MPI-rank0  1850337. kBytes
=======================================================================

   base      :      30000. kBytes
   nonl-proj :      52334. kBytes
   fftplans  :     601440. kBytes
   grid      :    1154248. kBytes
   one-center:          1. kBytes
   wavefun   :      12314. kBytes
 
  
  
 General timing and accounting informations for this job:
 ========================================================
  
                  Total CPU time used (sec):     1335.757
                            User time (sec):     1290.688
                          System time (sec):       45.069
                         Elapsed time (sec):     1347.363
  
                   Maximum memory used (kb):     2293232.
                   Average memory used (kb):           0.
  
                          Minor page faults:     25944480
                          Major page faults:          250
                 Voluntary context switches:        18575
