
 Primary working directories    : /scratch/sirous/43204/molpro.2CnkQ3gSwB
 Secondary working directories  : /scratch/sirous/43204/molpro.2CnkQ3gSwB
 Wavefunction directory         : /scratch/sirous/43204/
 Main file repository           : /scratch/sirous/43204/molpro.2CnkQ3gSwB/

 id        : karlovklimes

 Nodes                      nprocs
 nc-09.cc.karlov.mff.cuni.cz    4

 Using customized tuning parameters: mindgm=1; mindgv=20; mindgc=4; mindgr=1; noblas=0; minvec=7
 default implementation of scratch files=sf  


 Variables initialized (934), CPU time= 0.01 sec
 ***,CH3C6H4CN+CF3CN+BF3
 memory,500,m
 gdirect
 gthresh,energy=1.d-8,twoint=1.d-15,oneint=1.d-15,zero=1.d-15,orbital=1.d-8,grid=1.d-8
 symmetry,nosym
 geomtyp=xyz
                                                                                 ! Geometry
 geometry={
 O1        -0.525329794    -0.050971084     -0.314516861
 H1        -0.942006633    0.747901631     0.011252816
 H2        0.403696525    0.059785981     -0.073568368
 O2        4.121324626111177    0.03202405861875355     0.20905602800845152
 H3        4.489307450111176    -0.5400533443812464     0.8865843550084516
 C1        4.586329697111177    -0.4396058573812464     -1.0531030819915486
 H4        4.155512602111177    0.21148783361875353     -1.8062171139915484
 H5        5.6722933841111765    -0.38881299638124645     -1.1274150099915485
 H6        4.257987079111176    -1.4594753543812464     -1.2521837159915485
 }
 
 
 
 basis=avdz
 
 
 
                                                                                 ! Dimer Calculation
 {rhf,accu=1.d-8;orbital,2101.2}
 eab_HF=energy
 
 
                                                                                 !monomer A
 dummy,4,5,6,7,8,9;                                                              ! NOW MONOMER B IS DUMMY
 {rhf,accu=1.d-8;orbital,2201.2}
 ea_HF=energy
                                                                                 !monomer B
 dummy,1,2,3;                                                                    !NOW MONOMER A IS DUMMY
 {rhf,accu=1.d-8;orbital,2301.2}
 eb_HF=energy
 
 E_AB_int=eab_HF-ea_HF-eb_HF
 
 
 text,results in hartree
 show,E_AB_int
 
 Commands  initialized (763), CPU time= 0.02 sec, 617 directives.
 Default parameters read. Elapsed time= 0.23 sec

 Checking input...
 Passed
1


                                         ***  PROGRAM SYSTEM MOLPRO  ***
                                       Copyright, TTI GmbH Stuttgart, 2015
                                    Version 2019.2 linked Jun  8 2019 11:26:33


 **********************************************************************************************************************************
 LABEL *   CH3C6H4CN+CF3CN+BF3                                                           
  64 bit mpp version                                                                     DATE: 06-Oct-19          TIME: 18:41:48  
 **********************************************************************************************************************************

 SHA1:             8135a10abc80eafa5b3ae28ffc55be4890dc4c84
 **********************************************************************************************************************************

 THRESHOLDS:

 ZERO    =  1.00D-15  ONEINT  =  1.00D-15  TWOINT  =  1.00D-15  PREFAC  =  1.00D-14  XXXXXX  =  1.00D-09  EORDER  =  1.00D-04
 ENERGY  =  1.00D-08  ETEST   =  0.00D+00  EDENS   =  0.00D+00  THRDEDEF=  1.00D-06  GRADIENT=  1.00D-02  STEP    =  1.00D-03
 ORBITAL =  1.00D-08  CIVEC   =  1.00D-05  COEFF   =  1.00D-04  PRINTCI =  5.00D-02  PUNCHCI =  9.90D+01  OPTGRAD =  3.00D-04
 OPTENERG=  1.00D-06  OPTSTEP =  3.00D-04  THRGRAD =  1.00D-10  COMPRESS=  1.00D-11  VARMIN  =  1.00D-07  VARMAX  =  1.00D-03
 THRDOUB =  0.00D+00  THRDIV  =  1.00D-05  THRRED  =  1.00D-07  THRPSP  =  1.00D+00  THRDC   =  1.00D-10  THRCS   =  1.00D-10
 THRNRM  =  1.00D-08  THREQ   =  0.00D+00  THRDE   =  1.00D+00  THRREF  =  1.00D-05  SPARFAC =  1.00D+00  THRDLP  =  1.00D-07
 THRDIA  =  1.00D-10  THRDLS  =  1.00D-07  THRGPS  =  0.00D+00  THRKEX  =  0.00D+00  THRDIS  =  2.00D-01  THRVAR  =  1.00D-10
 THRLOC  =  1.00D-06  THRGAP  =  1.00D-06  THRLOCT = -1.00D+00  THRGAPT = -1.00D+00  THRORB  =  1.00D-06  THRMLTP =  0.00D+00
 THRCPQCI=  1.00D-10  KEXTA   =  0.00D+00  THRCOARS=  0.00D+00  SYMTOL  =  1.00D-06  GRADTOL =  1.00D-06  THROVL  =  1.00D-08
 THRORTH =  1.00D-08  GRID    =  1.00D-08  GRIDMAX =  1.00D-03  DTMAX   =  0.00D+00  THROCCDE=  1.00D-01  THROCCDE=  1.00D-01
 THRPRINT=  2.50D-01


 Variable memory set to  500000000 words,  buffer space 

 SETTING GEOMTYP        =    XYZ
 ZSYMEL=NOSYM

 SETTING BASIS          =    AVDZ


 Recomputing integrals since basis changed


 Using spherical harmonics

 Library entry O      S aug-cc-pVDZ          selected for orbital group  1
 Library entry O      P aug-cc-pVDZ          selected for orbital group  1
 Library entry O      D aug-cc-pVDZ          selected for orbital group  1
 Library entry H      S aug-cc-pVDZ          selected for orbital group  2
 Library entry H      P aug-cc-pVDZ          selected for orbital group  2
 Library entry C      S aug-cc-pVDZ          selected for orbital group  5
 Library entry C      P aug-cc-pVDZ          selected for orbital group  5
 Library entry C      D aug-cc-pVDZ          selected for orbital group  5


 PROGRAM * SEWARD (Integral evaluation for generally contracted gaussian basis sets)     Author: Roland Lindh, 1990

 Geometry written to block  1 of record 700


 Point group  C1  



 ATOMIC COORDINATES

 NR  ATOM    CHARGE       X              Y              Z

   1  O1      8.00   -0.992729436   -0.096321389   -0.594350729
   2  H1      1.00   -1.780134544    1.413329251    0.021264740
   3  H2      1.00    0.762875870    0.112979130   -0.139024067
   4  O2      8.00    7.788174814    0.060516700    0.395058638
   5  H3      1.00    8.483561570   -1.020552914    1.675401617
   6  C1      6.00    8.666907044   -0.830734673   -1.990076406
   7  H4      1.00    7.852780725    0.399654084   -3.413255667
   8  H5      1.00   10.719080994   -0.734750077   -2.130505598
   9  H6      1.00    8.046429421   -2.758008705   -2.366284281

 Bond lengths in Bohr (Angstrom)

 1-2  1.810534248  1-3  1.825726996  4-5  1.814263596  4-6  2.693579128  6-7  2.049901795
     ( 0.958093464)     ( 0.966133120)     ( 0.960066950)     ( 1.425380690)     ( 1.084761314)

 6-8  2.059211335  6-9  2.059346994
     ( 1.089687711)     ( 1.089759498)

 Bond angles

  2-1-3  103.75741034   4-6-7  106.65459099   4-6-8  111.72059382   4-6-9  111.90879545

  5-4-6  107.61952492   7-6-8  108.69153234   7-6-9  108.37480423   8-6-9  109.35579191

 NUCLEAR CHARGE:                   28
 NUMBER OF PRIMITIVE AOS:         177
 NUMBER OF SYMMETRY AOS:          171
 NUMBER OF CONTRACTIONS:          123   (  123A   )
 NUMBER OF CORE ORBITALS:           3   (    3A   )
 NUMBER OF VALENCE ORBITALS:       18   (   18A   )


 NUCLEAR REPULSION ENERGY   68.86139614


 Eigenvalues of metric

         1 0.615E-03 0.706E-03 0.786E-03 0.935E-03 0.235E-02 0.252E-02 0.277E-02 0.413E-02


 OPERATOR DM      FOR CENTER  0  COORDINATES:    0.000000    0.000000    0.000000


 **********************************************************************************************************************************
 DATASETS  * FILE   NREC   LENGTH (MB)   RECORD NAMES
              1      18       30.67       500      610      700      900      950      970     1000      129      960     1100   
                                          VAR    BASINP    GEOM    SYMINP    ZMAT    AOBASIS   BASIS     P2S    ABASIS      S 
                                         1400     1410     1200     1210     1080     1600     1650     1700   
                                           T        V       H0       H01     AOSYM     SMH    MOLCAS    OPER   

 PROGRAMS   *        TOTAL       INT
 CPU TIMES  *         0.48      0.29
 REAL TIME  *         1.82 SEC
 DISK USED  *        31.10 MB (local),      124.39 MB (total)
 GA USED    *         0.00 MB       (max)       0.00 MB       (current)
 **********************************************************************************************************************************


 PROGRAM * RHF-SCF (CLOSED SHELL)       Authors: W. Meyer, H.-J. Werner


 NUMBER OF ELECTRONS:      14+   14-    SPACE SYMMETRY=1    SPIN SYMMETRY: Singlet 
 CONVERGENCE THRESHOLDS:    1.00E-04 (Density)    1.00E-09 (Energy)
 INTEGRAL THRESHOLDS:       1.00E-11 (Initial)    1.00E-11 (Final)
 MAX. NUMBER OF ITERATIONS:       60
 INTERPOLATION TYPE:            DIIS
 INTERPOLATION STEPS:              2 (START)      1 (STEP)
 LEVEL SHIFTS:                  0.00 (CLOSED)  0.00 (OPEN) 



 Orbital guess generated from atomic densities. Full valence occupancy:   21

 Molecular orbital dump at record        2101.2

 Initial occupancy:  14

 Direct Fock-matrix evaluation.        Authors: Roland Lindh & Martin Schuetz (1993/96)

 Integral Threshold:                  0.1D-10
 Threshold for writing integrals:     0.1D-06
 Prescreening on density matrix:        ON 
 Calculation will be performed fully direct        

 ITERATION   DDIFF            GRAD            ENERGY        2-EL.EN.            DIPOLE MOMENTS         DIIS   CPU(IT)  CPU(TOT)
    1      0.000D+00      0.000D+00      -191.03396893    280.294922    1.10941    0.06624    0.49301    0      3.0      5.0     start
    2      0.000D+00      0.702D-02      -191.08701378    274.531007    0.69577    0.04764    0.23964    1      1.7      6.7     diag
    3      0.117D-01      0.393D-02      -191.10352593    277.191375    0.81425    0.04276    0.25392    2      1.6      8.3     diag
    4      0.398D-02      0.580D-03      -191.10422165    276.897890    0.81085    0.03775    0.24874    3      1.7     10.0     diag
    5      0.914D-03      0.127D-03      -191.10426669    276.930519    0.81152    0.03668    0.24099    4      1.6     11.7     diag
    6      0.236D-03      0.262D-04      -191.10426869    276.927461    0.81177    0.03716    0.24065    5      1.7     13.3     diag
    7      0.499D-04      0.124D-04      -191.10426894    276.928241    0.81196    0.03665    0.24010    6      1.7     15.0     diag
    8      0.151D-04      0.242D-05      -191.10426897    276.928200    0.81192    0.03670    0.23994    7      1.6     16.6     diag
    9      0.512D-05      0.554D-06      -191.10426897    276.928147    0.81192    0.03667    0.23992    0      1.6     18.2     orth

 Final occupancy:  14

 !RHF STATE  1.1 Energy              -191.104268967284
 Nuclear energy                        68.86139614
 One-electron energy                 -398.42973875
 Two-electron energy                  138.46407365
 Virial quotient                       -1.00159602
 !RHF STATE  1.1 Dipole moment          0.81191846     0.03667494     0.23992313
 Dipole moment /Debye                   2.06355572     0.09321228     0.60978384

 Orbital energies:

         1.1          2.1          3.1          4.1          5.1          6.1          7.1          8.1          9.1         10.1
    -20.574813   -20.570607   -11.282822    -1.366021    -1.346993    -0.932987    -0.707407    -0.696880    -0.625533    -0.598100

        11.1         12.1         13.1         14.1         15.1         16.1
     -0.578856    -0.510797    -0.501763    -0.457216     0.031636     0.044709


 HOMO     14.1    -0.457216 =     -12.4415eV
 LUMO     15.1     0.031636 =       0.8609eV
 LUMO-HOMO         0.488853 =      13.3024eV


 **********************************************************************************************************************************
 DATASETS  * FILE   NREC   LENGTH (MB)   RECORD NAMES
              1      18       30.67       500      610      700      900      950      970     1000      129      960     1100   
                                          VAR    BASINP    GEOM    SYMINP    ZMAT    AOBASIS   BASIS     P2S    ABASIS      S 
                                         1400     1410     1200     1210     1080     1600     1650     1700   
                                           T        V       H0       H01     AOSYM     SMH    MOLCAS    OPER   

              2       4        3.20       700     1000      520     2101   
                                         GEOM     BASIS   MCVARS     RHF  

 PROGRAMS   *        TOTAL   RHF-SCF       INT
 CPU TIMES  *        18.73     18.25      0.29
 REAL TIME  *        21.49 SEC
 DISK USED  *        34.90 MB (local),      139.59 MB (total)
 SF USED    *         0.18 MB
 GA USED    *         0.00 MB       (max)       0.00 MB       (current)
 **********************************************************************************************************************************
 SETTING EAB_HF         =      -191.10426897  AU                              

 Dummy atoms: O2  H3  C1  H4  H5  H6


 Recomputing one-electron integrals since nuclear charges changed


 PROGRAM * SEWARD (Integral evaluation for generally contracted gaussian basis sets)     Author: Roland Lindh, 1990

 Geometry written to block  1 of record 700


 Point group  C1  



 ATOMIC COORDINATES

 NR  ATOM    CHARGE       X              Y              Z

   1  O1      8.00   -0.992729436   -0.096321389   -0.594350729
   2  H1      1.00   -1.780134544    1.413329251    0.021264740
   3  H2      1.00    0.762875870    0.112979130   -0.139024067
   4  O2      0.00    7.788174814    0.060516700    0.395058638
   5  H3      0.00    8.483561570   -1.020552914    1.675401617
   6  C1      0.00    8.666907044   -0.830734673   -1.990076406
   7  H4      0.00    7.852780725    0.399654084   -3.413255667
   8  H5      0.00   10.719080994   -0.734750077   -2.130505598
   9  H6      0.00    8.046429421   -2.758008705   -2.366284281

 Bond lengths in Bohr (Angstrom)

 1-2  1.810534248  1-3  1.825726996  4-5  1.814263596  4-6  2.693579128  6-7  2.049901795
     ( 0.958093464)     ( 0.966133120)     ( 0.960066950)     ( 1.425380690)     ( 1.084761314)

 6-8  2.059211335  6-9  2.059346994
     ( 1.089687711)     ( 1.089759498)

 Bond angles

  2-1-3  103.75741034   4-6-7  106.65459099   4-6-8  111.72059382   4-6-9  111.90879545

  5-4-6  107.61952492   7-6-8  108.69153234   7-6-9  108.37480423   8-6-9  109.35579191

 NUCLEAR CHARGE:                   10
 NUMBER OF PRIMITIVE AOS:         177
 NUMBER OF SYMMETRY AOS:          171
 NUMBER OF CONTRACTIONS:          123   (  123A   )
 NUMBER OF CORE ORBITALS:           1   (    1A   )
 NUMBER OF VALENCE ORBITALS:        6   (    6A   )

 MOLECULE CHANGED: INITIALIZING OCCUPATION AND DUMP RECORDS


 NUCLEAR REPULSION ENERGY    9.14996834


 Eigenvalues of metric

         1 0.615E-03 0.706E-03 0.786E-03 0.935E-03 0.235E-02 0.252E-02 0.277E-02 0.413E-02


 OPERATOR DM      FOR CENTER  0  COORDINATES:    0.000000    0.000000    0.000000


 **********************************************************************************************************************************
 DATASETS  * FILE   NREC   LENGTH (MB)   RECORD NAMES
              1      18       30.67       500      610      700      900      950      970     1000      129      960     1100   
                                          VAR    BASINP    GEOM    SYMINP    ZMAT    AOBASIS   BASIS     P2S    ABASIS      S 
                                         1400     1410     1200     1210     1080     1600     1650     1700   
                                           T        V       H0       H01     AOSYM     SMH    MOLCAS    OPER   

              2       4        3.20       700     1000      520     2101   
                                         GEOM     BASIS   MCVARS     RHF  

 PROGRAMS   *        TOTAL       INT   RHF-SCF       INT
 CPU TIMES  *        18.79      0.05     18.25      0.29
 REAL TIME  *        21.64 SEC
 DISK USED  *        34.90 MB (local),      139.59 MB (total)
 SF USED    *         0.18 MB
 GA USED    *         0.00 MB       (max)       0.00 MB       (current)
 **********************************************************************************************************************************


 PROGRAM * RHF-SCF (CLOSED SHELL)       Authors: W. Meyer, H.-J. Werner


 NUMBER OF ELECTRONS:       5+    5-    SPACE SYMMETRY=1    SPIN SYMMETRY: Singlet 
 CONVERGENCE THRESHOLDS:    1.00E-04 (Density)    1.00E-09 (Energy)
 INTEGRAL THRESHOLDS:       1.00E-11 (Initial)    1.00E-11 (Final)
 MAX. NUMBER OF ITERATIONS:       60
 INTERPOLATION TYPE:            DIIS
 INTERPOLATION STEPS:              2 (START)      1 (STEP)
 LEVEL SHIFTS:                  0.00 (CLOSED)  0.00 (OPEN) 



 Orbital guess generated from atomic densities. Full valence occupancy:    7

 Molecular orbital dump at record        2201.2

 Initial occupancy:   5

 Direct Fock-matrix evaluation.        Authors: Roland Lindh & Martin Schuetz (1993/96)

 Integral Threshold:                  0.1D-10
 Threshold for writing integrals:     0.1D-06
 Prescreening on density matrix:        ON 
 Calculation will be performed fully direct        

 ITERATION   DDIFF            GRAD            ENERGY        2-EL.EN.            DIPOLE MOMENTS         DIIS   CPU(IT)  CPU(TOT)
    1      0.000D+00      0.000D+00       -76.00399728     77.465425    0.49743    0.87827    0.54763    0      3.0      5.7     start
    2      0.000D+00      0.851D-02       -76.03051162     73.966728    0.29426    0.52431    0.32632    1      1.7      7.4     diag
    3      0.879D-02      0.506D-02       -76.04085142     75.502638    0.34407    0.61222    0.38117    2      1.7      9.1     diag
    4      0.309D-02      0.506D-03       -76.04103694     75.392539    0.34145    0.60854    0.37877    3      1.7     10.7     diag
    5      0.470D-03      0.128D-03       -76.04105262     75.406575    0.34097    0.60806    0.37844    4      1.6     12.4     diag
    6      0.135D-03      0.222D-04       -76.04105337     75.407158    0.34093    0.60810    0.37845    5      1.6     14.0     diag
    7      0.262D-04      0.406D-05       -76.04105340     75.407022    0.34088    0.60803    0.37840    6      1.6     15.6     diag
    8      0.599D-05      0.699D-06       -76.04105340     75.407019    0.34087    0.60802    0.37839    0      1.5     17.1     orth

 Final occupancy:   5

 !RHF STATE  1.1 Energy               -76.041053402512
 Nuclear energy                         9.14996834
 One-electron energy                 -122.89453149
 Two-electron energy                   37.70350975
 Virial quotient                       -1.00173670
 !RHF STATE  1.1 Dipole moment          0.34086892     0.60801940     0.37839199
 Dipole moment /Debye                   0.86634564     1.54532994     0.96171351

 Orbital energies:

         1.1          2.1          3.1          4.1          5.1          6.1          7.1
    -20.578431    -1.354701    -0.715163    -0.586196    -0.509265     0.021868     0.040641


 HOMO      5.1    -0.509265 =     -13.8578eV
 LUMO      6.1     0.021868 =       0.5951eV
 LUMO-HOMO         0.531133 =      14.4529eV


 **********************************************************************************************************************************
 DATASETS  * FILE   NREC   LENGTH (MB)   RECORD NAMES
              1      18       30.67       500      610      700      900      950      970     1000      129      960     1100   
                                          VAR    BASINP    GEOM    SYMINP    ZMAT    AOBASIS   BASIS     P2S    ABASIS      S 
                                         1400     1410     1200     1210     1080     1600     1650     1700   
                                           T        V       H0       H01     AOSYM     SMH    MOLCAS    OPER   

              2       5        6.30       700     1000      520     2101     2201   
                                         GEOM     BASIS   MCVARS     RHF      RHF  

 PROGRAMS   *        TOTAL   RHF-SCF       INT   RHF-SCF       INT
 CPU TIMES  *        35.93     17.13      0.05     18.25      0.29
 REAL TIME  *        39.05 SEC
 DISK USED  *        37.94 MB (local),      151.75 MB (total)
 SF USED    *         0.18 MB
 GA USED    *         0.00 MB       (max)       0.00 MB       (current)
 **********************************************************************************************************************************
 SETTING EA_HF          =       -76.04105340  AU                              

 Dummy atoms: O1  H1  H2


 Recomputing one-electron integrals since nuclear charges changed


 PROGRAM * SEWARD (Integral evaluation for generally contracted gaussian basis sets)     Author: Roland Lindh, 1990

 Geometry written to block  1 of record 700


 Point group  C1  



 ATOMIC COORDINATES

 NR  ATOM    CHARGE       X              Y              Z

   1  O1      0.00   -0.992729436   -0.096321389   -0.594350729
   2  H1      0.00   -1.780134544    1.413329251    0.021264740
   3  H2      0.00    0.762875870    0.112979130   -0.139024067
   4  O2      8.00    7.788174814    0.060516700    0.395058638
   5  H3      1.00    8.483561570   -1.020552914    1.675401617
   6  C1      6.00    8.666907044   -0.830734673   -1.990076406
   7  H4      1.00    7.852780725    0.399654084   -3.413255667
   8  H5      1.00   10.719080994   -0.734750077   -2.130505598
   9  H6      1.00    8.046429421   -2.758008705   -2.366284281

 Bond lengths in Bohr (Angstrom)

 1-2  1.810534248  1-3  1.825726996  4-5  1.814263596  4-6  2.693579128  6-7  2.049901795
     ( 0.958093464)     ( 0.966133120)     ( 0.960066950)     ( 1.425380690)     ( 1.084761314)

 6-8  2.059211335  6-9  2.059346994
     ( 1.089687711)     ( 1.089759498)

 Bond angles

  2-1-3  103.75741034   4-6-7  106.65459099   4-6-8  111.72059382   4-6-9  111.90879545

  5-4-6  107.61952492   7-6-8  108.69153234   7-6-9  108.37480423   8-6-9  109.35579191

 NUCLEAR CHARGE:                   18
 NUMBER OF PRIMITIVE AOS:         177
 NUMBER OF SYMMETRY AOS:          171
 NUMBER OF CONTRACTIONS:          123   (  123A   )
 NUMBER OF CORE ORBITALS:           2   (    2A   )
 NUMBER OF VALENCE ORBITALS:       12   (   12A   )

 MOLECULE CHANGED: INITIALIZING OCCUPATION AND DUMP RECORDS


 NUCLEAR REPULSION ENERGY   40.29463209


 Eigenvalues of metric

         1 0.615E-03 0.706E-03 0.786E-03 0.935E-03 0.235E-02 0.252E-02 0.277E-02 0.413E-02


 OPERATOR DM      FOR CENTER  0  COORDINATES:    0.000000    0.000000    0.000000


 **********************************************************************************************************************************
 DATASETS  * FILE   NREC   LENGTH (MB)   RECORD NAMES
              1      18       30.67       500      610      700      900      950      970     1000      129      960     1100   
                                          VAR    BASINP    GEOM    SYMINP    ZMAT    AOBASIS   BASIS     P2S    ABASIS      S 
                                         1400     1410     1200     1210     1080     1600     1650     1700   
                                           T        V       H0       H01     AOSYM     SMH    MOLCAS    OPER   

              2       5        6.30       700     1000      520     2101     2201   
                                         GEOM     BASIS   MCVARS     RHF      RHF  

 PROGRAMS   *        TOTAL       INT   RHF-SCF       INT   RHF-SCF       INT
 CPU TIMES  *        36.00      0.06     17.13      0.05     18.25      0.29
 REAL TIME  *        39.22 SEC
 DISK USED  *        37.94 MB (local),      151.75 MB (total)
 SF USED    *         0.18 MB
 GA USED    *         0.00 MB       (max)       0.00 MB       (current)
 **********************************************************************************************************************************


 PROGRAM * RHF-SCF (CLOSED SHELL)       Authors: W. Meyer, H.-J. Werner


 NUMBER OF ELECTRONS:       9+    9-    SPACE SYMMETRY=1    SPIN SYMMETRY: Singlet 
 CONVERGENCE THRESHOLDS:    1.00E-04 (Density)    1.00E-09 (Energy)
 INTEGRAL THRESHOLDS:       1.00E-11 (Initial)    1.00E-11 (Final)
 MAX. NUMBER OF ITERATIONS:       60
 INTERPOLATION TYPE:            DIIS
 INTERPOLATION STEPS:              2 (START)      1 (STEP)
 LEVEL SHIFTS:                  0.00 (CLOSED)  0.00 (OPEN) 



 Orbital guess generated from atomic densities. Full valence occupancy:   14

 Molecular orbital dump at record        2301.2

 Initial occupancy:   9

 Direct Fock-matrix evaluation.        Authors: Roland Lindh & Martin Schuetz (1993/96)

 Integral Threshold:                  0.1D-10
 Threshold for writing integrals:     0.1D-06
 Prescreening on density matrix:        ON 
 Calculation will be performed fully direct        

 ITERATION   DDIFF            GRAD            ENERGY        2-EL.EN.            DIPOLE MOMENTS         DIIS   CPU(IT)  CPU(TOT)
    1      0.000D+00      0.000D+00      -115.02701078    164.085755    0.61079   -0.81202   -0.05466    0      3.0      5.6     start
    2      0.000D+00      0.572D-02      -115.05425817    161.738543    0.35298   -0.46453   -0.07613    1      1.7      7.3     diag
    3      0.784D-02      0.298D-02      -115.06092246    162.905508    0.43442   -0.56790   -0.12174    2      1.7      9.0     diag
    4      0.256D-02      0.629D-03      -115.06144640    162.714892    0.43032   -0.56248   -0.12115    3      1.6     10.6     diag
    5      0.789D-03      0.119D-03      -115.06147439    162.731252    0.43026   -0.56158   -0.12789    4      1.6     12.3     diag
    6      0.187D-03      0.210D-04      -115.06147561    162.729357    0.43076   -0.56213   -0.12879    5      1.6     13.9     diag
    7      0.399D-04      0.413D-05      -115.06147566    162.729552    0.43075   -0.56209   -0.12910    6      1.6     15.5     diag
    8      0.792D-05      0.995D-06      -115.06147566    162.729444    0.43075   -0.56209   -0.12913    0      1.6     17.1     orth

 Final occupancy:   9

 !RHF STATE  1.1 Energy              -115.061475664096
 Nuclear energy                        40.29463209
 One-electron energy                 -236.72082989
 Two-electron energy                   81.36472213
 Virial quotient                       -1.00148371
 !RHF STATE  1.1 Dipole moment          0.43075406    -0.56208863    -0.12912593
 Dipole moment /Debye                   1.09479590    -1.42859321    -0.32818389

 Orbital energies:

         1.1          2.1          3.1          4.1          5.1          6.1          7.1          8.1          9.1         10.1
    -20.568403   -11.278547    -1.359713    -0.928284    -0.691075    -0.620520    -0.592501    -0.505246    -0.451403     0.032469

        11.1
      0.044058


 HOMO      9.1    -0.451403 =     -12.2833eV
 LUMO     10.1     0.032469 =       0.8835eV
 LUMO-HOMO         0.483872 =      13.1668eV


 **********************************************************************************************************************************
 DATASETS  * FILE   NREC   LENGTH (MB)   RECORD NAMES
              1      18       30.67       500      610      700      900      950      970     1000      129      960     1100   
                                          VAR    BASINP    GEOM    SYMINP    ZMAT    AOBASIS   BASIS     P2S    ABASIS      S 
                                         1400     1410     1200     1210     1080     1600     1650     1700   
                                           T        V       H0       H01     AOSYM     SMH    MOLCAS    OPER   

              2       6        9.40       700     1000      520     2101     2201     2301   
                                         GEOM     BASIS   MCVARS     RHF      RHF      RHF  

 PROGRAMS   *        TOTAL   RHF-SCF       INT   RHF-SCF       INT   RHF-SCF       INT
 CPU TIMES  *        53.13     17.13      0.06     17.13      0.05     18.25      0.29
 REAL TIME  *        56.74 SEC
 DISK USED  *        41.04 MB (local),      164.15 MB (total)
 SF USED    *         0.18 MB
 GA USED    *         0.00 MB       (max)       0.00 MB       (current)
 **********************************************************************************************************************************
 SETTING EB_HF          =      -115.06147566  AU                              
 SETTING E_AB_INT       =        -0.00173990  AU                              

 *** results in hartree
 E_AB_INT         =        -0.00173990 AU
 Molecular orbitals read from record     2301.2  Type=RHF/CANONICAL (state 1.1)
 Occupation numbers read from record     2301.2  Type=RHF/RHF (state 1.1)
 Orbital energies read from record       2301.2  Type=RHF/CANONICAL (state 1.1)
 Redundancy group numbers read from rec  2301.2  Type=RHF/RHF (state 1.1)

 RHF/aug-cc-pVDZ energy=   -115.061475664096

         RHF-SCF         RHF-SCF         RHF-SCF
   -115.06147566    -76.04105340   -191.10426897
 **********************************************************************************************************************************
 Molpro calculation terminated
