
     Program PWSCF v.7.2 starts on 12Oct2023 at 16:32:36 

     This program is part of the open-source Quantum ESPRESSO suite
     for quantum simulation of materials; please cite
         "P. Giannozzi et al., J. Phys.:Condens. Matter 21 395502 (2009);
         "P. Giannozzi et al., J. Phys.:Condens. Matter 29 465901 (2017);
         "P. Giannozzi et al., J. Chem. Phys. 152 154105 (2020);
          URL http://www.quantum-espresso.org", 
     in publications or presentations arising from this work. More details at
     http://www.quantum-espresso.org/quote

     Parallel version (MPI), running on    32 processors

     MPI processes distributed on     1 nodes
     489827 MiB available memory on the printing compute node when the environment starts

     Reading input from H2O_NH3_dimer_O_H_contact_35_precision_monomer_2.in
Warning: card &CELL ignored
Warning: card / ignored

     Current dimensions of program PWSCF are:
     Max number of different atomic species (ntypx) = 10
     Max number of k-points (npk) =  40000
     Max angular momentum in pseudopotentials (lmaxx) =  4
     file H.pbe-kjpaw_psl.1.0.0.UPF: wavefunction(s)  1S renormalized
     file O.pbe-n-kjpaw_psl.1.0.0.UPF: wavefunction(s)  2S 2P renormalized

     IMPORTANT: XC functional enforced from input :
     Exchange-correlation= PBE
                           (   1   4   3   4   0   0   0)
     Any further DFT definition will be discarded
     Please, verify this is what you really want


     gamma-point specific algorithms are used

     R & G space division:  proc/nbgrp/npool/nimage =      32
     Subspace diagonalization in iterative solution of the eigenvalue problem:
     a serial algorithm will be used


     Parallelization info
     --------------------
     sticks:   dense  smooth     PW     G-vecs:    dense   smooth      PW
     Min        6395    6395   1598              2177048  2177048  272114
     Max        6398    6398   1600              2177062  2177062  272124
     Sum      204693  204693  51189             69665707 69665707 8707803

     Using Slab Decomposition



     bravais-lattice index     =            0
     lattice parameter (alat)  =      66.1404  a.u.
     unit-cell volume          =  289334.8415 (a.u.)^3
     number of atoms/cell      =            3
     number of atomic types    =            2
     number of electrons       =         8.00
     number of Kohn-Sham states=            4
     kinetic-energy cutoff     =     147.0000  Ry
     charge density cutoff     =     588.0000  Ry
     scf convergence threshold =      1.0E-08
     mixing beta               =       0.7000
     number of iterations used =            8  plain     mixing
     Exchange-correlation= PBE
                           (   1   4   3   4   0   0   0)

     celldm(1)=  66.140414  celldm(2)=   0.000000  celldm(3)=   0.000000
     celldm(4)=   0.000000  celldm(5)=   0.000000  celldm(6)=   0.000000

     crystal axes: (cart. coord. in units of alat)
               a(1) = (   1.000000   0.000000   0.000000 )  
               a(2) = (   0.000000   1.000000   0.000000 )  
               a(3) = (   0.000000   0.000000   1.000000 )  

     reciprocal axes: (cart. coord. in units 2 pi/alat)
               b(1) = (  1.000000  0.000000  0.000000 )  
               b(2) = (  0.000000  1.000000  0.000000 )  
               b(3) = (  0.000000  0.000000  1.000000 )  


     PseudoPot. # 1 for H  read from file:
     /home/users/klimj2am/src/pslibrary.1.0.0/pbe/PSEUDOPOTENTIALS/H.pbe-kjpaw_psl.1.0.0.UPF
     MD5 check sum: 220281c0717fd894cece6904c624ceaa
     Pseudo is Projector augmented-wave, Zval =  1.0
     Generated using 'atomic' code by A. Dal Corso  v.7.2
     Shape of augmentation charge: PSQ
     Using radial grid of  929 points,  2 beta functions with: 
                l(1) =   0
                l(2) =   0
     Q(r) pseudized with 0 coefficients 


     PseudoPot. # 2 for O  read from file:
     /home/users/klimj2am/src/pslibrary.1.0.0/pbe/PSEUDOPOTENTIALS/O.pbe-n-kjpaw_psl.1.0.0.UPF
     MD5 check sum: 48e285564fec6dca10ec424bc53b541b
     Pseudo is Projector augmented-wave + core cor, Zval =  6.0
     Generated using 'atomic' code by A. Dal Corso  v.7.2
     Shape of augmentation charge: PSQ
     Using radial grid of 1095 points,  4 beta functions with: 
                l(1) =   0
                l(2) =   0
                l(3) =   1
                l(4) =   1
     Q(r) pseudized with 0 coefficients 


     atomic species   valence    mass     pseudopotential
        H              1.00     1.00800     H ( 1.00)
        O              6.00    15.99900     O ( 1.00)

     No symmetry found



   Cartesian axes

     site n.     atom                  positions (alat units)
         1           H   tau(   1) = (   0.0193129   0.1547497   0.0093150  )
         2           H   tau(   2) = (  -0.0162179   0.1566685  -0.0153954  )
         3           O   tau(   3) = (   0.0003984   0.1388612  -0.0026962  )

     number of k points=     1
                       cart. coord. in units 2pi/alat
        k(    1) = (   0.0000000   0.0000000   0.0000000), wk =   2.0000000

     Dense  grid: 34832854 G-vectors     FFT dimensions: ( 512, 512, 512)

     Estimated max dynamical RAM per process >       1.52 GB

     Estimated total dynamical RAM >      48.61 GB

     Initial potential from superposition of free atoms

     starting charge       8.0000, renormalised to       8.0000

     negative rho (up, down):  6.420E-04 0.000E+00
     Starting wfcs are    6 randomized atomic wfcs
     Checking if some PAW data can be deallocated... 

     total cpu time spent up to now is       30.2 secs

     Self-consistent Calculation

     iteration #  1     ecut=   147.00 Ry     beta= 0.70
     Davidson diagonalization with overlap
     ethr =  1.00E-02,  avg # of iterations =  3.0

     negative rho (up, down):  8.542E-04 0.000E+00

     total cpu time spent up to now is       39.0 secs

     total energy              =     -43.78010280 Ry
     estimated scf accuracy    <       0.49858388 Ry

     iteration #  2     ecut=   147.00 Ry     beta= 0.70
     Davidson diagonalization with overlap
     ethr =  6.23E-03,  avg # of iterations =  5.0

     negative rho (up, down):  9.089E-04 0.000E+00

     total cpu time spent up to now is       48.2 secs

     total energy              =     -43.97443085 Ry
     estimated scf accuracy    <       0.17395234 Ry

     iteration #  3     ecut=   147.00 Ry     beta= 0.70
     Davidson diagonalization with overlap
     ethr =  2.17E-03,  avg # of iterations =  3.0

     negative rho (up, down):  1.103E-03 0.000E+00

     total cpu time spent up to now is       56.7 secs

     total energy              =     -43.99851403 Ry
     estimated scf accuracy    <       0.03591828 Ry

     iteration #  4     ecut=   147.00 Ry     beta= 0.70
     Davidson diagonalization with overlap
     ethr =  4.49E-04,  avg # of iterations =  5.0

     negative rho (up, down):  1.211E-03 0.000E+00

     total cpu time spent up to now is       65.6 secs

     total energy              =     -44.03621078 Ry
     estimated scf accuracy    <       0.01072812 Ry

     iteration #  5     ecut=   147.00 Ry     beta= 0.70
     Davidson diagonalization with overlap
     ethr =  1.34E-04,  avg # of iterations =  4.0

     negative rho (up, down):  1.198E-03 0.000E+00

     total cpu time spent up to now is       74.2 secs

     total energy              =     -44.03859743 Ry
     estimated scf accuracy    <       0.00138396 Ry

     iteration #  6     ecut=   147.00 Ry     beta= 0.70
     Davidson diagonalization with overlap
     ethr =  1.73E-05,  avg # of iterations =  5.0

     negative rho (up, down):  1.237E-03 0.000E+00

     total cpu time spent up to now is       83.7 secs

     total energy              =     -44.03945196 Ry
     estimated scf accuracy    <       0.00045419 Ry

     iteration #  7     ecut=   147.00 Ry     beta= 0.70
     Davidson diagonalization with overlap
     ethr =  5.68E-06,  avg # of iterations =  2.0

     negative rho (up, down):  1.265E-03 0.000E+00

     total cpu time spent up to now is       91.9 secs

     total energy              =     -44.03942018 Ry
     estimated scf accuracy    <       0.00025089 Ry

     iteration #  8     ecut=   147.00 Ry     beta= 0.70
     Davidson diagonalization with overlap
     ethr =  3.14E-06,  avg # of iterations =  1.0

     negative rho (up, down):  1.263E-03 0.000E+00

     total cpu time spent up to now is      100.0 secs

     total energy              =     -44.03941524 Ry
     estimated scf accuracy    <       0.00007260 Ry

     iteration #  9     ecut=   147.00 Ry     beta= 0.70
     Davidson diagonalization with overlap
     ethr =  9.07E-07,  avg # of iterations =  2.0

     negative rho (up, down):  1.262E-03 0.000E+00

     total cpu time spent up to now is      108.4 secs

     total energy              =     -44.03942182 Ry
     estimated scf accuracy    <       0.00003040 Ry

     iteration # 10     ecut=   147.00 Ry     beta= 0.70
     Davidson diagonalization with overlap
     ethr =  3.80E-07,  avg # of iterations =  2.0

     negative rho (up, down):  1.261E-03 0.000E+00

     total cpu time spent up to now is      116.7 secs

     total energy              =     -44.03942425 Ry
     estimated scf accuracy    <       0.00002207 Ry

     iteration # 11     ecut=   147.00 Ry     beta= 0.70
     Davidson diagonalization with overlap
     ethr =  2.76E-07,  avg # of iterations =  2.0

     negative rho (up, down):  1.260E-03 0.000E+00

     total cpu time spent up to now is      125.1 secs

     total energy              =     -44.03942734 Ry
     estimated scf accuracy    <       0.00001550 Ry

     iteration # 12     ecut=   147.00 Ry     beta= 0.70
     Davidson diagonalization with overlap
     ethr =  1.94E-07,  avg # of iterations =  2.0

     negative rho (up, down):  1.260E-03 0.000E+00

     total cpu time spent up to now is      133.5 secs

     total energy              =     -44.03942987 Ry
     estimated scf accuracy    <       0.00001573 Ry

     iteration # 13     ecut=   147.00 Ry     beta= 0.70
     Davidson diagonalization with overlap
     ethr =  1.94E-07,  avg # of iterations =  2.0

     negative rho (up, down):  1.258E-03 0.000E+00

     total cpu time spent up to now is      142.0 secs

     total energy              =     -44.03943044 Ry
     estimated scf accuracy    <       0.00001430 Ry

     iteration # 14     ecut=   147.00 Ry     beta= 0.70
     Davidson diagonalization with overlap
     ethr =  1.79E-07,  avg # of iterations =  1.0

     negative rho (up, down):  1.258E-03 0.000E+00

     total cpu time spent up to now is      150.1 secs

     total energy              =     -44.03942610 Ry
     estimated scf accuracy    <       0.00001273 Ry

     iteration # 15     ecut=   147.00 Ry     beta= 0.70
     Davidson diagonalization with overlap
     ethr =  1.59E-07,  avg # of iterations =  2.0

     negative rho (up, down):  1.258E-03 0.000E+00

     total cpu time spent up to now is      158.5 secs

     total energy              =     -44.03942740 Ry
     estimated scf accuracy    <       0.00000386 Ry

     iteration # 16     ecut=   147.00 Ry     beta= 0.70
     Davidson diagonalization with overlap
     ethr =  4.83E-08,  avg # of iterations =  4.0

     negative rho (up, down):  1.259E-03 0.000E+00

     total cpu time spent up to now is      168.3 secs

     total energy              =     -44.03942933 Ry
     estimated scf accuracy    <       0.00000127 Ry

     iteration # 17     ecut=   147.00 Ry     beta= 0.70
     Davidson diagonalization with overlap
     ethr =  1.59E-08,  avg # of iterations =  7.0

     negative rho (up, down):  1.259E-03 0.000E+00

     total cpu time spent up to now is      179.1 secs

     total energy              =     -44.03943081 Ry
     estimated scf accuracy    <       0.00000297 Ry

     iteration # 18     ecut=   147.00 Ry     beta= 0.70
     Davidson diagonalization with overlap
     ethr =  1.59E-08,  avg # of iterations =  1.0

     negative rho (up, down):  1.259E-03 0.000E+00

     total cpu time spent up to now is      187.3 secs

     total energy              =     -44.03943147 Ry
     estimated scf accuracy    <       0.00000266 Ry

     iteration # 19     ecut=   147.00 Ry     beta= 0.70
     Davidson diagonalization with overlap
     ethr =  1.59E-08,  avg # of iterations =  2.0

     negative rho (up, down):  1.259E-03 0.000E+00

     total cpu time spent up to now is      195.7 secs

     total energy              =     -44.03943097 Ry
     estimated scf accuracy    <       0.00000403 Ry

     iteration # 20     ecut=   147.00 Ry     beta= 0.70
     Davidson diagonalization with overlap
     ethr =  1.59E-08,  avg # of iterations =  1.0

     negative rho (up, down):  1.259E-03 0.000E+00

     total cpu time spent up to now is      203.8 secs

     total energy              =     -44.03942945 Ry
     estimated scf accuracy    <       0.00000303 Ry

     iteration # 21     ecut=   147.00 Ry     beta= 0.70
     Davidson diagonalization with overlap
     ethr =  1.59E-08,  avg # of iterations =  2.0

     negative rho (up, down):  1.259E-03 0.000E+00

     total cpu time spent up to now is      212.1 secs

     total energy              =     -44.03942934 Ry
     estimated scf accuracy    <       0.00000069 Ry

     iteration # 22     ecut=   147.00 Ry     beta= 0.70
     Davidson diagonalization with overlap
     ethr =  8.60E-09,  avg # of iterations =  6.0

     negative rho (up, down):  1.259E-03 0.000E+00

     total cpu time spent up to now is      221.9 secs

     total energy              =     -44.03943017 Ry
     estimated scf accuracy    <       0.00000124 Ry

     iteration # 23     ecut=   147.00 Ry     beta= 0.70
     Davidson diagonalization with overlap
     ethr =  8.60E-09,  avg # of iterations =  2.0

     negative rho (up, down):  1.259E-03 0.000E+00

     total cpu time spent up to now is      230.3 secs

     total energy              =     -44.03942994 Ry
     estimated scf accuracy    <       0.00000101 Ry

     iteration # 24     ecut=   147.00 Ry     beta= 0.70
     Davidson diagonalization with overlap
     ethr =  8.60E-09,  avg # of iterations =  1.0

     negative rho (up, down):  1.259E-03 0.000E+00

     total cpu time spent up to now is      238.4 secs

     total energy              =     -44.03942981 Ry
     estimated scf accuracy    <       0.00000050 Ry

     iteration # 25     ecut=   147.00 Ry     beta= 0.70
     Davidson diagonalization with overlap
     ethr =  6.24E-09,  avg # of iterations =  2.0

     negative rho (up, down):  1.259E-03 0.000E+00

     total cpu time spent up to now is      247.0 secs

     total energy              =     -44.03942990 Ry
     estimated scf accuracy    <       0.00000008 Ry

     iteration # 26     ecut=   147.00 Ry     beta= 0.70
     Davidson diagonalization with overlap
     ethr =  9.96E-10,  avg # of iterations =  4.0

     negative rho (up, down):  1.259E-03 0.000E+00

     total cpu time spent up to now is      255.3 secs

     End of self-consistent calculation

          k = 0.0000 0.0000 0.0000 (****** PWs)   bands (ev):

   -25.4019 -13.1545  -9.3262  -7.2452

     highest occupied level (ev):    -7.2452

!    total energy              =     -44.03942997 Ry
     total all-electron energy =      -152.886312 Ry
     estimated scf accuracy    <          5.5E-09 Ry

     The total energy is the sum of the following terms:
     one-electron contribution =     -76.77759998 Ry
     hartree contribution      =      40.03155895 Ry
     xc contribution           =      -8.87068339 Ry
     ewald contribution        =      11.16380392 Ry
     one-center paw contrib.   =      -9.58650946 Ry

     charge density inside the Wigner-Seitz cell:    8.00000000

     reference position (x0):         0.04535250    9.46291950   -0.18401713 bohr

     Dipole moments (with respect to x0):
     Elect   0.0486   0.7122  -0.0146 au (Ha),   0.1235   1.8101  -0.0371 Debye
     Ionic  -0.0000   0.0000  -0.0000 au (Ha),  -0.0000   0.0000  -0.0000 Debye
     Total   0.0486   0.7122  -0.0146 au (Ha),   0.1235   1.8101  -0.0371 Debye

     Electrons quadrupole moment        -20.06628143 a.u. (Ha)
          Ions quadrupole moment          5.97697227 a.u. (Ha)
         Total quadrupole moment        -14.08930917 a.u. (Ha)

     *********    MAKOV-PAYNE CORRECTION    *********

     Makov-Payne correction with Madelung constant =   2.8373

     Makov-Payne correction     0.00000000 Ry =  0.000 eV (1st order, 1/a0)
                                0.00000738 Ry =  0.000 eV (2nd order, 1/a0^3)
                                0.00000738 Ry =  0.000 eV (total)

!    Total+Makov-Payne energy  =     -44.03942259 Ry
     Corrected vacuum level    =       0.00277573 eV

     convergence has been achieved in  26 iterations

     Writing all to output data dir ./pwscf.save/

     init_run     :     27.16s CPU     29.90s WALL (       1 calls)
     electrons    :    186.68s CPU    227.59s WALL (       1 calls)

     Called by init_run:
     wfcinit      :      0.78s CPU      0.91s WALL (       1 calls)
     potinit      :      3.21s CPU      4.39s WALL (       1 calls)
     hinit0       :      1.45s CPU      1.83s WALL (       1 calls)

     Called by electrons:
     c_bands      :     41.86s CPU     44.42s WALL (      26 calls)
     sum_band     :     48.25s CPU     59.37s WALL (      26 calls)
     v_of_rho     :     51.89s CPU     68.33s WALL (      27 calls)
     newd         :     21.94s CPU     31.92s WALL (      27 calls)
     PAW_pot      :      0.30s CPU      0.30s WALL (      27 calls)
     mix_rho      :     21.60s CPU     22.66s WALL (      26 calls)

     Called by c_bands:
     init_us_2    :      0.86s CPU      0.88s WALL (      53 calls)
     init_us_2:cp :      0.86s CPU      0.88s WALL (      53 calls)
     regterg      :     40.88s CPU     43.42s WALL (      26 calls)

     Called by *egterg:
     rdiaghg      :      0.01s CPU      0.02s WALL (      99 calls)
     h_psi        :     36.64s CPU     39.25s WALL (     100 calls)
     s_psi        :      0.76s CPU      0.76s WALL (     100 calls)
     g_psi        :      0.12s CPU      0.12s WALL (      73 calls)

     Called by h_psi:
     h_psi:calbec :      0.80s CPU      0.81s WALL (     100 calls)
     vloc_psi     :     34.87s CPU     37.46s WALL (     100 calls)
     add_vuspsi   :      0.71s CPU      0.71s WALL (     100 calls)

     General routines
     calbec       :      0.98s CPU      0.98s WALL (     126 calls)
     fft          :     42.93s CPU     52.87s WALL (     243 calls)
     ffts         :      4.08s CPU      4.71s WALL (      26 calls)
     fftw         :     30.93s CPU     33.81s WALL (     392 calls)

     Parallel routines

     PWSCF        :   3m35.53s CPU   4m20.94s WALL


   This run was terminated on:  16:36:57  12Oct2023            

=------------------------------------------------------------------------------=
   JOB DONE.
=------------------------------------------------------------------------------=
