 vasp.5.4.1 24Jun15 (build Jan 02 2020 16:21:29) gamma-only                     
  
 executed on           IFC15_impi date 2020.04.10  09:34:05
 running on    8 total cores
 distrk:  each k-point on    8 cores,    1 groups
 distr:  one band on NCORES_PER_BAND=   8 cores,    1 groups


--------------------------------------------------------------------------------------------------------


 INCAR:
 POTCAR:    PAW_PBE C_h_GW 23May2013              
 POTCAR:    PAW_PBE O_h_GW 22May2013              
 POTCAR:    PAW_PBE H_h_GW 21Apr2008              

 ----------------------------------------------------------------------------- 
|                                                                             |
|           W    W    AA    RRRRR   N    N  II  N    N   GGGG   !!!           |
|           W    W   A  A   R    R  NN   N  II  NN   N  G    G  !!!           |
|           W    W  A    A  R    R  N N  N  II  N N  N  G       !!!           |
|           W WW W  AAAAAA  RRRRR   N  N N  II  N  N N  G  GGG   !            |
|           WW  WW  A    A  R   R   N   NN  II  N   NN  G    G                |
|           W    W  A    A  R    R  N    N  II  N    N   GGGG   !!!           |
|                                                                             |
|      For optimal performance we recommend to set                            |
|        NCORE= 4 - approx SQRT( number of cores)                             |
|      NCORE specifies how many cores store one orbital (NPAR=cpu/NCORE).     |
|      This setting can  greatly improve the performance of VASP for DFT.     |
|      The default, NPAR=number of cores might be grossly inefficient         |
|      on modern multi-core architectures or massively parallel machines.     |
|      Do your own testing !!!!                                               |
|      Unfortunately you need to use the default for GW and RPA calculations. |
|      (for HF NCORE is supported but not extensively tested yet)             |
|                                                                             |
 ----------------------------------------------------------------------------- 

 POTCAR:    PAW_PBE C_h_GW 23May2013              
   VRHFIN =C: s2p2                                                              
   LEXCH  = PE                                                                  
   EATOM  =   147.1560 eV,   10.8157 Ry                                         
                                                                                
   TITEL  = PAW_PBE C_h_GW 23May2013                                            
   LULTRA =        F    use ultrasoft PP ?                                      
   IUNSCR =        1    unscreen: 0-lin 1-nonlin 2-no                           
   RPACOR =    0.800    partial core radius                                     
   POMASS =   12.011; ZVAL   =    4.000    mass and valenz                      
   RCORE  =    1.100    outmost cutoff radius                                   
   RWIGS  =    1.200; RWIGS  =    0.635    wigner-seitz radius (au A)           
   ENMAX  =  741.689; ENMIN  =  556.267 eV                                      
   RCLOC  =    0.804    cutoff for local pot                                    
   LCOR   =        T    correct aug charges                                     
   LPAW   =        T    paw PP                                                  
   EAUG   = 1782.225                                                            
   DEXC   =    0.000                                                            
   RMAX   =    1.128    core radius for proj-oper                               
   RAUG   =    1.300    factor for augmentation sphere                          
   RDEP   =    1.162    radius for radial grids                                 
   RDEPT  =    1.000    core radius for aug-charge                              
                                                                                
   Atomic configuration                                                         
    5 entries                                                                   
     n  l   j            E        occ.                                          
     1  0  0.50      -273.3789   2.0000                                         
     2  0  0.50       -13.7508   2.0000                                         
     2  1  0.50        -5.2854   2.0000                                         
     3  2  1.50        -5.4423   0.0000                                         
     4  3  2.50        -5.4423   0.0000                                         
   Description                                                                  
     l       E           TYP  RCUT    TYP  RCUT                                 
     0    -13.7508457     23  1.000                                             
     0     81.6349560     23  1.000                                             
     0    204.0873900     23  1.000                                             
     1     -5.2854382     23  1.100                                             
     1    204.0873900     23  1.100                                             
     1    380.9631280     23  1.100                                             
     2     81.6349560     23  1.100                                             
     2    204.0873900     23  1.100                                             
  local pseudopotential read in
  partial core-charges read in
  partial kinetic energy density read in
  kinetic energy density of atom read in
  atomic valenz-charges read in
  non local Contribution for L=           0  read in
    real space projection operators read in
  non local Contribution for L=           0  read in
    real space projection operators read in
  non local Contribution for L=           0  read in
    real space projection operators read in
  non local Contribution for L=           1  read in
    real space projection operators read in
  non local Contribution for L=           1  read in
    real space projection operators read in
  non local Contribution for L=           1  read in
    real space projection operators read in
  non local Contribution for L=           2  read in
    real space projection operators read in
  non local Contribution for L=           2  read in
    real space projection operators read in
    PAW grid and wavefunctions read in
 
   number of l-projection  operators is LMAX  =           8
   number of lm-projection operators is LMMAX =          22
 
 POTCAR:    PAW_PBE O_h_GW 22May2013              
   VRHFIN =O: s2p4                                                              
   LEXCH  = PE                                                                  
   EATOM  =   432.3788 eV,   31.7789 Ry                                         
                                                                                
   TITEL  = PAW_PBE O_h_GW 22May2013                                            
   LULTRA =        F    use ultrasoft PP ?                                      
   IUNSCR =        1    unscreen: 0-lin 1-nonlin 2-no                           
   RPACOR =    0.800    partial core radius                                     
   POMASS =   16.000; ZVAL   =    6.000    mass and valenz                      
   RCORE  =    1.100    outmost cutoff radius                                   
   RWIGS  =    1.200; RWIGS  =    0.635    wigner-seitz radius (au A)           
   ENMAX  =  765.519; ENMIN  =  574.139 eV                                      
   RCLOC  =    0.907    cutoff for local pot                                    
   LCOR   =        T    correct aug charges                                     
   LPAW   =        T    paw PP                                                  
   EAUG   = 1673.112                                                            
   DEXC   =    0.000                                                            
   RMAX   =    1.128    core radius for proj-oper                               
   RAUG   =    1.300    factor for augmentation sphere                          
   RDEP   =    1.125    radius for radial grids                                 
   RDEPT  =    1.000    core radius for aug-charge                              
                                                                                
   Atomic configuration                                                         
    5 entries                                                                   
     n  l   j            E        occ.                                          
     1  0  0.50      -514.6923   2.0000                                         
     2  0  0.50       -23.9615   2.0000                                         
     2  1  0.50        -9.0305   4.0000                                         
     3  2  1.50        -9.5241   0.0000                                         
     4  3  2.50        -9.5241   0.0000                                         
   Description                                                                  
     l       E           TYP  RCUT    TYP  RCUT                                 
     0    -23.9615316     23  1.000                                             
     0     40.8174780     23  1.000                                             
     0    544.2330400     23  1.000                                             
     1     -9.0304908     23  1.100                                             
     1    163.2699120     23  1.100                                             
     1    435.3864320     23  1.100                                             
     2     81.6349560     23  1.100                                             
     2    163.2699120     23  1.100                                             
  local pseudopotential read in
  partial core-charges read in
  partial kinetic energy density read in
  kinetic energy density of atom read in
  atomic valenz-charges read in
  non local Contribution for L=           0  read in
    real space projection operators read in
  non local Contribution for L=           0  read in
    real space projection operators read in
  non local Contribution for L=           0  read in
    real space projection operators read in
  non local Contribution for L=           1  read in
    real space projection operators read in
  non local Contribution for L=           1  read in
    real space projection operators read in
  non local Contribution for L=           1  read in
    real space projection operators read in
  non local Contribution for L=           2  read in
    real space projection operators read in
  non local Contribution for L=           2  read in
    real space projection operators read in
    PAW grid and wavefunctions read in
 
   number of l-projection  operators is LMAX  =           8
   number of lm-projection operators is LMMAX =          22
 
 POTCAR:    PAW_PBE H_h_GW 21Apr2008              
   VRHFIN =H: ultrasoft test                                                    
   LEXCH  = PE                                                                  
   EATOM  =    12.4884 eV,    0.9179 Ry                                         
                                                                                
   TITEL  = PAW_PBE H_h_GW 21Apr2008                                            
   LULTRA =        F    use ultrasoft PP ?                                      
   IUNSCR =        0    unscreen: 0-lin 1-nonlin 2-no                           
   RPACOR =    0.000    partial core radius                                     
   POMASS =    1.000; ZVAL   =    1.000    mass and valenz                      
   RCORE  =    0.800    outmost cutoff radius                                   
   RWIGS  =    1.100; RWIGS  =    0.582    wigner-seitz radius (au A)           
   ENMAX  =  700.000; ENMIN  =  350.000 eV                                      
   RCLOC  =    0.701    cutoff for local pot                                    
   LCOR   =        T    correct aug charges                                     
   LPAW   =        T    paw PP                                                  
   EAUG   = 1000.000                                                            
   RMAX   =    0.819    core radius for proj-oper                               
   RAUG   =    1.000    factor for augmentation sphere                          
   RDEP   =    0.817    radius for radial grids                                 
   RDEPT  =    1.000    core radius for aug-charge                              
                                                                                
   Atomic configuration                                                         
    3 entries                                                                   
     n  l   j            E        occ.                                          
     1  0  0.50        -6.4927   1.0000                                         
     2  1  0.50        -3.4015   0.0000                                         
     3  2  1.50        13.6058   0.0000                                         
   Description                                                                  
     l       E           TYP  RCUT    TYP  RCUT                                 
     0     -6.4927495     23  0.800                                             
     0      6.8029130     23  0.800                                             
     1     -4.0817478     23  0.800                                             
     1    108.8466080     23  0.800                                             
     2     81.6349560     23  0.800                                             
  local pseudopotential read in
  kinetic energy density of atom read in
  atomic valenz-charges read in
  non local Contribution for L=           0  read in
    real space projection operators read in
  non local Contribution for L=           0  read in
    real space projection operators read in
  non local Contribution for L=           1  read in
    real space projection operators read in
  non local Contribution for L=           1  read in
    real space projection operators read in
  non local Contribution for L=           2  read in
    real space projection operators read in
    PAW grid and wavefunctions read in
 
   number of l-projection  operators is LMAX  =           5
   number of lm-projection operators is LMMAX =          13
 
  PAW_PBE C_h_GW 23May2013              :
 energy of atom  1       EATOM= -147.1560
 kinetic energy error for atom=    0.0004 (will be added to EATOM!!)
  PAW_PBE O_h_GW 22May2013              :
 energy of atom  2       EATOM= -432.3788
 kinetic energy error for atom=    0.0017 (will be added to EATOM!!)
  PAW_PBE H_h_GW 21Apr2008              :
 energy of atom  3       EATOM=  -12.4884
 kinetic energy error for atom=    0.0001 (will be added to EATOM!!)
 
 
 POSCAR: C O H                                   
  positions in cartesian coordinates
  velocities in direct lattice
  No initial velocities read in
 exchange correlation table for  LEXCH =        8
   RHO(1)=    0.500       N(1)  =     2000
   RHO(2)=  100.500       N(2)  =     4000
 


--------------------------------------------------------------------------------------------------------


 ion  position               nearest neighbor table
   1  0.078  0.025  0.030-   4 1.09   5 1.09   6 1.09   2 1.42
   2  0.067  0.999  0.001-   3 0.96   1 1.42
   3  0.075  0.009  0.977-   2 0.96
   4  0.069  0.013  0.057-   1 1.09
   5  0.109  0.029  0.031-   1 1.09
   6  0.064  0.053  0.027-   1 1.09
 
  LATTYP: Found a simple cubic cell.
 ALAT       =    35.0000000000
  
  Lattice vectors:
  
 A1 = (  35.0000000000,   0.0000000000,   0.0000000000)
 A2 = (   0.0000000000,  35.0000000000,   0.0000000000)
 A3 = (   0.0000000000,   0.0000000000,  35.0000000000)


Analysis of symmetry for initial positions (statically):
=====================================================================
 Subroutine PRICEL returns:
 Original cell was already a primitive cell.
 

 Routine SETGRP: Setting up the symmetry group for a 
 simple cubic supercell.


 Subroutine GETGRP returns: Found  1 space group operations
 (whereof  1 operations were pure point group operations)
 out of a pool of 48 trial point group operations.


The static configuration has the point symmetry C_1 .


Analysis of symmetry for dynamics (positions and initial velocities):
=====================================================================
 Subroutine PRICEL returns:
 Original cell was already a primitive cell.
 

 Routine SETGRP: Setting up the symmetry group for a 
 simple cubic supercell.


 Subroutine GETGRP returns: Found  1 space group operations
 (whereof  1 operations were pure point group operations)
 out of a pool of 48 trial point group operations.


The dynamic configuration has the point symmetry C_1 .
 
 
 KPOINTS: automatic mesh                          

Automatic generation of k-mesh.
Space group operators:
 irot       det(A)        alpha          n_x          n_y          n_z        tau_x        tau_y        tau_z
    1     1.000000     0.000000     1.000000     0.000000     0.000000     0.000000     0.000000     0.000000
 
 Subroutine IBZKPT returns following result:
 ===========================================
 
 Found      1 irreducible k-points:
 
 Following reciprocal coordinates:
            Coordinates               Weight
  0.000000  0.000000  0.000000      1.000000
 
 Following cartesian coordinates:
            Coordinates               Weight
  0.000000  0.000000  0.000000      1.000000
 


--------------------------------------------------------------------------------------------------------




 Dimension of arrays:
   k-points           NKPTS =      1   k-points in BZ     NKDIM =      1   number of bands    NBANDS=     11
   number of dos      NEDOS =    301   number of ions     NIONS =      6
   non local maximal  LDIM  =      8   non local SUM 2l+1 LMDIM =     22
   total plane-waves  NPLWV = ******
   max r-space proj   IRMAX =      1   max aug-charges    IRDMAX=  19040
   dimension x,y,z NGX =   512 NGY =  512 NGZ =  512
   dimension x,y,z NGXF=  1024 NGYF= 1024 NGZF= 1024
   support grid    NGXF=  1024 NGYF= 1024 NGZF= 1024
   ions per type =               1   1   4
 NGX,Y,Z   is equivalent  to a cutoff of  24.32, 24.32, 24.32 a.u.
 NGXF,Y,Z  is equivalent  to a cutoff of  48.64, 48.64, 48.64 a.u.


 I would recommend the setting:
   dimension x,y,z NGX =   511 NGY =  511 NGZ =  511
 SYSTEM =  C                                       
 POSCAR =  C O H                                   

 Startparameter for this run:
   NWRITE =      2    write-flag & timer
   PREC   = acc       normal or accurate (medium, high low for compatibility)
   ISTART =      0    job   : 0-new  1-cont  2-samecut
   ICHARG =      2    charge: 1-file 2-atom 10-const
   ISPIN  =      1    spin polarized calculation?
   LNONCOLLINEAR =      F non collinear calculations
   LSORBIT =      F    spin-orbit coupling
   INIWAV =      1    electr: 0-lowe 1-rand  2-diag
   LASPH  =      T    aspherical Exc in radial PAW
   METAGGA=      F    non-selfconsistent MetaGGA calc.

 Electronic Relaxation 1
   ENCUT  = 2000.0 eV 147.00 Ry   12.12 a.u. 127.63127.63127.63*2*pi/ulx,y,z
   ENINI  = 2000.0     initial cutoff
   ENAUG  = 1782.2 eV  augmentation charge cutoff
   NELM   =     60;   NELMIN=  2; NELMDL= -5     # of ELM steps 
   EDIFF  = 0.1E-06   stopping-criterion for ELM
   LREAL  =      F    real-space projection
   NLSPLINE    = F    spline interpolate recip. space projectors
   LCOMPAT=      F    compatible to vasp.4.4
   GGA_COMPAT  = T    GGA compatible to vasp.4.4-vasp.4.6
   LMAXPAW     = -100 max onsite density
   LMAXMIX     =    2 max onsite mixed and CHGCAR
   VOSKOWN=      0    Vosko Wilk Nusair interpolation
   ROPT   =    0.00000   0.00000   0.00000
 Ionic relaxation
   EDIFFG = 0.1E-05   stopping-criterion for IOM
   NSW    =      0    number of steps for IOM
   NBLOCK =      1;   KBLOCK =      1    inner block; outer block 
   IBRION =     -1    ionic relax: 0-MD 1-quasi-New 2-CG
   NFREE  =      0    steps in history (QN), initial steepest desc. (CG)
   ISIF   =      2    stress and relaxation
   IWAVPR =     10    prediction:  0-non 1-charg 2-wave 3-comb
   ISYM   =      2    0-nonsym 1-usesym 2-fastsym
   LCORR  =      T    Harris-Foulkes like correction to forces

   POTIM  = 0.5000    time-step for ionic-motion
   TEIN   =    0.0    initial temperature
   TEBEG  =    0.0;   TEEND  =   0.0 temperature during run
   SMASS  =  -3.00    Nose mass-parameter (am)
   estimated Nose-frequenzy (Omega)   =  0.10E-29 period in steps =****** mass=  -0.280E-25a.u.
   SCALEE = 1.0000    scale energy and forces
   NPACO  =    256;   APACO  = 16.0  distance and # of slots for P.C.
   PSTRESS=    0.0 pullay stress

  Mass of Ions in am
   POMASS =  12.01 16.00  1.00
  Ionic Valenz
   ZVAL   =   4.00  6.00  1.00
  Atomic Wigner-Seitz radii
   RWIGS  =  -1.00 -1.00 -1.00
  virtual crystal weights 
   VCA    =   1.00  1.00  1.00
   NELECT =      14.0000    total number of electrons
   NUPDOWN=      -1.0000    fix difference up-down

 DOS related values:
   EMIN   =  10.00;   EMAX   =-10.00  energy-range for DOS
   EFERMI =   0.00
   ISMEAR =     0;   SIGMA  =   0.01  broadening in eV -4-tet -1-fermi 0-gaus

 Electronic relaxation 2 (details)
   IALGO  =     38    algorithm
   LDIAG  =      T    sub-space diagonalisation (order eigenvalues)
   LSUBROT=      F    optimize rotation matrix (better conditioning)
   TURBO    =      0    0=normal 1=particle mesh
   IRESTART =      0    0=no restart 2=restart with 2 vectors
   NREBOOT  =      0    no. of reboots
   NMIN     =      0    reboot dimension
   EREF     =   0.00    reference energy to select bands
   IMIX   =      4    mixing-type and parameters
     AMIX     =   0.40;   BMIX     =  1.00
     AMIX_MAG =   1.60;   BMIX_MAG =  1.00
     AMIN     =   0.10
     WC   =   100.;   INIMIX=   1;  MIXPRE=   1;  MAXMIX= -45

 Intra band minimization:
   WEIMIN = 0.0000     energy-eigenvalue tresh-hold
   EBREAK =  0.23E-08  absolut break condition
   DEPER  =   0.30     relativ break condition  

   TIME   =   0.40     timestep for ELM

  volume/ion in A,a.u.               =    7145.83     48222.46
  Fermi-wavevector in a.u.,A,eV,Ry     =   0.112733  0.213034  0.172911  0.012709
  Thomas-Fermi vector in A             =   0.715943
 
 Write flags
   LWAVE  =      T    write WAVECAR
   LCHARG =      T    write CHGCAR
   LVTOT  =      F    write LOCPOT, total local potential
   LVHAR  =      F    write LOCPOT, Hartree potential only
   LELF   =      F    write electronic localiz. function (ELF)
   LORBIT =      0    0 simple, 1 ext, 2 COOP (PROOUT)


 Dipole corrections
   LMONO  =      F    monopole corrections only (constant potential shift)
   LDIPOL =      F    correct potential (dipole corrections)
   IDIPOL =      0    1-x, 2-y, 3-z, 4-all directions 
   EPSILON=  1.0000000 bulk dielectric constant

 Exchange correlation treatment:
   GGA     =    --    GGA type
   LEXCH   =     8    internal setting for exchange type
   VOSKOWN=      0    Vosko Wilk Nusair interpolation
   LHFCALC =     F    Hartree Fock is set to
   LHFONE  =     F    Hartree Fock one center treatment
   AEXX    =    0.0000 exact exchange contribution

 Linear response parameters
   LEPSILON=     F    determine dielectric tensor
   LRPA    =     F    only Hartree local field effects (RPA)
   LNABLA  =     F    use nabla operator in PAW spheres
   LVEL    =     F    velocity operator in full k-point grid
   LINTERFAST=   F  fast interpolation
   KINTER  =     0    interpolate to denser k-point grid
   CSHIFT  =0.1000    complex shift for real part using Kramers Kronig
   OMEGAMAX=  -1.0    maximum frequency
   DEG_THRESHOLD= 0.2000000E-02 threshold for treating states as degnerate
   RTIME   =    0.100 relaxation time in fs

 Orbital magnetization related:
   ORBITALMAG=     F  switch on orbital magnetization
   LCHIMAG   =     F  perturbation theory with respect to B field
   DQ        =  0.001000  dq finite difference perturbation B field



--------------------------------------------------------------------------------------------------------


 Static calculation
 charge density and potential will be updated during run
 non-spin polarized calculation
 Variant of blocked Davidson
 Davidson routine will perform the subspace rotation
 perform sub-space diagonalisation
    after iterative eigenvector-optimisation
 modified Broyden-mixing scheme, WC =      100.0
 initial mixing is a Kerker type mixing with AMIX =  0.4000 and BMIX =      1.0000
 Hartree-type preconditioning will be used
 using additional bands            4
 reciprocal scheme for non local part
 use partial core corrections
 calculate Harris-corrections to forces 
   (improved forces if not selfconsistent)
 use gradient corrections 
 use of overlap-Matrix (Vanderbilt PP)
 Gauss-broadening in eV      SIGMA  =   0.01


--------------------------------------------------------------------------------------------------------


  energy-cutoff  :     2000.00
  volume of cell :    42875.00
      direct lattice vectors                 reciprocal lattice vectors
    35.000000000  0.000000000  0.000000000     0.028571429  0.000000000  0.000000000
     0.000000000 35.000000000  0.000000000     0.000000000  0.028571429  0.000000000
     0.000000000  0.000000000 35.000000000     0.000000000  0.000000000  0.028571429

  length of vectors
    35.000000000 35.000000000 35.000000000     0.028571429  0.028571429  0.028571429


 
 k-points in units of 2pi/SCALE and weight: automatic mesh                          
   0.00000000  0.00000000  0.00000000       1.000
 
 k-points in reciprocal lattice and weights: automatic mesh                          
   0.00000000  0.00000000  0.00000000       1.000
 
 position of ions in fractional coordinates (direct lattice) 
   0.07808409  0.02485925  0.03000257
   0.06705798  0.99881399  0.00087583
   0.07511587  0.00938395  0.97687971
   0.06885029  0.01258404  0.05694733
   0.10897138  0.02883307  0.03111800
   0.06441339  0.05267634  0.02671182
 
 position of ions in cartesian coordinates  (Angst):
   2.73294319  0.87007390  1.05009009
   2.34702934 34.95848964  0.03065393
   2.62905546  0.32843841 34.19078985
   2.40976014  0.44044123  1.99315664
   3.81399843  1.00915737  1.08913006
   2.25446863  1.84367175  0.93491356
 


--------------------------------------------------------------------------------------------------------


 use parallel FFT for wavefunctions z direction half grid
 k-point  1 :   0.0000 0.0000 0.0000  plane waves: 4353902

 maximum and minimum number of plane-waves per node :    544247   544233

 maximum number of plane-waves:   4353902
 maximum index in each direction: 
   IXMAX=  127   IYMAX=  127   IZMAX=  127
   IXMIN= -127   IYMIN= -127   IZMIN=    0

 NGX is ok and might be reduce to 510
 NGY is ok and might be reduce to 510
 NGZ is ok and might be reduce to 510

 parallel 3D FFT for wavefunctions:
    minimum data exchange during FFTs selected (reduces bandwidth)
 parallel 3D FFT for charge:
    minimum data exchange during FFTs selected (reduces bandwidth)


 total amount of memory used by VASP on root node 14594426. kBytes
========================================================================

   base      :      30000. kBytes
   nonl-proj :     339601. kBytes
   fftplans  :    4854898. kBytes
   grid      :    9274130. kBytes
   one-center:         11. kBytes
   wavefun   :      95786. kBytes
 
     INWAV:  cpu time    0.0000: real time    0.0000
 Broyden mixing: mesh for mixing (old mesh)
   NGX =255   NGY =255   NGZ =255
  (NGX  =***   NGY  =***   NGZ  =***)
  gives a total of ****** points

 initial charge density was supplied:
 charge density of overlapping atoms calculated
 number of electron      14.0000000 magnetization 
 keeping initial charge density in first step


--------------------------------------------------------------------------------------------------------


 Maximum index for augmentation-charges         2345 (set IRDMAX)


--------------------------------------------------------------------------------------------------------


 First call to EWALD:  gamma=   0.051
 Maximum number of real-space cells 3x 3x 3
 Maximum number of reciprocal cells 3x 3x 3

 FEWALD executed in parallel
    FEWALD:  cpu time    0.0017: real time    0.0017


----------------------------------------- Iteration    1(   1)  ---------------------------------------


    POTLOK:  cpu time   63.0886: real time   63.2430
    SETDIJ:  cpu time    0.1475: real time    0.1478
     EDDAV:  cpu time   34.2174: real time   34.3010
       DOS:  cpu time    0.0000: real time    0.0000
    --------------------------------------------
      LOOP:  cpu time   97.4561: real time   97.6960

 eigenvalue-minimisations  :    38
 total energy-change (2. order) : 0.1136787E+03  (-0.2884077E+03)
 number of electron      14.0000000 magnetization 
 augmentation part       14.0000000 magnetization 

 Free energy of the ion-electron system (eV)
  ---------------------------------------------------
  alpha Z        PSCENC =         0.01477374
  Ewald energy   TEWEN  =       574.48221640
  -Hartree energ DENC   =     -1038.58144151
  -exchange      EXHF   =         0.00000000
  -V(xc)+E(xc)   XCENC  =        42.37246639
  PAW double counting   =       464.82387728     -460.60093113
  entropy T*S    EENTRO =        -0.00000000
  eigenvalues    EBANDS =       -98.31826165
  atomic energy  EATOM  =       629.48602445
  Solvation  Ediel_sol  =         0.00000000
  ---------------------------------------------------
  free energy    TOTEN  =       113.67872397 eV

  energy without entropy =      113.67872397  energy(sigma->0) =      113.67872397


--------------------------------------------------------------------------------------------------------




----------------------------------------- Iteration    1(   2)  ---------------------------------------


     EDDAV:  cpu time   35.9590: real time   36.0466
       DOS:  cpu time    0.0000: real time    0.0000
    --------------------------------------------
      LOOP:  cpu time   35.9615: real time   36.0516

 eigenvalue-minimisations  :    41
 total energy-change (2. order) :-0.7256476E+02  (-0.7241069E+02)
 number of electron      14.0000000 magnetization 
 augmentation part       14.0000000 magnetization 

 Free energy of the ion-electron system (eV)
  ---------------------------------------------------
  alpha Z        PSCENC =         0.01477374
  Ewald energy   TEWEN  =       574.48221640
  -Hartree energ DENC   =     -1038.58144151
  -exchange      EXHF   =         0.00000000
  -V(xc)+E(xc)   XCENC  =        42.37246639
  PAW double counting   =       464.82387728     -460.60093113
  entropy T*S    EENTRO =        -0.00000000
  eigenvalues    EBANDS =      -170.88302364
  atomic energy  EATOM  =       629.48602445
  Solvation  Ediel_sol  =         0.00000000
  ---------------------------------------------------
  free energy    TOTEN  =        41.11396198 eV

  energy without entropy =       41.11396198  energy(sigma->0) =       41.11396198


--------------------------------------------------------------------------------------------------------




----------------------------------------- Iteration    1(   3)  ---------------------------------------


     EDDAV:  cpu time   32.3804: real time   32.4594
       DOS:  cpu time    0.0000: real time    0.0000
    --------------------------------------------
      LOOP:  cpu time   32.3830: real time   32.4637

 eigenvalue-minimisations  :    36
 total energy-change (2. order) :-0.4877436E+02  (-0.4871757E+02)
 number of electron      14.0000000 magnetization 
 augmentation part       14.0000000 magnetization 

 Free energy of the ion-electron system (eV)
  ---------------------------------------------------
  alpha Z        PSCENC =         0.01477374
  Ewald energy   TEWEN  =       574.48221640
  -Hartree energ DENC   =     -1038.58144151
  -exchange      EXHF   =         0.00000000
  -V(xc)+E(xc)   XCENC  =        42.37246639
  PAW double counting   =       464.82387728     -460.60093113
  entropy T*S    EENTRO =        -0.00000000
  eigenvalues    EBANDS =      -219.65738001
  atomic energy  EATOM  =       629.48602445
  Solvation  Ediel_sol  =         0.00000000
  ---------------------------------------------------
  free energy    TOTEN  =        -7.66039439 eV

  energy without entropy =       -7.66039439  energy(sigma->0) =       -7.66039439


--------------------------------------------------------------------------------------------------------




----------------------------------------- Iteration    1(   4)  ---------------------------------------


     EDDAV:  cpu time   38.0227: real time   38.1154
       DOS:  cpu time    0.0000: real time    0.0000
    --------------------------------------------
      LOOP:  cpu time   38.0252: real time   38.1201

 eigenvalue-minimisations  :    44
 total energy-change (2. order) :-0.2244761E+02  (-0.2206869E+02)
 number of electron      14.0000000 magnetization 
 augmentation part       14.0000000 magnetization 

 Free energy of the ion-electron system (eV)
  ---------------------------------------------------
  alpha Z        PSCENC =         0.01477374
  Ewald energy   TEWEN  =       574.48221640
  -Hartree energ DENC   =     -1038.58144151
  -exchange      EXHF   =         0.00000000
  -V(xc)+E(xc)   XCENC  =        42.37246639
  PAW double counting   =       464.82387728     -460.60093113
  entropy T*S    EENTRO =        -0.00000000
  eigenvalues    EBANDS =      -242.10499287
  atomic energy  EATOM  =       629.48602445
  Solvation  Ediel_sol  =         0.00000000
  ---------------------------------------------------
  free energy    TOTEN  =       -30.10800725 eV

  energy without entropy =      -30.10800725  energy(sigma->0) =      -30.10800725


--------------------------------------------------------------------------------------------------------




----------------------------------------- Iteration    1(   5)  ---------------------------------------


     EDDAV:  cpu time   32.4102: real time   32.4892
       DOS:  cpu time    0.0000: real time    0.0000
    CHARGE:  cpu time    6.7393: real time    6.7557
    MIXING:  cpu time    1.7275: real time    1.7317
    --------------------------------------------
      LOOP:  cpu time   40.8800: real time   40.9813

 eigenvalue-minimisations  :    36
 total energy-change (2. order) :-0.3541622E+01  (-0.3539595E+01)
 number of electron      14.0000000 magnetization 
 augmentation part        0.1812696 magnetization 

 Broyden mixing:
  rms(total) = 0.98943E+00    rms(broyden)= 0.98943E+00
  rms(prec ) = 0.10203E+01
  weight for this iteration     100.00

 Free energy of the ion-electron system (eV)
  ---------------------------------------------------
  alpha Z        PSCENC =         0.01477374
  Ewald energy   TEWEN  =       574.48221640
  -Hartree energ DENC   =     -1038.58144151
  -exchange      EXHF   =         0.00000000
  -V(xc)+E(xc)   XCENC  =        42.37246639
  PAW double counting   =       464.82387728     -460.60093113
  entropy T*S    EENTRO =        -0.00000000
  eigenvalues    EBANDS =      -245.64661522
  atomic energy  EATOM  =       629.48602445
  Solvation  Ediel_sol  =         0.00000000
  ---------------------------------------------------
  free energy    TOTEN  =       -33.64962960 eV

  energy without entropy =      -33.64962960  energy(sigma->0) =      -33.64962960


--------------------------------------------------------------------------------------------------------




----------------------------------------- Iteration    1(   6)  ---------------------------------------


    POTLOK:  cpu time   64.6167: real time   64.7738
    SETDIJ:  cpu time    0.1371: real time    0.1374
     EDDAV:  cpu time   32.8489: real time   32.9290
       DOS:  cpu time    0.0000: real time    0.0000
    CHARGE:  cpu time    6.5667: real time    6.5827
    MIXING:  cpu time    1.7896: real time    1.7939
    --------------------------------------------
      LOOP:  cpu time  105.9617: real time  106.2218

 eigenvalue-minimisations  :    36
 total energy-change (2. order) : 0.2687962E+01  (-0.7395159E+00)
 number of electron      14.0000000 magnetization 
 augmentation part        0.1400865 magnetization 

 Broyden mixing:
  rms(total) = 0.46707E+00    rms(broyden)= 0.46707E+00
  rms(prec ) = 0.47965E+00
  weight for this iteration     100.00

 eigenvalues of (default mixing * dielectric matrix)
  average eigenvalue GAMMA=   1.3081
  1.3081

 Free energy of the ion-electron system (eV)
  ---------------------------------------------------
  alpha Z        PSCENC =         0.01477374
  Ewald energy   TEWEN  =       574.48221640
  -Hartree energ DENC   =     -1071.51859070
  -exchange      EXHF   =         0.00000000
  -V(xc)+E(xc)   XCENC  =        44.09928833
  PAW double counting   =       555.21733553     -551.28213221
  entropy T*S    EENTRO =        -0.00000000
  eigenvalues    EBANDS =      -211.46058278
  atomic energy  EATOM  =       629.48602445
  Solvation  Ediel_sol  =         0.00000000
  ---------------------------------------------------
  free energy    TOTEN  =       -30.96166724 eV

  energy without entropy =      -30.96166724  energy(sigma->0) =      -30.96166724


--------------------------------------------------------------------------------------------------------




----------------------------------------- Iteration    1(   7)  ---------------------------------------


    POTLOK:  cpu time   64.8498: real time   65.0127
    SETDIJ:  cpu time    0.1434: real time    0.1437
     EDDAV:  cpu time   38.5524: real time   38.6463
       DOS:  cpu time    0.0000: real time    0.0000
    CHARGE:  cpu time    6.5642: real time    6.5802
    MIXING:  cpu time    1.8415: real time    1.8460
    --------------------------------------------
      LOOP:  cpu time  111.9540: real time  112.2341

 eigenvalue-minimisations  :    44
 total energy-change (2. order) : 0.5331393E+00  (-0.1215199E+00)
 number of electron      14.0000000 magnetization 
 augmentation part        0.1324899 magnetization 

 Broyden mixing:
  rms(total) = 0.23064E+00    rms(broyden)= 0.23064E+00
  rms(prec ) = 0.23608E+00
  weight for this iteration     100.00

 eigenvalues of (default mixing * dielectric matrix)
  average eigenvalue GAMMA=   1.7199
  1.3415  2.0984

 Free energy of the ion-electron system (eV)
  ---------------------------------------------------
  alpha Z        PSCENC =         0.01477374
  Ewald energy   TEWEN  =       574.48221640
  -Hartree energ DENC   =     -1087.77734615
  -exchange      EXHF   =         0.00000000
  -V(xc)+E(xc)   XCENC  =        45.08459955
  PAW double counting   =       588.56701943     -584.66930591
  entropy T*S    EENTRO =        -0.00000000
  eigenvalues    EBANDS =      -195.61650939
  atomic energy  EATOM  =       629.48602445
  Solvation  Ediel_sol  =         0.00000000
  ---------------------------------------------------
  free energy    TOTEN  =       -30.42852789 eV

  energy without entropy =      -30.42852789  energy(sigma->0) =      -30.42852789


--------------------------------------------------------------------------------------------------------




----------------------------------------- Iteration    1(   8)  ---------------------------------------


    POTLOK:  cpu time   64.9334: real time   65.0913
    SETDIJ:  cpu time    0.1377: real time    0.1381
     EDDAV:  cpu time   36.4463: real time   36.5354
       DOS:  cpu time    0.0000: real time    0.0000
    CHARGE:  cpu time    6.5637: real time    6.5797
    MIXING:  cpu time    1.9015: real time    1.9061
    --------------------------------------------
      LOOP:  cpu time  109.9854: real time  110.2555

 eigenvalue-minimisations  :    41
 total energy-change (2. order) : 0.1526172E+00  (-0.2445866E-01)
 number of electron      14.0000000 magnetization 
 augmentation part        0.1393285 magnetization 

 Broyden mixing:
  rms(total) = 0.45492E-01    rms(broyden)= 0.45492E-01
  rms(prec ) = 0.49805E-01
  weight for this iteration     100.00

 eigenvalues of (default mixing * dielectric matrix)
  average eigenvalue GAMMA=   1.5860
  2.2703  1.2438  1.2438

 Free energy of the ion-electron system (eV)
  ---------------------------------------------------
  alpha Z        PSCENC =         0.01477374
  Ewald energy   TEWEN  =       574.48221640
  -Hartree energ DENC   =     -1095.33911845
  -exchange      EXHF   =         0.00000000
  -V(xc)+E(xc)   XCENC  =        45.64163631
  PAW double counting   =       588.01191441     -584.07227439
  entropy T*S    EENTRO =        -0.00000000
  eigenvalues    EBANDS =      -188.50108320
  atomic energy  EATOM  =       629.48602445
  Solvation  Ediel_sol  =         0.00000000
  ---------------------------------------------------
  free energy    TOTEN  =       -30.27591074 eV

  energy without entropy =      -30.27591074  energy(sigma->0) =      -30.27591074


--------------------------------------------------------------------------------------------------------




----------------------------------------- Iteration    1(   9)  ---------------------------------------


    POTLOK:  cpu time   65.0472: real time   65.2053
    SETDIJ:  cpu time    0.1436: real time    0.1439
     EDDAV:  cpu time   32.8796: real time   32.9597
       DOS:  cpu time    0.0000: real time    0.0000
    CHARGE:  cpu time    6.5592: real time    6.5752
    MIXING:  cpu time    1.9653: real time    1.9701
    --------------------------------------------
      LOOP:  cpu time  106.5977: real time  106.8597

 eigenvalue-minimisations  :    36
 total energy-change (2. order) : 0.1310936E-01  (-0.6876905E-02)
 number of electron      14.0000000 magnetization 
 augmentation part        0.1357610 magnetization 

 Broyden mixing:
  rms(total) = 0.27958E-01    rms(broyden)= 0.27958E-01
  rms(prec ) = 0.30729E-01
  weight for this iteration     100.00

 eigenvalues of (default mixing * dielectric matrix)
  average eigenvalue GAMMA=   1.5069
  2.0353  1.9259  1.0332  1.0332

 Free energy of the ion-electron system (eV)
  ---------------------------------------------------
  alpha Z        PSCENC =         0.01477374
  Ewald energy   TEWEN  =       574.48221640
  -Hartree energ DENC   =     -1098.99052967
  -exchange      EXHF   =         0.00000000
  -V(xc)+E(xc)   XCENC  =        45.81008952
  PAW double counting   =       593.79110844     -589.87172823
  entropy T*S    EENTRO =        -0.00000000
  eigenvalues    EBANDS =      -184.98475602
  atomic energy  EATOM  =       629.48602445
  Solvation  Ediel_sol  =         0.00000000
  ---------------------------------------------------
  free energy    TOTEN  =       -30.26280137 eV

  energy without entropy =      -30.26280137  energy(sigma->0) =      -30.26280137


--------------------------------------------------------------------------------------------------------




----------------------------------------- Iteration    1(  10)  ---------------------------------------


    POTLOK:  cpu time   65.1792: real time   65.3376
    SETDIJ:  cpu time    0.1379: real time    0.1383
     EDDAV:  cpu time   30.8183: real time   30.8934
       DOS:  cpu time    0.0000: real time    0.0000
    CHARGE:  cpu time    6.5578: real time    6.5737
    MIXING:  cpu time    2.0496: real time    2.0546
    --------------------------------------------
      LOOP:  cpu time  104.7455: real time  105.0028

 eigenvalue-minimisations  :    33
 total energy-change (2. order) : 0.8026056E-03  (-0.5385479E-03)
 number of electron      14.0000000 magnetization 
 augmentation part        0.1367774 magnetization 

 Broyden mixing:
  rms(total) = 0.13059E-01    rms(broyden)= 0.13059E-01
  rms(prec ) = 0.16218E-01
  weight for this iteration     100.00

 eigenvalues of (default mixing * dielectric matrix)
  average eigenvalue GAMMA=   1.5903
  2.1322  2.1322  1.0271  1.3300  1.3300

 Free energy of the ion-electron system (eV)
  ---------------------------------------------------
  alpha Z        PSCENC =         0.01477374
  Ewald energy   TEWEN  =       574.48221640
  -Hartree energ DENC   =     -1099.65718564
  -exchange      EXHF   =         0.00000000
  -V(xc)+E(xc)   XCENC  =        45.81608305
  PAW double counting   =       592.32742999     -588.40136810
  entropy T*S    EENTRO =        -0.00000000
  eigenvalues    EBANDS =      -184.32997265
  atomic energy  EATOM  =       629.48602445
  Solvation  Ediel_sol  =         0.00000000
  ---------------------------------------------------
  free energy    TOTEN  =       -30.26199877 eV

  energy without entropy =      -30.26199877  energy(sigma->0) =      -30.26199877


--------------------------------------------------------------------------------------------------------




----------------------------------------- Iteration    1(  11)  ---------------------------------------


    POTLOK:  cpu time   65.3263: real time   65.4851
    SETDIJ:  cpu time    0.1367: real time    0.1371
     EDDAV:  cpu time   28.7848: real time   28.8550
       DOS:  cpu time    0.0000: real time    0.0000
    CHARGE:  cpu time    6.5673: real time    6.5833
    MIXING:  cpu time    2.1072: real time    2.1123
    --------------------------------------------
      LOOP:  cpu time  102.9251: real time  103.1781

 eigenvalue-minimisations  :    30
 total energy-change (2. order) :-0.1268943E-02  (-0.2918482E-03)
 number of electron      14.0000000 magnetization 
 augmentation part        0.1375164 magnetization 

 Broyden mixing:
  rms(total) = 0.83706E-02    rms(broyden)= 0.83706E-02
  rms(prec ) = 0.10619E-01
  weight for this iteration     100.00

 eigenvalues of (default mixing * dielectric matrix)
  average eigenvalue GAMMA=   1.6124
  2.9771  2.3974  1.3589  1.0345  1.0345  0.8721

 Free energy of the ion-electron system (eV)
  ---------------------------------------------------
  alpha Z        PSCENC =         0.01477374
  Ewald energy   TEWEN  =       574.48221640
  -Hartree energ DENC   =     -1100.99335942
  -exchange      EXHF   =         0.00000000
  -V(xc)+E(xc)   XCENC  =        45.84650646
  PAW double counting   =       593.95306926     -590.02593120
  entropy T*S    EENTRO =        -0.00000000
  eigenvalues    EBANDS =      -183.02656740
  atomic energy  EATOM  =       629.48602445
  Solvation  Ediel_sol  =         0.00000000
  ---------------------------------------------------
  free energy    TOTEN  =       -30.26326771 eV

  energy without entropy =      -30.26326771  energy(sigma->0) =      -30.26326771


--------------------------------------------------------------------------------------------------------




----------------------------------------- Iteration    1(  12)  ---------------------------------------


    POTLOK:  cpu time   65.4161: real time   65.5796
    SETDIJ:  cpu time    0.1367: real time    0.1370
     EDDAV:  cpu time   27.2999: real time   27.3665
       DOS:  cpu time    0.0000: real time    0.0000
    CHARGE:  cpu time    6.5625: real time    6.5785
    MIXING:  cpu time    2.1862: real time    2.1915
    --------------------------------------------
      LOOP:  cpu time  101.6041: real time  101.8581

 eigenvalue-minimisations  :    28
 total energy-change (2. order) :-0.1612939E-02  (-0.1335667E-03)
 number of electron      14.0000000 magnetization 
 augmentation part        0.1373026 magnetization 

 Broyden mixing:
  rms(total) = 0.46619E-02    rms(broyden)= 0.46619E-02
  rms(prec ) = 0.63575E-02
  weight for this iteration     100.00

 eigenvalues of (default mixing * dielectric matrix)
  average eigenvalue GAMMA=   1.7278
  3.3069  2.3985  1.9795  1.2047  1.2047  1.0002  1.0002

 Free energy of the ion-electron system (eV)
  ---------------------------------------------------
  alpha Z        PSCENC =         0.01477374
  Ewald energy   TEWEN  =       574.48221640
  -Hartree energ DENC   =     -1102.10640642
  -exchange      EXHF   =         0.00000000
  -V(xc)+E(xc)   XCENC  =        45.87272450
  PAW double counting   =       595.55371063     -591.62885557
  entropy T*S    EENTRO =        -0.00000000
  eigenvalues    EBANDS =      -181.93906837
  atomic energy  EATOM  =       629.48602445
  Solvation  Ediel_sol  =         0.00000000
  ---------------------------------------------------
  free energy    TOTEN  =       -30.26488065 eV

  energy without entropy =      -30.26488065  energy(sigma->0) =      -30.26488065


--------------------------------------------------------------------------------------------------------




----------------------------------------- Iteration    1(  13)  ---------------------------------------


    POTLOK:  cpu time   65.5012: real time   65.6605
    SETDIJ:  cpu time    0.1471: real time    0.1475
     EDDAV:  cpu time   25.2175: real time   25.2790
       DOS:  cpu time    0.0000: real time    0.0000
    CHARGE:  cpu time    6.5666: real time    6.5825
    MIXING:  cpu time    2.2862: real time    2.2918
    --------------------------------------------
      LOOP:  cpu time   99.7213: real time   99.9662

 eigenvalue-minimisations  :    25
 total energy-change (2. order) :-0.5388818E-02  (-0.2958311E-03)
 number of electron      14.0000000 magnetization 
 augmentation part        0.1365884 magnetization 

 Broyden mixing:
  rms(total) = 0.74385E-02    rms(broyden)= 0.74385E-02
  rms(prec ) = 0.79384E-02
  weight for this iteration     100.00

 eigenvalues of (default mixing * dielectric matrix)
  average eigenvalue GAMMA=   1.8334
  4.4997  2.7019  2.1761  1.4482  0.9626  0.9626  0.9582  0.9582

 Free energy of the ion-electron system (eV)
  ---------------------------------------------------
  alpha Z        PSCENC =         0.01477374
  Ewald energy   TEWEN  =       574.48221640
  -Hartree energ DENC   =     -1103.10916870
  -exchange      EXHF   =         0.00000000
  -V(xc)+E(xc)   XCENC  =        45.89104257
  PAW double counting   =       596.48854431     -592.56592332
  entropy T*S    EENTRO =        -0.00000000
  eigenvalues    EBANDS =      -180.95777891
  atomic energy  EATOM  =       629.48602445
  Solvation  Ediel_sol  =         0.00000000
  ---------------------------------------------------
  free energy    TOTEN  =       -30.27026946 eV

  energy without entropy =      -30.27026946  energy(sigma->0) =      -30.27026946


--------------------------------------------------------------------------------------------------------




----------------------------------------- Iteration    1(  14)  ---------------------------------------


    POTLOK:  cpu time   65.6980: real time   65.8596
    SETDIJ:  cpu time    0.1368: real time    0.1371
     EDDAV:  cpu time   33.0016: real time   33.0820
       DOS:  cpu time    0.0000: real time    0.0000
    CHARGE:  cpu time    6.5618: real time    6.5778
    MIXING:  cpu time    2.3770: real time    2.3828
    --------------------------------------------
      LOOP:  cpu time  107.7779: real time  108.0447

 eigenvalue-minimisations  :    36
 total energy-change (2. order) :-0.2166526E-02  (-0.6708719E-04)
 number of electron      14.0000000 magnetization 
 augmentation part        0.1369496 magnetization 

 Broyden mixing:
  rms(total) = 0.31172E-02    rms(broyden)= 0.31172E-02
  rms(prec ) = 0.35190E-02
  weight for this iteration     100.00

 eigenvalues of (default mixing * dielectric matrix)
  average eigenvalue GAMMA=   1.8280
  4.9460  2.7436  2.2466  1.4494  1.0279  1.0279  1.0882  0.9503  0.9722

 Free energy of the ion-electron system (eV)
  ---------------------------------------------------
  alpha Z        PSCENC =         0.01477374
  Ewald energy   TEWEN  =       574.48221640
  -Hartree energ DENC   =     -1103.26184958
  -exchange      EXHF   =         0.00000000
  -V(xc)+E(xc)   XCENC  =        45.88398541
  PAW double counting   =       596.13282125     -592.20787571
  entropy T*S    EENTRO =        -0.00000000
  eigenvalues    EBANDS =      -180.80253194
  atomic energy  EATOM  =       629.48602445
  Solvation  Ediel_sol  =         0.00000000
  ---------------------------------------------------
  free energy    TOTEN  =       -30.27243599 eV

  energy without entropy =      -30.27243599  energy(sigma->0) =      -30.27243599


--------------------------------------------------------------------------------------------------------




----------------------------------------- Iteration    1(  15)  ---------------------------------------


    POTLOK:  cpu time   65.7038: real time   65.8636
    SETDIJ:  cpu time    0.1368: real time    0.1371
     EDDAV:  cpu time   38.6970: real time   38.7913
       DOS:  cpu time    0.0000: real time    0.0000
    CHARGE:  cpu time    6.5532: real time    6.5692
    MIXING:  cpu time    2.4980: real time    2.5041
    --------------------------------------------
      LOOP:  cpu time  113.5916: real time  113.8705

 eigenvalue-minimisations  :    44
 total energy-change (2. order) :-0.1837973E-02  (-0.2175012E-04)
 number of electron      14.0000000 magnetization 
 augmentation part        0.1371386 magnetization 

 Broyden mixing:
  rms(total) = 0.10914E-02    rms(broyden)= 0.10914E-02
  rms(prec ) = 0.15722E-02
  weight for this iteration     100.00

 eigenvalues of (default mixing * dielectric matrix)
  average eigenvalue GAMMA=   1.9408
  5.7411  3.0251  2.2269  2.0452  1.4323  1.0438  1.0438  1.0048  1.0048  0.8402

 Free energy of the ion-electron system (eV)
  ---------------------------------------------------
  alpha Z        PSCENC =         0.01477374
  Ewald energy   TEWEN  =       574.48221640
  -Hartree energ DENC   =     -1103.35063359
  -exchange      EXHF   =         0.00000000
  -V(xc)+E(xc)   XCENC  =        45.88152458
  PAW double counting   =       596.21397725     -592.28851925
  entropy T*S    EENTRO =        -0.00000000
  eigenvalues    EBANDS =      -180.71363753
  atomic energy  EATOM  =       629.48602445
  Solvation  Ediel_sol  =         0.00000000
  ---------------------------------------------------
  free energy    TOTEN  =       -30.27427396 eV

  energy without entropy =      -30.27427396  energy(sigma->0) =      -30.27427396


--------------------------------------------------------------------------------------------------------




----------------------------------------- Iteration    1(  16)  ---------------------------------------


    POTLOK:  cpu time   65.7204: real time   65.8802
    SETDIJ:  cpu time    0.1369: real time    0.1372
     EDDAV:  cpu time   32.9976: real time   33.0781
       DOS:  cpu time    0.0000: real time    0.0000
    CHARGE:  cpu time    6.5686: real time    6.5846
    MIXING:  cpu time    2.5925: real time    2.5988
    --------------------------------------------
      LOOP:  cpu time  108.0188: real time  108.2969

 eigenvalue-minimisations  :    36
 total energy-change (2. order) :-0.2312074E-02  (-0.1956095E-04)
 number of electron      14.0000000 magnetization 
 augmentation part        0.1371943 magnetization 

 Broyden mixing:
  rms(total) = 0.99181E-03    rms(broyden)= 0.99181E-03
  rms(prec ) = 0.11697E-02
  weight for this iteration     100.00

 eigenvalues of (default mixing * dielectric matrix)
  average eigenvalue GAMMA=   2.0724
  6.7006  3.7953  2.5383  2.1259  1.5537  1.0622  1.0622  1.0789  0.9918  0.9918
  0.8961

 Free energy of the ion-electron system (eV)
  ---------------------------------------------------
  alpha Z        PSCENC =         0.01477374
  Ewald energy   TEWEN  =       574.48221640
  -Hartree energ DENC   =     -1103.41637454
  -exchange      EXHF   =         0.00000000
  -V(xc)+E(xc)   XCENC  =        45.87704597
  PAW double counting   =       596.50378293     -592.57796620
  entropy T*S    EENTRO =        -0.00000000
  eigenvalues    EBANDS =      -180.64608879
  atomic energy  EATOM  =       629.48602445
  Solvation  Ediel_sol  =         0.00000000
  ---------------------------------------------------
  free energy    TOTEN  =       -30.27658604 eV

  energy without entropy =      -30.27658604  energy(sigma->0) =      -30.27658604


--------------------------------------------------------------------------------------------------------




----------------------------------------- Iteration    1(  17)  ---------------------------------------


    POTLOK:  cpu time   65.7691: real time   65.9294
    SETDIJ:  cpu time    0.1370: real time    0.1373
     EDDAV:  cpu time   34.5211: real time   34.6052
       DOS:  cpu time    0.0000: real time    0.0000
    CHARGE:  cpu time    6.6552: real time    6.6714
    MIXING:  cpu time    3.2596: real time    3.2675
    --------------------------------------------
      LOOP:  cpu time  110.3446: real time  110.6159

 eigenvalue-minimisations  :    36
 total energy-change (2. order) :-0.1082039E-02  (-0.8856111E-05)
 number of electron      14.0000000 magnetization 
 augmentation part        0.1371867 magnetization 

 Broyden mixing:
  rms(total) = 0.10547E-02    rms(broyden)= 0.10547E-02
  rms(prec ) = 0.11217E-02
  weight for this iteration     100.00

 eigenvalues of (default mixing * dielectric matrix)
  average eigenvalue GAMMA=   2.1383
  7.3601  4.1830  2.4602  2.4602  1.8136  1.4507  1.0583  1.0583  0.9947  0.9947
  0.9698  0.8558

 Free energy of the ion-electron system (eV)
  ---------------------------------------------------
  alpha Z        PSCENC =         0.01477374
  Ewald energy   TEWEN  =       574.48221640
  -Hartree energ DENC   =     -1103.44398237
  -exchange      EXHF   =         0.00000000
  -V(xc)+E(xc)   XCENC  =        45.87523364
  PAW double counting   =       596.52047705     -592.59454819
  entropy T*S    EENTRO =        -0.00000000
  eigenvalues    EBANDS =      -180.61786280
  atomic energy  EATOM  =       629.48602445
  Solvation  Ediel_sol  =         0.00000000
  ---------------------------------------------------
  free energy    TOTEN  =       -30.27766808 eV

  energy without entropy =      -30.27766808  energy(sigma->0) =      -30.27766808


--------------------------------------------------------------------------------------------------------




----------------------------------------- Iteration    1(  18)  ---------------------------------------


    POTLOK:  cpu time   75.2827: real time   75.4657
    SETDIJ:  cpu time    0.9474: real time    0.9498
     EDDAV:  cpu time   45.2064: real time   45.3166
       DOS:  cpu time    0.0000: real time    0.0000
    CHARGE:  cpu time    6.6586: real time    6.6748
    MIXING:  cpu time    3.3736: real time    3.3818
    --------------------------------------------
      LOOP:  cpu time  131.4714: real time  131.7937

 eigenvalue-minimisations  :    44
 total energy-change (2. order) :-0.5094062E-03  (-0.3344401E-05)
 number of electron      14.0000000 magnetization 
 augmentation part        0.1371249 magnetization 

 Broyden mixing:
  rms(total) = 0.22029E-03    rms(broyden)= 0.22029E-03
  rms(prec ) = 0.28623E-03
  weight for this iteration     100.00

 eigenvalues of (default mixing * dielectric matrix)
  average eigenvalue GAMMA=   2.1985
  7.9670  4.5211  2.6333  2.6333  2.0001  1.5844  1.0572  1.0572  1.2917  1.0182
  1.0182  0.9349  0.8630

 Free energy of the ion-electron system (eV)
  ---------------------------------------------------
  alpha Z        PSCENC =         0.01477374
  Ewald energy   TEWEN  =       574.48221640
  -Hartree energ DENC   =     -1103.46887573
  -exchange      EXHF   =         0.00000000
  -V(xc)+E(xc)   XCENC  =        45.87500997
  PAW double counting   =       596.44894248     -592.52315960
  entropy T*S    EENTRO =        -0.00000000
  eigenvalues    EBANDS =      -180.59310918
  atomic energy  EATOM  =       629.48602445
  Solvation  Ediel_sol  =         0.00000000
  ---------------------------------------------------
  free energy    TOTEN  =       -30.27817748 eV

  energy without entropy =      -30.27817748  energy(sigma->0) =      -30.27817748


--------------------------------------------------------------------------------------------------------




----------------------------------------- Iteration    1(  19)  ---------------------------------------


    POTLOK:  cpu time   75.2298: real time   75.4127
    SETDIJ:  cpu time    0.9488: real time    0.9511
     EDDAV:  cpu time   31.9100: real time   31.9878
       DOS:  cpu time    0.0000: real time    0.0000
    CHARGE:  cpu time    6.6618: real time    6.6780
    MIXING:  cpu time    3.4932: real time    3.5017
    --------------------------------------------
      LOOP:  cpu time  118.2462: real time  118.5360

 eigenvalue-minimisations  :    28
 total energy-change (2. order) :-0.2447621E-03  (-0.5338025E-06)
 number of electron      14.0000000 magnetization 
 augmentation part        0.1371280 magnetization 

 Broyden mixing:
  rms(total) = 0.27898E-03    rms(broyden)= 0.27898E-03
  rms(prec ) = 0.30099E-03
  weight for this iteration     100.00

 eigenvalues of (default mixing * dielectric matrix)
  average eigenvalue GAMMA=   2.2405
  8.2892  5.0405  3.0830  2.3236  2.3236  1.9649  1.4538  1.0522  1.0522  1.0075
  1.0075  0.9683  0.8699  0.9315

 Free energy of the ion-electron system (eV)
  ---------------------------------------------------
  alpha Z        PSCENC =         0.01477374
  Ewald energy   TEWEN  =       574.48221640
  -Hartree energ DENC   =     -1103.47344523
  -exchange      EXHF   =         0.00000000
  -V(xc)+E(xc)   XCENC  =        45.87464323
  PAW double counting   =       596.49382409     -592.56809630
  entropy T*S    EENTRO =        -0.00000000
  eigenvalues    EBANDS =      -180.58836262
  atomic energy  EATOM  =       629.48602445
  Solvation  Ediel_sol  =         0.00000000
  ---------------------------------------------------
  free energy    TOTEN  =       -30.27842224 eV

  energy without entropy =      -30.27842224  energy(sigma->0) =      -30.27842224


--------------------------------------------------------------------------------------------------------




----------------------------------------- Iteration    1(  20)  ---------------------------------------


    POTLOK:  cpu time   75.1897: real time   75.3726
    SETDIJ:  cpu time    0.9456: real time    0.9479
     EDDAV:  cpu time   33.6409: real time   33.7229
       DOS:  cpu time    0.0000: real time    0.0000
    CHARGE:  cpu time    6.6590: real time    6.6752
    MIXING:  cpu time    3.6488: real time    3.6577
    --------------------------------------------
      LOOP:  cpu time  120.0868: real time  120.3813

 eigenvalue-minimisations  :    30
 total energy-change (2. order) :-0.1117440E-03  (-0.1891594E-06)
 number of electron      14.0000000 magnetization 
 augmentation part        0.1371274 magnetization 

 Broyden mixing:
  rms(total) = 0.19097E-03    rms(broyden)= 0.19097E-03
  rms(prec ) = 0.20327E-03
  weight for this iteration     100.00

 eigenvalues of (default mixing * dielectric matrix)
  average eigenvalue GAMMA=   2.2740
  8.6900  5.3906  3.2860  2.4727  2.3688  2.1104  1.5049  1.3753  1.0515  1.0515
  1.0265  1.0265  0.9630  0.8876  0.9053

 Free energy of the ion-electron system (eV)
  ---------------------------------------------------
  alpha Z        PSCENC =         0.01477374
  Ewald energy   TEWEN  =       574.48221640
  -Hartree energ DENC   =     -1103.47808359
  -exchange      EXHF   =         0.00000000
  -V(xc)+E(xc)   XCENC  =        45.87458784
  PAW double counting   =       596.55512383     -592.62947135
  entropy T*S    EENTRO =        -0.00000000
  eigenvalues    EBANDS =      -180.58370530
  atomic energy  EATOM  =       629.48602445
  Solvation  Ediel_sol  =         0.00000000
  ---------------------------------------------------
  free energy    TOTEN  =       -30.27853399 eV

  energy without entropy =      -30.27853399  energy(sigma->0) =      -30.27853399


--------------------------------------------------------------------------------------------------------




----------------------------------------- Iteration    1(  21)  ---------------------------------------


    POTLOK:  cpu time   75.0964: real time   75.2789
    SETDIJ:  cpu time    0.9446: real time    0.9469
     EDDAV:  cpu time   38.6638: real time   38.7580
       DOS:  cpu time    0.0000: real time    0.0000
    CHARGE:  cpu time    6.6524: real time    6.6686
    MIXING:  cpu time    3.7890: real time    3.7982
    --------------------------------------------
      LOOP:  cpu time  125.1489: real time  125.4553

 eigenvalue-minimisations  :    36
 total energy-change (2. order) :-0.6257780E-04  (-0.1378999E-06)
 number of electron      14.0000000 magnetization 
 augmentation part        0.1371463 magnetization 

 Broyden mixing:
  rms(total) = 0.11711E-03    rms(broyden)= 0.11711E-03
  rms(prec ) = 0.12453E-03
  weight for this iteration     100.00

 eigenvalues of (default mixing * dielectric matrix)
  average eigenvalue GAMMA=   2.3085
  8.9401  5.7088  3.7045  2.5112  2.2948  2.2948  2.1173  1.4930  1.0485  1.0485
  1.0030  1.0030  0.9930  0.9930  0.8916  0.8916

 Free energy of the ion-electron system (eV)
  ---------------------------------------------------
  alpha Z        PSCENC =         0.01477374
  Ewald energy   TEWEN  =       574.48221640
  -Hartree energ DENC   =     -1103.47470736
  -exchange      EXHF   =         0.00000000
  -V(xc)+E(xc)   XCENC  =        45.87421783
  PAW double counting   =       596.55032558     -592.62461646
  entropy T*S    EENTRO =        -0.00000000
  eigenvalues    EBANDS =      -180.58683074
  atomic energy  EATOM  =       629.48602445
  Solvation  Ediel_sol  =         0.00000000
  ---------------------------------------------------
  free energy    TOTEN  =       -30.27859657 eV

  energy without entropy =      -30.27859657  energy(sigma->0) =      -30.27859657


--------------------------------------------------------------------------------------------------------




----------------------------------------- Iteration    1(  22)  ---------------------------------------


    POTLOK:  cpu time   74.9469: real time   75.1291
    SETDIJ:  cpu time    0.9305: real time    0.9328
     EDDAV:  cpu time   31.9945: real time   32.0724
       DOS:  cpu time    0.0000: real time    0.0000
    CHARGE:  cpu time    6.6559: real time    6.6721
    MIXING:  cpu time    3.9295: real time    3.9391
    --------------------------------------------
      LOOP:  cpu time  118.4600: real time  118.7503

 eigenvalue-minimisations  :    28
 total energy-change (2. order) :-0.2922496E-04  (-0.4074654E-07)
 number of electron      14.0000000 magnetization 
 augmentation part        0.1371386 magnetization 

 Broyden mixing:
  rms(total) = 0.31381E-04    rms(broyden)= 0.31381E-04
  rms(prec ) = 0.37608E-04
  weight for this iteration     100.00

 eigenvalues of (default mixing * dielectric matrix)
  average eigenvalue GAMMA=   2.3230
  9.2048  6.0231  4.2505  2.7153  2.2677  2.1518  2.1518  1.4963  1.4005  1.0477
  1.0477  1.0257  1.0257  1.0220  0.9042  0.9042  0.8512

 Free energy of the ion-electron system (eV)
  ---------------------------------------------------
  alpha Z        PSCENC =         0.01477374
  Ewald energy   TEWEN  =       574.48221640
  -Hartree energ DENC   =     -1103.48026887
  -exchange      EXHF   =         0.00000000
  -V(xc)+E(xc)   XCENC  =        45.87442952
  PAW double counting   =       596.52398970     -592.59829408
  entropy T*S    EENTRO =        -0.00000000
  eigenvalues    EBANDS =      -180.58149665
  atomic energy  EATOM  =       629.48602445
  Solvation  Ediel_sol  =         0.00000000
  ---------------------------------------------------
  free energy    TOTEN  =       -30.27862579 eV

  energy without entropy =      -30.27862579  energy(sigma->0) =      -30.27862579


--------------------------------------------------------------------------------------------------------




----------------------------------------- Iteration    1(  23)  ---------------------------------------


    POTLOK:  cpu time   74.8892: real time   75.0712
    SETDIJ:  cpu time    0.9270: real time    0.9293
     EDDAV:  cpu time   33.6968: real time   33.7789
       DOS:  cpu time    0.0000: real time    0.0000
    CHARGE:  cpu time    6.6421: real time    6.6583
    MIXING:  cpu time    4.0845: real time    4.0945
    --------------------------------------------
      LOOP:  cpu time  120.2424: real time  120.5368

 eigenvalue-minimisations  :    30
 total energy-change (2. order) :-0.1536939E-04  (-0.1275801E-07)
 number of electron      14.0000000 magnetization 
 augmentation part        0.1371391 magnetization 

 Broyden mixing:
  rms(total) = 0.16195E-04    rms(broyden)= 0.16195E-04
  rms(prec ) = 0.20067E-04
  weight for this iteration     100.00

 eigenvalues of (default mixing * dielectric matrix)
  average eigenvalue GAMMA=   2.3285
  9.3071  6.3480  4.4823  2.9905  2.4648  2.0198  2.0198  1.9945  1.5450  1.0477
  1.0477  1.0125  1.0125  1.0078  1.0078  0.8896  0.8896  0.8256

 Free energy of the ion-electron system (eV)
  ---------------------------------------------------
  alpha Z        PSCENC =         0.01477374
  Ewald energy   TEWEN  =       574.48221640
  -Hartree energ DENC   =     -1103.48055932
  -exchange      EXHF   =         0.00000000
  -V(xc)+E(xc)   XCENC  =        45.87437908
  PAW double counting   =       596.52988728     -592.60418545
  entropy T*S    EENTRO =        -0.00000000
  eigenvalues    EBANDS =      -180.58117734
  atomic energy  EATOM  =       629.48602445
  Solvation  Ediel_sol  =         0.00000000
  ---------------------------------------------------
  free energy    TOTEN  =       -30.27864116 eV

  energy without entropy =      -30.27864116  energy(sigma->0) =      -30.27864116


--------------------------------------------------------------------------------------------------------




----------------------------------------- Iteration    1(  24)  ---------------------------------------


    POTLOK:  cpu time   74.8120: real time   74.9985
    SETDIJ:  cpu time    0.9245: real time    0.9267
     EDDAV:  cpu time   31.9342: real time   32.0121
       DOS:  cpu time    0.0000: real time    0.0000
    CHARGE:  cpu time    6.6397: real time    6.6558
    MIXING:  cpu time    4.2395: real time    4.2499
    --------------------------------------------
      LOOP:  cpu time  118.5527: real time  118.8474

 eigenvalue-minimisations  :    28
 total energy-change (2. order) :-0.7211170E-05  (-0.2802816E-08)
 number of electron      14.0000000 magnetization 
 augmentation part        0.1371401 magnetization 

 Broyden mixing:
  rms(total) = 0.17216E-04    rms(broyden)= 0.17216E-04
  rms(prec ) = 0.18999E-04
  weight for this iteration     100.00

 eigenvalues of (default mixing * dielectric matrix)
  average eigenvalue GAMMA=   2.3855
  9.4909  6.6969  4.8380  3.5747  2.7537  2.3988  1.9089  1.9089  1.4802  1.4802
  1.0469  1.0469  1.0328  1.0328  1.0330  0.9345  0.9345  0.8663  0.8663

 Free energy of the ion-electron system (eV)
  ---------------------------------------------------
  alpha Z        PSCENC =         0.01477374
  Ewald energy   TEWEN  =       574.48221640
  -Hartree energ DENC   =     -1103.48027423
  -exchange      EXHF   =         0.00000000
  -V(xc)+E(xc)   XCENC  =        45.87434264
  PAW double counting   =       596.53938364     -592.61368339
  entropy T*S    EENTRO =        -0.00000000
  eigenvalues    EBANDS =      -180.58143162
  atomic energy  EATOM  =       629.48602445
  Solvation  Ediel_sol  =         0.00000000
  ---------------------------------------------------
  free energy    TOTEN  =       -30.27864837 eV

  energy without entropy =      -30.27864837  energy(sigma->0) =      -30.27864837


--------------------------------------------------------------------------------------------------------




----------------------------------------- Iteration    1(  25)  ---------------------------------------


    POTLOK:  cpu time   74.9231: real time   75.1086
    SETDIJ:  cpu time    0.9242: real time    0.9264
     EDDAV:  cpu time   26.9873: real time   27.0530
       DOS:  cpu time    0.0000: real time    0.0000
    CHARGE:  cpu time    6.6456: real time    6.6618
    MIXING:  cpu time    4.4250: real time    4.4358
    --------------------------------------------
      LOOP:  cpu time  113.9079: real time  114.1902

 eigenvalue-minimisations  :    22
 total energy-change (2. order) :-0.5899596E-05  (-0.2656224E-08)
 number of electron      14.0000000 magnetization 
 augmentation part        0.1371399 magnetization 

 Broyden mixing:
  rms(total) = 0.74079E-05    rms(broyden)= 0.74079E-05
  rms(prec ) = 0.82002E-05
  weight for this iteration     100.00

 eigenvalues of (default mixing * dielectric matrix)
  average eigenvalue GAMMA=   2.3630
  9.5260  6.9266  5.0250  3.7680  2.6901  2.3313  1.9843  1.9843  1.7211  1.5706
  1.0469  1.0469  1.0219  1.0219  1.0139  1.0139  0.9249  0.9249  0.8586  0.8586

 Free energy of the ion-electron system (eV)
  ---------------------------------------------------
  alpha Z        PSCENC =         0.01477374
  Ewald energy   TEWEN  =       574.48221640
  -Hartree energ DENC   =     -1103.48031733
  -exchange      EXHF   =         0.00000000
  -V(xc)+E(xc)   XCENC  =        45.87433849
  PAW double counting   =       596.53807262     -592.61236918
  entropy T*S    EENTRO =        -0.00000000
  eigenvalues    EBANDS =      -180.58139345
  atomic energy  EATOM  =       629.48602445
  Solvation  Ediel_sol  =         0.00000000
  ---------------------------------------------------
  free energy    TOTEN  =       -30.27865427 eV

  energy without entropy =      -30.27865427  energy(sigma->0) =      -30.27865427


--------------------------------------------------------------------------------------------------------




----------------------------------------- Iteration    1(  26)  ---------------------------------------


    POTLOK:  cpu time   74.9927: real time   75.1762
    SETDIJ:  cpu time    0.9220: real time    0.9242
     EDDAV:  cpu time   38.5922: real time   38.6862
       DOS:  cpu time    0.0000: real time    0.0000
    CHARGE:  cpu time    6.6445: real time    6.6607
    MIXING:  cpu time    4.5891: real time    4.6003
    --------------------------------------------
      LOOP:  cpu time  125.7432: real time  126.0522

 eigenvalue-minimisations  :    36
 total energy-change (2. order) :-0.1137745E-05  (-0.8562218E-09)
 number of electron      14.0000000 magnetization 
 augmentation part        0.1371403 magnetization 

 Broyden mixing:
  rms(total) = 0.64573E-05    rms(broyden)= 0.64573E-05
  rms(prec ) = 0.69781E-05
  weight for this iteration     100.00

 eigenvalues of (default mixing * dielectric matrix)
  average eigenvalue GAMMA=   2.3451
  9.5325  7.1191  5.1673  3.9343  2.5491  2.2466  2.2466  2.2726  1.9237  1.4963
  1.0456  1.0456  1.0672  1.0672  0.9905  0.9905  0.9794  0.9794  0.8960  0.8488
  0.8488

 Free energy of the ion-electron system (eV)
  ---------------------------------------------------
  alpha Z        PSCENC =         0.01477374
  Ewald energy   TEWEN  =       574.48221640
  -Hartree energ DENC   =     -1103.48034699
  -exchange      EXHF   =         0.00000000
  -V(xc)+E(xc)   XCENC  =        45.87433769
  PAW double counting   =       596.53969067     -592.61398822
  entropy T*S    EENTRO =        -0.00000000
  eigenvalues    EBANDS =      -180.58136315
  atomic energy  EATOM  =       629.48602445
  Solvation  Ediel_sol  =         0.00000000
  ---------------------------------------------------
  free energy    TOTEN  =       -30.27865541 eV

  energy without entropy =      -30.27865541  energy(sigma->0) =      -30.27865541


--------------------------------------------------------------------------------------------------------




----------------------------------------- Iteration    1(  27)  ---------------------------------------


    POTLOK:  cpu time   75.0598: real time   75.2436
    SETDIJ:  cpu time    0.9282: real time    0.9305
     EDDAV:  cpu time   26.9651: real time   27.0314
       DOS:  cpu time    0.0000: real time    0.0000
    CHARGE:  cpu time    6.6470: real time    6.6632
    MIXING:  cpu time    4.7697: real time    4.7813
    --------------------------------------------
      LOOP:  cpu time  114.3725: real time  114.6549

 eigenvalue-minimisations  :    22
 total energy-change (2. order) :-0.8877481E-06  (-0.5782788E-09)
 number of electron      14.0000000 magnetization 
 augmentation part        0.1371407 magnetization 

 Broyden mixing:
  rms(total) = 0.37659E-05    rms(broyden)= 0.37659E-05
  rms(prec ) = 0.41138E-05
  weight for this iteration     100.00

 eigenvalues of (default mixing * dielectric matrix)
  average eigenvalue GAMMA=   2.3817
  9.6278  7.3831  5.5659  4.2273  3.1843  2.5306  2.1013  1.9582  1.9582  1.7445
  1.4139  1.0466  1.0466  1.0747  1.0274  1.0274  0.9479  0.9479  0.9655  0.8854
  0.8854  0.8473

 Free energy of the ion-electron system (eV)
  ---------------------------------------------------
  alpha Z        PSCENC =         0.01477374
  Ewald energy   TEWEN  =       574.48221640
  -Hartree energ DENC   =     -1103.48028751
  -exchange      EXHF   =         0.00000000
  -V(xc)+E(xc)   XCENC  =        45.87433078
  PAW double counting   =       596.54375866     -592.61805713
  entropy T*S    EENTRO =        -0.00000000
  eigenvalues    EBANDS =      -180.58141567
  atomic energy  EATOM  =       629.48602445
  Solvation  Ediel_sol  =         0.00000000
  ---------------------------------------------------
  free energy    TOTEN  =       -30.27865630 eV

  energy without entropy =      -30.27865630  energy(sigma->0) =      -30.27865630


--------------------------------------------------------------------------------------------------------




----------------------------------------- Iteration    1(  28)  ---------------------------------------


    POTLOK:  cpu time   74.9342: real time   75.1163
    SETDIJ:  cpu time    0.9262: real time    0.9285
     EDDAV:  cpu time   33.6541: real time   33.7361
       DOS:  cpu time    0.0000: real time    0.0000
    CHARGE:  cpu time    6.6489: real time    6.6651
    MIXING:  cpu time    4.9541: real time    4.9661
    --------------------------------------------
      LOOP:  cpu time  121.1204: real time  121.4566

 eigenvalue-minimisations  :    30
 total energy-change (2. order) :-0.6123955E-06  (-0.5080327E-09)
 number of electron      14.0000000 magnetization 
 augmentation part        0.1371408 magnetization 

 Broyden mixing:
  rms(total) = 0.59584E-05    rms(broyden)= 0.59584E-05
  rms(prec ) = 0.61331E-05
  weight for this iteration     100.00

 eigenvalues of (default mixing * dielectric matrix)
  average eigenvalue GAMMA=   2.3787
  9.6530  7.5114  5.7293  4.3683  3.2594  2.6246  2.1886  2.1886  2.2251  1.7320
  1.5158  1.0451  1.0451  1.0393  1.0393  1.0960  1.0044  1.0044  0.9087  0.9087
  0.8758  0.8739  0.8739

 Free energy of the ion-electron system (eV)
  ---------------------------------------------------
  alpha Z        PSCENC =         0.01477374
  Ewald energy   TEWEN  =       574.48221640
  -Hartree energ DENC   =     -1103.48031875
  -exchange      EXHF   =         0.00000000
  -V(xc)+E(xc)   XCENC  =        45.87432986
  PAW double counting   =       596.54555477     -592.61985372
  entropy T*S    EENTRO =        -0.00000000
  eigenvalues    EBANDS =      -180.58138365
  atomic energy  EATOM  =       629.48602445
  Solvation  Ediel_sol  =         0.00000000
  ---------------------------------------------------
  free energy    TOTEN  =       -30.27865691 eV

  energy without entropy =      -30.27865691  energy(sigma->0) =      -30.27865691


[...]




----------------------------------------- Iteration    1(  29)  ---------------------------------------


    POTLOK:  cpu time   74.9159: real time   75.1006
    SETDIJ:  cpu time    0.9238: real time    0.9260
     EDDAV:  cpu time   38.5932: real time   38.6872
       DOS:  cpu time    0.0000: real time    0.0000
    CHARGE:  cpu time    6.6546: real time    6.6708
    MIXING:  cpu time    5.1338: real time    5.1463
    --------------------------------------------
      LOOP:  cpu time  126.2240: real time  126.5358

 eigenvalue-minimisations  :    36
 total energy-change (2. order) :-0.2608014E-06  (-0.3937863E-09)
 number of electron      14.0000000 magnetization 
 augmentation part        0.1371405 magnetization 

 Broyden mixing:
  rms(total) = 0.20462E-05    rms(broyden)= 0.20462E-05
  rms(prec ) = 0.21365E-05
  weight for this iteration     100.00

 eigenvalues of (default mixing * dielectric matrix)
  average eigenvalue GAMMA=   2.3965
  9.6850  7.7913  5.9851  4.6286  3.5937  2.7170  2.3752  2.1785  2.1785  1.8715
  1.6020  1.0458  1.0458  1.1173  1.1173  1.0024  1.0024  1.0494  1.0494  1.0205
  0.8765  0.8765  0.8526  0.8526

 Free energy of the ion-electron system (eV)
  ---------------------------------------------------
  alpha Z        PSCENC =         0.01477374
  Ewald energy   TEWEN  =       574.48221640
  -Hartree energ DENC   =     -1103.48046155
  -exchange      EXHF   =         0.00000000
  -V(xc)+E(xc)   XCENC  =        45.87433760
  PAW double counting   =       596.54474312     -592.61904252
  entropy T*S    EENTRO =        -0.00000000
  eigenvalues    EBANDS =      -180.58124841
  atomic energy  EATOM  =       629.48602445
  Solvation  Ediel_sol  =         0.00000000
  ---------------------------------------------------
  free energy    TOTEN  =       -30.27865717 eV

  energy without entropy =      -30.27865717  energy(sigma->0) =      -30.27865717


--------------------------------------------------------------------------------------------------------




----------------------------------------- Iteration    1(  30)  ---------------------------------------


    POTLOK:  cpu time   74.6933: real time   74.8748
    SETDIJ:  cpu time    0.9272: real time    0.9295
     EDDAV:  cpu time   33.6707: real time   33.7527
       DOS:  cpu time    0.0000: real time    0.0000
    CHARGE:  cpu time    6.6525: real time    6.6687
    MIXING:  cpu time    5.3449: real time    5.3579
    --------------------------------------------
      LOOP:  cpu time  121.2913: real time  121.5883

 eigenvalue-minimisations  :    30
 total energy-change (2. order) :-0.1451749E-06  (-0.2796696E-09)
 number of electron      14.0000000 magnetization 
 augmentation part        0.1371405 magnetization 

 Broyden mixing:
  rms(total) = 0.31104E-05    rms(broyden)= 0.31104E-05
  rms(prec ) = 0.31871E-05
  weight for this iteration     100.00

 eigenvalues of (default mixing * dielectric matrix)
  average eigenvalue GAMMA=   2.3725
  9.6931  7.8741  6.0331  4.8027  3.7079  2.8115  2.4495  2.0573  2.0573  1.8438
  1.8438  1.4426  1.0446  1.0446  1.0342  1.0342  1.0289  1.0289  1.0416  1.0416
  0.9142  0.9142  0.8577  0.8561  0.8561

 Free energy of the ion-electron system (eV)
  ---------------------------------------------------
  alpha Z        PSCENC =         0.01477374
  Ewald energy   TEWEN  =       574.48221640
  -Hartree energ DENC   =     -1103.48048373
  -exchange      EXHF   =         0.00000000
  -V(xc)+E(xc)   XCENC  =        45.87433824
  PAW double counting   =       596.54518169     -592.61948135
  entropy T*S    EENTRO =        -0.00000000
  eigenvalues    EBANDS =      -180.58122674
  atomic energy  EATOM  =       629.48602445
  Solvation  Ediel_sol  =         0.00000000
  ---------------------------------------------------
  free energy    TOTEN  =       -30.27865732 eV

  energy without entropy =      -30.27865732  energy(sigma->0) =      -30.27865732


--------------------------------------------------------------------------------------------------------




----------------------------------------- Iteration    1(  31)  ---------------------------------------


    POTLOK:  cpu time   74.6081: real time   74.7894
    SETDIJ:  cpu time    0.9264: real time    0.9286
     EDDAV:  cpu time   38.6032: real time   38.6972
       DOS:  cpu time    0.0000: real time    0.0000
    --------------------------------------------
      LOOP:  cpu time  114.1402: real time  114.4199

 eigenvalue-minimisations  :    36
 total energy-change (2. order) :-0.5560526E-07  (-0.2339942E-09)
 number of electron      14.0000000 magnetization 
 augmentation part        0.1371405 magnetization 

 Free energy of the ion-electron system (eV)
  ---------------------------------------------------
  alpha Z        PSCENC =         0.01477374
  Ewald energy   TEWEN  =       574.48221640
  -Hartree energ DENC   =     -1103.48042902
  -exchange      EXHF   =         0.00000000
  -V(xc)+E(xc)   XCENC  =        45.87433539
  PAW double counting   =       596.54547241     -592.61977181
  entropy T*S    EENTRO =        -0.00000000
  eigenvalues    EBANDS =      -180.58127893
  atomic energy  EATOM  =       629.48602445
  Solvation  Ediel_sol  =         0.00000000
  ---------------------------------------------------
  free energy    TOTEN  =       -30.27865737 eV

  energy without entropy =      -30.27865737  energy(sigma->0) =      -30.27865737


--------------------------------------------------------------------------------------------------------




 average (electrostatic) potential at core
  the test charge radii are     0.5412  0.5586  0.5531
  (the norm of the test charge is              1.0000)
       1-114.1552       2-112.5238       3 -43.6070       4 -40.9137       5 -40.8501
       6 -40.8480
 
 
 
 E-fermi :  -6.1967     XC(G=0):  -0.0288     alpha+bet : -0.0067


 k-point     1 :       0.0000    0.0000    0.0000
  band No.  band energies     occupation 
      1     -25.5079      2.00000
      2     -16.8842      2.00000
      3     -12.5276      2.00000
      4     -10.6681      2.00000
      5     -10.3668      2.00000
      6      -8.0383      2.00000
      7      -6.2978      2.00000
      8      -0.6736      0.00000
      9      -0.1130      0.00000
     10       0.0055      0.00000
     11       0.1065      0.00000


--------------------------------------------------------------------------------------------------------


 soft charge-density along one line, spin component           1
         0         1         2         3         4         5         6         7         8         9
 total charge-density along one line
 
 pseudopotential strength for first ion, spin component:           1
 10.608  -0.061   0.068  -0.006  -0.008  -0.003  -0.001  -0.001
 -0.061  -0.072   0.662  -0.001  -0.001  -0.000   0.002   0.002
  0.068   0.662   0.206  -0.001  -0.001  -0.000   0.000   0.000
 -0.006  -0.001  -0.001  -3.683  -0.004  -0.001   0.139   0.001
 -0.008  -0.001  -0.001  -0.004  -3.684  -0.002   0.001   0.139
 -0.003  -0.000  -0.000  -0.001  -0.002  -3.680   0.001   0.001
 -0.001   0.002   0.000   0.139   0.001   0.001  26.358  -0.004
 -0.001   0.002   0.000   0.001   0.139   0.001  -0.004  26.357
 -0.000   0.001   0.000   0.001   0.001   0.138  -0.001  -0.002
  0.000  -0.001  -0.000  -0.084  -0.001  -0.001 -17.691   0.003
  0.000  -0.001  -0.000  -0.001  -0.084  -0.001   0.003 -17.690
  0.000  -0.000  -0.000  -0.001  -0.001  -0.083   0.001   0.001
 -0.001   0.000   0.000  -0.001  -0.000   0.002  -0.010   0.000
 -0.004   0.000   0.000  -0.000  -0.002  -0.000  -0.012  -0.016
 -0.001   0.000   0.000  -0.003   0.002  -0.001  -0.003  -0.008
 -0.002   0.000   0.000  -0.000  -0.001   0.001   0.000  -0.008
  0.001  -0.000  -0.000  -0.001   0.001   0.003   0.006   0.002
  0.000   0.000   0.000   0.002  -0.000  -0.000   0.004  -0.000
  0.001   0.000   0.000   0.002   0.003  -0.000   0.002   0.006
  0.000   0.000   0.000   0.002   0.000   0.001   0.005  -0.002
  0.001   0.000   0.000  -0.000   0.002   0.001  -0.000   0.003
 -0.000  -0.000  -0.000  -0.000  -0.001  -0.003   0.001  -0.001
 total augmentation occupancy for first ion, spin component:           1
  1.409   0.029   0.232   0.065   0.082   0.027   0.001   0.002   0.001   0.001   0.001   0.000  -0.000  -0.002  -0.000  -0.001
  0.029   0.001   0.005   0.004   0.006   0.002  -0.000  -0.000  -0.000  -0.000  -0.000  -0.000   0.000   0.000  -0.000   0.000
  0.232   0.005   0.043  -0.025  -0.030  -0.010  -0.002  -0.002  -0.001  -0.001  -0.001  -0.000   0.001   0.002   0.001   0.001
  0.065   0.004  -0.025   1.060  -0.146  -0.044   0.039  -0.000   0.000   0.019   0.000   0.000  -0.024  -0.012  -0.028   0.001
  0.082   0.006  -0.030  -0.146   1.021  -0.063  -0.000   0.038  -0.000   0.000   0.019   0.000   0.001  -0.033   0.010  -0.019
  0.027   0.002  -0.010  -0.044  -0.063   1.152   0.000  -0.000   0.039   0.000   0.000   0.019   0.011   0.002  -0.016   0.002
  0.001  -0.000  -0.002   0.039  -0.000   0.000   0.002   0.000   0.000   0.001   0.000   0.000  -0.001  -0.001  -0.001  -0.000
  0.002  -0.000  -0.002  -0.000   0.038  -0.000   0.000   0.002   0.000   0.000   0.001   0.000  -0.000  -0.001   0.000  -0.001
  0.001  -0.000  -0.001   0.000  -0.000   0.039   0.000   0.000   0.001   0.000   0.000   0.001   0.000  -0.000  -0.001  -0.000
  0.001  -0.000  -0.001   0.019   0.000   0.000   0.001   0.000   0.000   0.000   0.000   0.000  -0.000  -0.000  -0.000  -0.000
  0.001  -0.000  -0.001   0.000   0.019   0.000   0.000   0.001   0.000   0.000   0.000   0.000  -0.000  -0.001   0.000  -0.000
  0.000  -0.000  -0.000   0.000   0.000   0.019   0.000   0.000   0.001   0.000   0.000   0.000   0.000  -0.000  -0.000  -0.000
 -0.000   0.000   0.001  -0.024   0.001   0.011  -0.001  -0.000   0.000  -0.000  -0.000   0.000   0.001   0.000   0.000   0.000
 -0.002   0.000   0.002  -0.012  -0.033   0.002  -0.001  -0.001  -0.000  -0.000  -0.001  -0.000   0.000   0.002  -0.000   0.001
 -0.000  -0.000   0.001  -0.028   0.010  -0.016  -0.001   0.000  -0.001  -0.000   0.000  -0.000   0.000  -0.000   0.002  -0.000
 -0.001   0.000   0.001   0.001  -0.019   0.002  -0.000  -0.001  -0.000  -0.000  -0.000  -0.000   0.000   0.001  -0.000   0.001
  0.000  -0.000  -0.001  -0.005   0.007   0.034   0.000   0.000   0.001   0.000   0.000   0.000   0.001  -0.000  -0.000   0.000
 -0.000  -0.000  -0.001   0.019  -0.001  -0.009   0.001   0.000  -0.000   0.000   0.000  -0.000  -0.001  -0.000  -0.000  -0.000
  0.000  -0.000  -0.002   0.010   0.026  -0.001   0.001   0.001   0.000   0.000   0.001   0.000  -0.000  -0.001   0.000  -0.000
 -0.000   0.000  -0.001   0.023  -0.009   0.013   0.001  -0.000   0.000   0.000  -0.000   0.000  -0.000   0.000  -0.001   0.000
  0.000  -0.000  -0.001  -0.001   0.015  -0.002   0.000   0.001   0.000   0.000   0.000   0.000  -0.000  -0.000   0.000  -0.001
  0.000   0.000   0.001   0.004  -0.006  -0.027  -0.000  -0.000  -0.001  -0.000  -0.000  -0.000  -0.001   0.000   0.000  -0.000


------------------------ aborting loop because EDIFF is reached ----------------------------------------


    CHARGE:  cpu time    6.6729: real time    6.6891
    FORLOC:  cpu time    6.9399: real time    6.9568
    FORNL :  cpu time    3.7843: real time    3.7935
    STRESS:  cpu time   22.6275: real time   22.6825
    FORCOR:  cpu time   76.0131: real time   76.1979
    FORHAR:  cpu time   24.0828: real time   24.1414
    MIXING:  cpu time    5.5147: real time    5.5281
    OFIELD:  cpu time    0.0001: real time    0.0001

  FORCE on cell =-STRESS in cart. coord.  units (eV):
  Direction    XX          YY          ZZ          XY          YZ          ZX
  --------------------------------------------------------------------------------------
  Alpha Z     0.01477     0.01477     0.01477
  Ewald      88.07603   186.15506   300.25106    56.87520   101.97860    30.61839
  Hartree   317.16332   372.57722   413.73986    29.21709    72.47088    27.86054
  E(xc)     -59.77739   -59.54296   -59.20063     0.15825     0.12342    -0.00029
  Local    -601.33801  -744.55256  -878.32217   -78.30350  -173.39280   -61.54419
  n-local   -55.97178   -53.08855   -49.15144     1.84187     2.08693     0.33752
  augment     2.54574     2.22006     1.73870    -0.23044    -0.11619     0.03272
  Kinetic   309.87965   296.81259   271.82790    -9.52648    -3.23936     2.61817
  Fock        0.00000     0.00000     0.00000     0.00000     0.00000     0.00000
  -------------------------------------------------------------------------------------
  Total       0.59232     0.59563     0.89804     0.03199    -0.08852    -0.07714
  in kB       0.02213     0.02226     0.03356     0.00120    -0.00331    -0.00288
  external pressure =        0.03 kB  Pullay stress =        0.00 kB


 VOLUME and BASIS-vectors are now :
 -----------------------------------------------------------------------------
  energy-cutoff  :     2000.00
  volume of cell :    42875.00
      direct lattice vectors                 reciprocal lattice vectors
    35.000000000  0.000000000  0.000000000     0.028571429  0.000000000  0.000000000
     0.000000000 35.000000000  0.000000000     0.000000000  0.028571429  0.000000000
     0.000000000  0.000000000 35.000000000     0.000000000  0.000000000  0.028571429

  length of vectors
    35.000000000 35.000000000 35.000000000     0.028571429  0.028571429  0.028571429


 FORCES acting on ions
    electron-ion (+dipol)            ewald-force                    non-local-force                 convergence-correction
 -----------------------------------------------------------------------------------------------
   -.327E+02 -.784E+02 -.913E+02   0.351E+02 0.840E+02 0.983E+02   -.239E+01 -.579E+01 -.710E+01   -.270E-05 -.614E-05 -.506E-05
   0.613E+02 0.131E+03 0.891E+02   -.876E+02 -.179E+03 -.798E+02   0.262E+02 0.472E+02 -.918E+01   -.592E-05 -.132E-04 -.889E-05
   -.234E+02 -.261E+02 0.944E+02   0.259E+02 0.293E+02 -.103E+03   -.243E+01 -.310E+01 0.773E+01   -.132E-05 -.201E-05 0.255E-05
   0.155E+02 0.170E+02 -.645E+02   -.173E+02 -.194E+02 0.699E+02   0.174E+01 0.231E+01 -.510E+01   -.882E-06 -.143E-05 0.140E-05
   -.648E+02 -.154E+02 -.116E+02   0.708E+02 0.162E+02 0.119E+02   -.565E+01 -.715E+00 -.256E+00   0.197E-05 -.212E-06 -.246E-06
   0.242E+02 -.630E+02 -.277E+01   -.269E+02 0.685E+02 0.219E+01   0.252E+01 -.508E+01 0.550E+00   -.120E-05 0.151E-05 -.563E-06
 -----------------------------------------------------------------------------------------------
   -.199E+02 -.348E+02 0.134E+02   0.711E-14 -.142E-13 -.151E-13   0.199E+02 0.348E+02 -.134E+02   -.101E-04 -.214E-04 -.108E-04
 
 
 POSITION                                       TOTAL-FORCE (eV/Angst)
 -----------------------------------------------------------------------------------
      2.73294      0.87007      1.05009        -0.057638     -0.118534     -0.076670
      2.34703     34.95849      0.03065        -0.163741     -0.269127      0.161445
      2.62906      0.32844     34.19079         0.097407      0.106189     -0.408021
      2.40976      0.44044      1.99316        -0.104036     -0.134683      0.321908
      3.81400      1.00916      1.08913         0.397133      0.060646      0.030409
      2.25447      1.84367      0.93491        -0.169125      0.355508     -0.029073
 -----------------------------------------------------------------------------------
    total drift:                                0.000084      0.000045     -0.000008


--------------------------------------------------------------------------------------------------------



  FREE ENERGIE OF THE ION-ELECTRON SYSTEM (eV)
  ---------------------------------------------------
  free  energy   TOTEN  =       -30.27865737 eV

  energy  without entropy=      -30.27865737  energy(sigma->0) =      -30.27865737
 


--------------------------------------------------------------------------------------------------------


    POTLOK:  cpu time   75.6461: real time   75.8300


--------------------------------------------------------------------------------------------------------


 writing wavefunctions
     LOOP+:  cpu time 4131.5984: real time 4142.0129
    4ORBIT:  cpu time    0.0000: real time    0.0000

 total amount of memory used by VASP on root node 14594426. kBytes
========================================================================

   base      :      30000. kBytes
   nonl-proj :     339601. kBytes
   fftplans  :    4854898. kBytes
   grid      :    9274130. kBytes
   one-center:         11. kBytes
   wavefun   :      95786. kBytes
 
  
  
 General timing and accounting informations for this job:
 ========================================================
  
                  Total CPU time used (sec):     5217.053
                            User time (sec):     4711.706
                          System time (sec):      505.347
                         Elapsed time (sec):     5230.264
  
                   Maximum memory used (kb):    22312792.
                   Average memory used (kb):           0.
  
                          Minor page faults:     54832276
                          Major page faults:            6
                 Voluntary context switches:          740
 
 PROFILE, used timers:      14
 =============================
 
 index                 routine                    time                            calls level
----------------------------------------------------------------------------------------------
    1    total_time                         5230.264933                                1   1
    2      w1_copy                              10.663621                           4202   2
    3      fftwav_mpi                          409.123179                           1597   2
    4      fftext_mpi                            1.838719                             11   2
    5      overl                                 0.002909                           2454   2
    6      orth1                                12.079036                            778   2
    7      lincom                                0.547243                             32   2
    8      eccp                                 13.974668                            341   2
    9      hamiltmu                            512.475440                            259   2
   10        vhamil                               84.652726                         1397   3
   11        overl1                                0.002474                         1397   3
   12        kinhamil                            266.438132                         1397   3
   13          fftext_mpi                          263.760308                       1397   4
   14      pdssyex_zheevx                        0.025084                             31   2
 
 Flat profile
 ============
 
             routine name                   CPU           calls
 ---------------------------------------------------------------
 total_time                           4269.535034           1
 fftwav_mpi                            409.123179        1597
 fftext_mpi                            265.599027        1408
 hamiltmu                              161.382107         259
 vhamil                                 84.652726        1397
 eccp                                   13.974668         341
 orth1                                  12.079036         778
 w1_copy                                10.663621        4202
 kinhamil                                2.677824        1397
 lincom                                  0.547243          32
 pdssyex_zheevx                          0.025084          31
 overl                                   0.002909        2454
 overl1                                  0.002474        1397
 ---------------------------------------------------------------
  summed up times    5230.26493310928     
 
Profiling took   0.009454  0.005582  0.003315  0.003297 seconds
Profiling took   0.007545 seconds
