 vasp.5.4.1 24Jun15 (build Jan 02 2020 16:21:29) gamma-only                     
  
 executed on           IFC15_impi date 2020.04.10  10:05:26
 running on    8 total cores
 distrk:  each k-point on    8 cores,    1 groups
 distr:  one band on NCORES_PER_BAND=   8 cores,    1 groups


--------------------------------------------------------------------------------------------------------


 INCAR:
 POTCAR:    PAW_PBE N_h_GW 03Jul2013              
 POTCAR:    PAW_PBE C_h_GW 23May2013              
 POTCAR:    PAW_PBE H_h_GW 21Apr2008              

 ----------------------------------------------------------------------------- 
|                                                                             |
|           W    W    AA    RRRRR   N    N  II  N    N   GGGG   !!!           |
|           W    W   A  A   R    R  NN   N  II  NN   N  G    G  !!!           |
|           W    W  A    A  R    R  N N  N  II  N N  N  G       !!!           |
|           W WW W  AAAAAA  RRRRR   N  N N  II  N  N N  G  GGG   !            |
|           WW  WW  A    A  R   R   N   NN  II  N   NN  G    G                |
|           W    W  A    A  R    R  N    N  II  N    N   GGGG   !!!           |
|                                                                             |
|      For optimal performance we recommend to set                            |
|        NCORE= 4 - approx SQRT( number of cores)                             |
|      NCORE specifies how many cores store one orbital (NPAR=cpu/NCORE).     |
|      This setting can  greatly improve the performance of VASP for DFT.     |
|      The default, NPAR=number of cores might be grossly inefficient         |
|      on modern multi-core architectures or massively parallel machines.     |
|      Do your own testing !!!!                                               |
|      Unfortunately you need to use the default for GW and RPA calculations. |
|      (for HF NCORE is supported but not extensively tested yet)             |
|                                                                             |
 ----------------------------------------------------------------------------- 

 POTCAR:    PAW_PBE N_h_GW 03Jul2013              
   VRHFIN =N: s2p3                                                              
   LEXCH  = PE                                                                  
   EATOM  =   264.5486 eV,   19.4438 Ry                                         
                                                                                
   TITEL  = PAW_PBE N_h_GW 03Jul2013                                            
   LULTRA =        F    use ultrasoft PP ?                                      
   IUNSCR =        1    unscreen: 0-lin 1-nonlin 2-no                           
   RPACOR =    0.800    partial core radius                                     
   POMASS =   14.001; ZVAL   =    5.000    mass and valenz                      
   RCORE  =    1.100    outmost cutoff radius                                   
   RWIGS  =    1.200; RWIGS  =    0.635    wigner-seitz radius (au A)           
   ENMAX  =  755.582; ENMIN  =  566.687 eV                                      
   RCLOC  =    0.901    cutoff for local pot                                    
   LCOR   =        T    correct aug charges                                     
   LPAW   =        T    paw PP                                                  
   EAUG   = 1692.969                                                            
   DEXC   =    0.000                                                            
   RMAX   =    1.127    core radius for proj-oper                               
   RAUG   =    1.300    factor for augmentation sphere                          
   RDEP   =    1.115    radius for radial grids                                 
   RDEPT  =    1.000    core radius for aug-charge                              
                                                                                
   Atomic configuration                                                         
    5 entries                                                                   
     n  l   j            E        occ.                                          
     1  0  0.50      -384.7179   2.0000                                         
     2  0  0.50       -18.5828   2.0000                                         
     2  1  0.50        -7.0898   3.0000                                         
     3  2  1.50        -8.1635   0.0000                                         
     4  3  2.50        -8.1635   0.0000                                         
   Description                                                                  
     l       E           TYP  RCUT    TYP  RCUT                                 
     0    -18.5828120     23  0.900                                             
     0     54.4233040     23  0.900                                             
     0    340.1456500     23  0.900                                             
     1     -7.0897854     23  1.100                                             
     1    176.8757380     23  1.100                                             
     1    380.9631280     23  1.100                                             
     2     81.6349560     23  1.100                                             
     2    204.0873900     23  1.100                                             
  local pseudopotential read in
  partial core-charges read in
  partial kinetic energy density read in
  kinetic energy density of atom read in
  atomic valenz-charges read in
  non local Contribution for L=           0  read in
    real space projection operators read in
  non local Contribution for L=           0  read in
    real space projection operators read in
  non local Contribution for L=           0  read in
    real space projection operators read in
  non local Contribution for L=           1  read in
    real space projection operators read in
  non local Contribution for L=           1  read in
    real space projection operators read in
  non local Contribution for L=           1  read in
    real space projection operators read in
  non local Contribution for L=           2  read in
    real space projection operators read in
  non local Contribution for L=           2  read in
    real space projection operators read in
    PAW grid and wavefunctions read in
 
   number of l-projection  operators is LMAX  =           8
   number of lm-projection operators is LMMAX =          22
 
 POTCAR:    PAW_PBE C_h_GW 23May2013              
   VRHFIN =C: s2p2                                                              
   LEXCH  = PE                                                                  
   EATOM  =   147.1560 eV,   10.8157 Ry                                         
                                                                                
   TITEL  = PAW_PBE C_h_GW 23May2013                                            
   LULTRA =        F    use ultrasoft PP ?                                      
   IUNSCR =        1    unscreen: 0-lin 1-nonlin 2-no                           
   RPACOR =    0.800    partial core radius                                     
   POMASS =   12.011; ZVAL   =    4.000    mass and valenz                      
   RCORE  =    1.100    outmost cutoff radius                                   
   RWIGS  =    1.200; RWIGS  =    0.635    wigner-seitz radius (au A)           
   ENMAX  =  741.689; ENMIN  =  556.267 eV                                      
   RCLOC  =    0.804    cutoff for local pot                                    
   LCOR   =        T    correct aug charges                                     
   LPAW   =        T    paw PP                                                  
   EAUG   = 1782.225                                                            
   DEXC   =    0.000                                                            
   RMAX   =    1.128    core radius for proj-oper                               
   RAUG   =    1.300    factor for augmentation sphere                          
   RDEP   =    1.162    radius for radial grids                                 
   RDEPT  =    1.000    core radius for aug-charge                              
                                                                                
   Atomic configuration                                                         
    5 entries                                                                   
     n  l   j            E        occ.                                          
     1  0  0.50      -273.3789   2.0000                                         
     2  0  0.50       -13.7508   2.0000                                         
     2  1  0.50        -5.2854   2.0000                                         
     3  2  1.50        -5.4423   0.0000                                         
     4  3  2.50        -5.4423   0.0000                                         
   Description                                                                  
     l       E           TYP  RCUT    TYP  RCUT                                 
     0    -13.7508457     23  1.000                                             
     0     81.6349560     23  1.000                                             
     0    204.0873900     23  1.000                                             
     1     -5.2854382     23  1.100                                             
     1    204.0873900     23  1.100                                             
     1    380.9631280     23  1.100                                             
     2     81.6349560     23  1.100                                             
     2    204.0873900     23  1.100                                             
  local pseudopotential read in
  partial core-charges read in
  partial kinetic energy density read in
  kinetic energy density of atom read in
  atomic valenz-charges read in
  non local Contribution for L=           0  read in
    real space projection operators read in
  non local Contribution for L=           0  read in
    real space projection operators read in
  non local Contribution for L=           0  read in
    real space projection operators read in
  non local Contribution for L=           1  read in
    real space projection operators read in
  non local Contribution for L=           1  read in
    real space projection operators read in
  non local Contribution for L=           1  read in
    real space projection operators read in
  non local Contribution for L=           2  read in
    real space projection operators read in
  non local Contribution for L=           2  read in
    real space projection operators read in
    PAW grid and wavefunctions read in
 
   number of l-projection  operators is LMAX  =           8
   number of lm-projection operators is LMMAX =          22
 
 POTCAR:    PAW_PBE H_h_GW 21Apr2008              
   VRHFIN =H: ultrasoft test                                                    
   LEXCH  = PE                                                                  
   EATOM  =    12.4884 eV,    0.9179 Ry                                         
                                                                                
   TITEL  = PAW_PBE H_h_GW 21Apr2008                                            
   LULTRA =        F    use ultrasoft PP ?                                      
   IUNSCR =        0    unscreen: 0-lin 1-nonlin 2-no                           
   RPACOR =    0.000    partial core radius                                     
   POMASS =    1.000; ZVAL   =    1.000    mass and valenz                      
   RCORE  =    0.800    outmost cutoff radius                                   
   RWIGS  =    1.100; RWIGS  =    0.582    wigner-seitz radius (au A)           
   ENMAX  =  700.000; ENMIN  =  350.000 eV                                      
   RCLOC  =    0.701    cutoff for local pot                                    
   LCOR   =        T    correct aug charges                                     
   LPAW   =        T    paw PP                                                  
   EAUG   = 1000.000                                                            
   RMAX   =    0.819    core radius for proj-oper                               
   RAUG   =    1.000    factor for augmentation sphere                          
   RDEP   =    0.817    radius for radial grids                                 
   RDEPT  =    1.000    core radius for aug-charge                              
                                                                                
   Atomic configuration                                                         
    3 entries                                                                   
     n  l   j            E        occ.                                          
     1  0  0.50        -6.4927   1.0000                                         
     2  1  0.50        -3.4015   0.0000                                         
     3  2  1.50        13.6058   0.0000                                         
   Description                                                                  
     l       E           TYP  RCUT    TYP  RCUT                                 
     0     -6.4927495     23  0.800                                             
     0      6.8029130     23  0.800                                             
     1     -4.0817478     23  0.800                                             
     1    108.8466080     23  0.800                                             
     2     81.6349560     23  0.800                                             
  local pseudopotential read in
  kinetic energy density of atom read in
  atomic valenz-charges read in
  non local Contribution for L=           0  read in
    real space projection operators read in
  non local Contribution for L=           0  read in
    real space projection operators read in
  non local Contribution for L=           1  read in
    real space projection operators read in
  non local Contribution for L=           1  read in
    real space projection operators read in
  non local Contribution for L=           2  read in
    real space projection operators read in
    PAW grid and wavefunctions read in
 
   number of l-projection  operators is LMAX  =           5
   number of lm-projection operators is LMMAX =          13
 
  PAW_PBE N_h_GW 03Jul2013              :
 energy of atom  1       EATOM= -264.5486
 kinetic energy error for atom=    0.0015 (will be added to EATOM!!)
  PAW_PBE C_h_GW 23May2013              :
 energy of atom  2       EATOM= -147.1560
 kinetic energy error for atom=    0.0004 (will be added to EATOM!!)
  PAW_PBE H_h_GW 21Apr2008              :
 energy of atom  3       EATOM=  -12.4884
 kinetic energy error for atom=    0.0001 (will be added to EATOM!!)
 
 
 POSCAR: N C H                                   
  positions in cartesian coordinates
  No initial velocities read in
 exchange correlation table for  LEXCH =        8
   RHO(1)=    0.500       N(1)  =     2000
   RHO(2)=  100.500       N(2)  =     4000
 


--------------------------------------------------------------------------------------------------------


 ion  position               nearest neighbor table
   1  0.982  0.013  0.001-   4 1.01   3 1.02   2 1.46
   2  0.966  0.011  0.040-   7 1.09   5 1.09   6 1.09   1 1.46
   3  0.005  0.997  1.000-   1 1.02
   4  0.963  0.002  0.982-   1 1.01
   5  0.940  0.029  0.042-   2 1.09
   6  0.958  0.982  0.049-   2 1.09
   7  0.986  0.023  0.060-   2 1.09
 
  LATTYP: Found a simple cubic cell.
 ALAT       =    35.0000000000
  
  Lattice vectors:
  
 A1 = (  35.0000000000,   0.0000000000,   0.0000000000)
 A2 = (   0.0000000000,  35.0000000000,   0.0000000000)
 A3 = (   0.0000000000,   0.0000000000,  35.0000000000)


Analysis of symmetry for initial positions (statically):
=====================================================================
 Subroutine PRICEL returns:
 Original cell was already a primitive cell.
 

 Routine SETGRP: Setting up the symmetry group for a 
 simple cubic supercell.


 Subroutine GETGRP returns: Found  1 space group operations
 (whereof  1 operations were pure point group operations)
 out of a pool of 48 trial point group operations.


The static configuration has the point symmetry C_1 .


Analysis of symmetry for dynamics (positions and initial velocities):
=====================================================================
 Subroutine PRICEL returns:
 Original cell was already a primitive cell.
 

 Routine SETGRP: Setting up the symmetry group for a 
 simple cubic supercell.


 Subroutine GETGRP returns: Found  1 space group operations
 (whereof  1 operations were pure point group operations)
 out of a pool of 48 trial point group operations.


The dynamic configuration has the point symmetry C_1 .
 
 
 KPOINTS: automatic mesh                          

Automatic generation of k-mesh.
Space group operators:
 irot       det(A)        alpha          n_x          n_y          n_z        tau_x        tau_y        tau_z
    1     1.000000     0.000000     1.000000     0.000000     0.000000     0.000000     0.000000     0.000000
 
 Subroutine IBZKPT returns following result:
 ===========================================
 
 Found      1 irreducible k-points:
 
 Following reciprocal coordinates:
            Coordinates               Weight
  0.000000  0.000000  0.000000      1.000000
 
 Following cartesian coordinates:
            Coordinates               Weight
  0.000000  0.000000  0.000000      1.000000
 


--------------------------------------------------------------------------------------------------------




 Dimension of arrays:
   k-points           NKPTS =      1   k-points in BZ     NKDIM =      1   number of bands    NBANDS=     11
   number of dos      NEDOS =    301   number of ions     NIONS =      7
   non local maximal  LDIM  =      8   non local SUM 2l+1 LMDIM =     22
   total plane-waves  NPLWV = ******
   max r-space proj   IRMAX =      1   max aug-charges    IRDMAX=  18709
   dimension x,y,z NGX =   512 NGY =  512 NGZ =  512
   dimension x,y,z NGXF=  1024 NGYF= 1024 NGZF= 1024
   support grid    NGXF=  1024 NGYF= 1024 NGZF= 1024
   ions per type =               1   1   5
 NGX,Y,Z   is equivalent  to a cutoff of  24.32, 24.32, 24.32 a.u.
 NGXF,Y,Z  is equivalent  to a cutoff of  48.64, 48.64, 48.64 a.u.


 I would recommend the setting:
   dimension x,y,z NGX =   511 NGY =  511 NGZ =  511
 SYSTEM =  C                                       
 POSCAR =  N C H                                   

 Startparameter for this run:
   NWRITE =      2    write-flag & timer
   PREC   = acc       normal or accurate (medium, high low for compatibility)
   ISTART =      0    job   : 0-new  1-cont  2-samecut
   ICHARG =      2    charge: 1-file 2-atom 10-const
   ISPIN  =      1    spin polarized calculation?
   LNONCOLLINEAR =      F non collinear calculations
   LSORBIT =      F    spin-orbit coupling
   INIWAV =      1    electr: 0-lowe 1-rand  2-diag
   LASPH  =      T    aspherical Exc in radial PAW
   METAGGA=      F    non-selfconsistent MetaGGA calc.

 Electronic Relaxation 1
   ENCUT  = 2000.0 eV 147.00 Ry   12.12 a.u. 127.63127.63127.63*2*pi/ulx,y,z
   ENINI  = 2000.0     initial cutoff
   ENAUG  = 1782.2 eV  augmentation charge cutoff
   NELM   =     60;   NELMIN=  2; NELMDL= -5     # of ELM steps 
   EDIFF  = 0.1E-06   stopping-criterion for ELM
   LREAL  =      F    real-space projection
   NLSPLINE    = F    spline interpolate recip. space projectors
   LCOMPAT=      F    compatible to vasp.4.4
   GGA_COMPAT  = T    GGA compatible to vasp.4.4-vasp.4.6
   LMAXPAW     = -100 max onsite density
   LMAXMIX     =    2 max onsite mixed and CHGCAR
   VOSKOWN=      0    Vosko Wilk Nusair interpolation
   ROPT   =    0.00000   0.00000   0.00000
 Ionic relaxation
   EDIFFG = 0.1E-05   stopping-criterion for IOM
   NSW    =      0    number of steps for IOM
   NBLOCK =      1;   KBLOCK =      1    inner block; outer block 
   IBRION =     -1    ionic relax: 0-MD 1-quasi-New 2-CG
   NFREE  =      0    steps in history (QN), initial steepest desc. (CG)
   ISIF   =      2    stress and relaxation
   IWAVPR =     10    prediction:  0-non 1-charg 2-wave 3-comb
   ISYM   =      2    0-nonsym 1-usesym 2-fastsym
   LCORR  =      T    Harris-Foulkes like correction to forces

   POTIM  = 0.5000    time-step for ionic-motion
   TEIN   =    0.0    initial temperature
   TEBEG  =    0.0;   TEEND  =   0.0 temperature during run
   SMASS  =  -3.00    Nose mass-parameter (am)
   estimated Nose-frequenzy (Omega)   =  0.10E-29 period in steps =****** mass=  -0.280E-25a.u.
   SCALEE = 1.0000    scale energy and forces
   NPACO  =    256;   APACO  = 16.0  distance and # of slots for P.C.
   PSTRESS=    0.0 pullay stress

  Mass of Ions in am
   POMASS =  14.00 12.01  1.00
  Ionic Valenz
   ZVAL   =   5.00  4.00  1.00
  Atomic Wigner-Seitz radii
   RWIGS  =  -1.00 -1.00 -1.00
  virtual crystal weights 
   VCA    =   1.00  1.00  1.00
   NELECT =      14.0000    total number of electrons
   NUPDOWN=      -1.0000    fix difference up-down

 DOS related values:
   EMIN   =  10.00;   EMAX   =-10.00  energy-range for DOS
   EFERMI =   0.00
   ISMEAR =     0;   SIGMA  =   0.01  broadening in eV -4-tet -1-fermi 0-gaus

 Electronic relaxation 2 (details)
   IALGO  =     38    algorithm
   LDIAG  =      T    sub-space diagonalisation (order eigenvalues)
   LSUBROT=      F    optimize rotation matrix (better conditioning)
   TURBO    =      0    0=normal 1=particle mesh
   IRESTART =      0    0=no restart 2=restart with 2 vectors
   NREBOOT  =      0    no. of reboots
   NMIN     =      0    reboot dimension
   EREF     =   0.00    reference energy to select bands
   IMIX   =      4    mixing-type and parameters
     AMIX     =   0.40;   BMIX     =  1.00
     AMIX_MAG =   1.60;   BMIX_MAG =  1.00
     AMIN     =   0.10
     WC   =   100.;   INIMIX=   1;  MIXPRE=   1;  MAXMIX= -45

 Intra band minimization:
   WEIMIN = 0.0000     energy-eigenvalue tresh-hold
   EBREAK =  0.23E-08  absolut break condition
   DEPER  =   0.30     relativ break condition  

   TIME   =   0.40     timestep for ELM

  volume/ion in A,a.u.               =    6125.00     41333.54
  Fermi-wavevector in a.u.,A,eV,Ry     =   0.112733  0.213034  0.172911  0.012709
  Thomas-Fermi vector in A             =   0.715943
 
 Write flags
   LWAVE  =      T    write WAVECAR
   LCHARG =      T    write CHGCAR
   LVTOT  =      F    write LOCPOT, total local potential
   LVHAR  =      F    write LOCPOT, Hartree potential only
   LELF   =      F    write electronic localiz. function (ELF)
   LORBIT =      0    0 simple, 1 ext, 2 COOP (PROOUT)


 Dipole corrections
   LMONO  =      F    monopole corrections only (constant potential shift)
   LDIPOL =      F    correct potential (dipole corrections)
   IDIPOL =      0    1-x, 2-y, 3-z, 4-all directions 
   EPSILON=  1.0000000 bulk dielectric constant

 Exchange correlation treatment:
   GGA     =    --    GGA type
   LEXCH   =     8    internal setting for exchange type
   VOSKOWN=      0    Vosko Wilk Nusair interpolation
   LHFCALC =     F    Hartree Fock is set to
   LHFONE  =     F    Hartree Fock one center treatment
   AEXX    =    0.0000 exact exchange contribution

 Linear response parameters
   LEPSILON=     F    determine dielectric tensor
   LRPA    =     F    only Hartree local field effects (RPA)
   LNABLA  =     F    use nabla operator in PAW spheres
   LVEL    =     F    velocity operator in full k-point grid
   LINTERFAST=   F  fast interpolation
   KINTER  =     0    interpolate to denser k-point grid
   CSHIFT  =0.1000    complex shift for real part using Kramers Kronig
   OMEGAMAX=  -1.0    maximum frequency
   DEG_THRESHOLD= 0.2000000E-02 threshold for treating states as degnerate
   RTIME   =    0.100 relaxation time in fs

 Orbital magnetization related:
   ORBITALMAG=     F  switch on orbital magnetization
   LCHIMAG   =     F  perturbation theory with respect to B field
   DQ        =  0.001000  dq finite difference perturbation B field



--------------------------------------------------------------------------------------------------------


 Static calculation
 charge density and potential will be updated during run
 non-spin polarized calculation
 Variant of blocked Davidson
 Davidson routine will perform the subspace rotation
 perform sub-space diagonalisation
    after iterative eigenvector-optimisation
 modified Broyden-mixing scheme, WC =      100.0
 initial mixing is a Kerker type mixing with AMIX =  0.4000 and BMIX =      1.0000
 Hartree-type preconditioning will be used
 using additional bands            4
 reciprocal scheme for non local part
 use partial core corrections
 calculate Harris-corrections to forces 
   (improved forces if not selfconsistent)
 use gradient corrections 
 use of overlap-Matrix (Vanderbilt PP)
 Gauss-broadening in eV      SIGMA  =   0.01


--------------------------------------------------------------------------------------------------------


  energy-cutoff  :     2000.00
  volume of cell :    42875.00
      direct lattice vectors                 reciprocal lattice vectors
    35.000000000  0.000000000  0.000000000     0.028571429  0.000000000  0.000000000
     0.000000000 35.000000000  0.000000000     0.000000000  0.028571429  0.000000000
     0.000000000  0.000000000 35.000000000     0.000000000  0.000000000  0.028571429

  length of vectors
    35.000000000 35.000000000 35.000000000     0.028571429  0.028571429  0.028571429


 
 k-points in units of 2pi/SCALE and weight: automatic mesh                          
   0.00000000  0.00000000  0.00000000       1.000
 
 k-points in reciprocal lattice and weights: automatic mesh                          
   0.00000000  0.00000000  0.00000000       1.000
 
 position of ions in fractional coordinates (direct lattice) 
   0.98175310  0.01345475  0.00127339
   0.96575261  0.01118282  0.03976990
   0.00542727  0.99674465  0.99983504
   0.96284374  0.00232162  0.98246661
   0.94020749  0.02883556  0.04151907
   0.95820727  0.98240447  0.04941292
   0.98627784  0.02281928  0.06003107
 
 position of ions in cartesian coordinates  (Angst):
  34.36135862  0.47091637  0.04456848
  33.80134118  0.39139858  1.39194660
   0.18995436 34.88606284 34.99422640
  33.69953105  0.08125680 34.38633152
  32.90726223  1.00924472  1.45316749
  33.53725449 34.38415633  1.72945219
  34.51972446  0.79867491  2.10108731
 


--------------------------------------------------------------------------------------------------------


 use parallel FFT for wavefunctions z direction half grid
 k-point  1 :   0.0000 0.0000 0.0000  plane waves: 4353902

 maximum and minimum number of plane-waves per node :    544247   544233

 maximum number of plane-waves:   4353902
 maximum index in each direction: 
   IXMAX=  127   IYMAX=  127   IZMAX=  127
   IXMIN= -127   IYMIN= -127   IZMIN=    0

 NGX is ok and might be reduce to 510
 NGY is ok and might be reduce to 510
 NGZ is ok and might be reduce to 510

 parallel 3D FFT for wavefunctions:
    minimum data exchange during FFTs selected (reduces bandwidth)
 parallel 3D FFT for charge:
    minimum data exchange during FFTs selected (reduces bandwidth)


 total amount of memory used by VASP on root node 14603134. kBytes
========================================================================

   base      :      30000. kBytes
   nonl-proj :     348309. kBytes
   fftplans  :    4854898. kBytes
   grid      :    9274130. kBytes
   one-center:         11. kBytes
   wavefun   :      95786. kBytes
 
     INWAV:  cpu time    0.0000: real time    0.0000
 Broyden mixing: mesh for mixing (old mesh)
   NGX =255   NGY =255   NGZ =255
  (NGX  =***   NGY  =***   NGZ  =***)
  gives a total of ****** points

 initial charge density was supplied:
 charge density of overlapping atoms calculated
 number of electron      14.0000000 magnetization 
 keeping initial charge density in first step


--------------------------------------------------------------------------------------------------------


 Maximum index for augmentation-charges         2290 (set IRDMAX)


--------------------------------------------------------------------------------------------------------


 First call to EWALD:  gamma=   0.051
 Maximum number of real-space cells 3x 3x 3
 Maximum number of reciprocal cells 3x 3x 3

 FEWALD executed in parallel
    FEWALD:  cpu time    0.0017: real time    0.0017


----------------------------------------- Iteration    1(   1)  ---------------------------------------


    POTLOK:  cpu time   72.1220: real time   72.2974
    SETDIJ:  cpu time    0.9831: real time    0.9855
     EDDAV:  cpu time   25.0711: real time   25.1324
       DOS:  cpu time    0.0001: real time    0.0001
    --------------------------------------------
      LOOP:  cpu time   98.1789: real time   98.4194

 eigenvalue-minimisations  :    22
 total energy-change (2. order) : 0.1485358E+03  (-0.2373203E+03)
 number of electron      14.0000000 magnetization 
 augmentation part       14.0000000 magnetization 

 Free energy of the ion-electron system (eV)
  ---------------------------------------------------
  alpha Z        PSCENC =         0.01443482
  Ewald energy   TEWEN  =       609.14858154
  -Hartree energ DENC   =      -923.01503406
  -exchange      EXHF   =         0.00000000
  -V(xc)+E(xc)   XCENC  =        35.38781426
  PAW double counting   =       325.76175141     -319.16683504
  entropy T*S    EENTRO =        -0.00027524
  eigenvalues    EBANDS =       -53.73906024
  atomic energy  EATOM  =       474.14443207
  Solvation  Ediel_sol  =         0.00000000
  ---------------------------------------------------
  free energy    TOTEN  =       148.53580952 eV

  energy without entropy =      148.53608476  energy(sigma->0) =      148.53594714


--------------------------------------------------------------------------------------------------------




----------------------------------------- Iteration    1(   2)  ---------------------------------------


     EDDAV:  cpu time   29.3194: real time   29.3909
       DOS:  cpu time    0.0000: real time    0.0000
    --------------------------------------------
      LOOP:  cpu time   29.3339: real time   29.4082

 eigenvalue-minimisations  :    28
 total energy-change (2. order) :-0.6081573E+02  (-0.5093947E+02)
 number of electron      14.0000000 magnetization 
 augmentation part       14.0000000 magnetization 

 Free energy of the ion-electron system (eV)
  ---------------------------------------------------
  alpha Z        PSCENC =         0.01443482
  Ewald energy   TEWEN  =       609.14858154
  -Hartree energ DENC   =      -923.01503406
  -exchange      EXHF   =         0.00000000
  -V(xc)+E(xc)   XCENC  =        35.38781426
  PAW double counting   =       325.76175141     -319.16683504
  entropy T*S    EENTRO =        -0.00000000
  eigenvalues    EBANDS =      -114.55506709
  atomic energy  EATOM  =       474.14443207
  Solvation  Ediel_sol  =         0.00000000
  ---------------------------------------------------
  free energy    TOTEN  =        87.72007791 eV

  energy without entropy =       87.72007791  energy(sigma->0) =       87.72007791


--------------------------------------------------------------------------------------------------------




----------------------------------------- Iteration    1(   3)  ---------------------------------------


     EDDAV:  cpu time   37.1926: real time   37.2832
       DOS:  cpu time    0.0000: real time    0.0000
    --------------------------------------------
      LOOP:  cpu time   37.2152: real time   37.3080

 eigenvalue-minimisations  :    38
 total energy-change (2. order) :-0.8416271E+02  (-0.8386542E+02)
 number of electron      14.0000000 magnetization 
 augmentation part       14.0000000 magnetization 

 Free energy of the ion-electron system (eV)
  ---------------------------------------------------
  alpha Z        PSCENC =         0.01443482
  Ewald energy   TEWEN  =       609.14858154
  -Hartree energ DENC   =      -923.01503406
  -exchange      EXHF   =         0.00000000
  -V(xc)+E(xc)   XCENC  =        35.38781426
  PAW double counting   =       325.76175141     -319.16683504
  entropy T*S    EENTRO =        -0.00000000
  eigenvalues    EBANDS =      -198.71778027
  atomic energy  EATOM  =       474.14443207
  Solvation  Ediel_sol  =         0.00000000
  ---------------------------------------------------
  free energy    TOTEN  =         3.55736473 eV

  energy without entropy =        3.55736473  energy(sigma->0) =        3.55736473


--------------------------------------------------------------------------------------------------------




----------------------------------------- Iteration    1(   4)  ---------------------------------------


     EDDAV:  cpu time   41.8390: real time   41.9408
       DOS:  cpu time    0.0000: real time    0.0000
    --------------------------------------------
      LOOP:  cpu time   41.8427: real time   41.9463

 eigenvalue-minimisations  :    44
 total energy-change (2. order) :-0.4092155E+02  (-0.4040650E+02)
 number of electron      14.0000000 magnetization 
 augmentation part       14.0000000 magnetization 

 Free energy of the ion-electron system (eV)
  ---------------------------------------------------
  alpha Z        PSCENC =         0.01443482
  Ewald energy   TEWEN  =       609.14858154
  -Hartree energ DENC   =      -923.01503406
  -exchange      EXHF   =         0.00000000
  -V(xc)+E(xc)   XCENC  =        35.38781426
  PAW double counting   =       325.76175141     -319.16683504
  entropy T*S    EENTRO =        -0.00000000
  eigenvalues    EBANDS =      -239.63933405
  atomic energy  EATOM  =       474.14443207
  Solvation  Ediel_sol  =         0.00000000
  ---------------------------------------------------
  free energy    TOTEN  =       -37.36418905 eV

  energy without entropy =      -37.36418905  energy(sigma->0) =      -37.36418905


--------------------------------------------------------------------------------------------------------




----------------------------------------- Iteration    1(   5)  ---------------------------------------


     EDDAV:  cpu time   29.3299: real time   29.4013
       DOS:  cpu time    0.0000: real time    0.0000
    CHARGE:  cpu time    6.8710: real time    6.8878
    MIXING:  cpu time    2.0727: real time    2.0777
    --------------------------------------------
      LOOP:  cpu time   38.2762: real time   38.3725

 eigenvalue-minimisations  :    28
 total energy-change (2. order) :-0.2826125E+01  (-0.2813796E+01)
 number of electron      14.0000000 magnetization 
 augmentation part        0.1458579 magnetization 

 Broyden mixing:
  rms(total) = 0.10285E+01    rms(broyden)= 0.10285E+01
  rms(prec ) = 0.10666E+01
  weight for this iteration     100.00

 Free energy of the ion-electron system (eV)
  ---------------------------------------------------
  alpha Z        PSCENC =         0.01443482
  Ewald energy   TEWEN  =       609.14858154
  -Hartree energ DENC   =      -923.01503406
  -exchange      EXHF   =         0.00000000
  -V(xc)+E(xc)   XCENC  =        35.38781426
  PAW double counting   =       325.76175141     -319.16683504
  entropy T*S    EENTRO =        -0.00000000
  eigenvalues    EBANDS =      -242.46545911
  atomic energy  EATOM  =       474.14443207
  Solvation  Ediel_sol  =         0.00000000
  ---------------------------------------------------
  free energy    TOTEN  =       -40.19031410 eV

  energy without entropy =      -40.19031410  energy(sigma->0) =      -40.19031410


--------------------------------------------------------------------------------------------------------




----------------------------------------- Iteration    1(   6)  ---------------------------------------


    POTLOK:  cpu time   74.3571: real time   74.5379
    SETDIJ:  cpu time    0.9403: real time    0.9426
     EDDAV:  cpu time   36.0114: real time   36.0992
       DOS:  cpu time    0.0000: real time    0.0000
    CHARGE:  cpu time    6.6470: real time    6.6632
    MIXING:  cpu time    2.1274: real time    2.1326
    --------------------------------------------
      LOOP:  cpu time  120.0858: real time  120.3803

 eigenvalue-minimisations  :    36
 total energy-change (2. order) : 0.3578914E+01  (-0.8328723E+00)
 number of electron      14.0000000 magnetization 
 augmentation part        0.1237464 magnetization 

 Broyden mixing:
  rms(total) = 0.48582E+00    rms(broyden)= 0.48582E+00
  rms(prec ) = 0.50153E+00
  weight for this iteration     100.00

 eigenvalues of (default mixing * dielectric matrix)
  average eigenvalue GAMMA=   1.4230
  1.4230

 Free energy of the ion-electron system (eV)
  ---------------------------------------------------
  alpha Z        PSCENC =         0.01443482
  Ewald energy   TEWEN  =       609.14858154
  -Hartree energ DENC   =      -957.18652034
  -exchange      EXHF   =         0.00000000
  -V(xc)+E(xc)   XCENC  =        37.15026629
  PAW double counting   =       431.87472122     -425.48831297
  entropy T*S    EENTRO =        -0.00000000
  eigenvalues    EBANDS =      -206.26900289
  atomic energy  EATOM  =       474.14443207
  Solvation  Ediel_sol  =         0.00000000
  ---------------------------------------------------
  free energy    TOTEN  =       -36.61140025 eV

  energy without entropy =      -36.61140025  energy(sigma->0) =      -36.61140025


--------------------------------------------------------------------------------------------------------




----------------------------------------- Iteration    1(   7)  ---------------------------------------


    POTLOK:  cpu time   74.4638: real time   74.6449
    SETDIJ:  cpu time    0.9386: real time    0.9409
     EDDAV:  cpu time   36.0431: real time   36.1310
       DOS:  cpu time    0.0000: real time    0.0000
    CHARGE:  cpu time    6.6429: real time    6.6590
    MIXING:  cpu time    2.1817: real time    2.1870
    --------------------------------------------
      LOOP:  cpu time  120.2730: real time  120.6351

 eigenvalue-minimisations  :    36
 total energy-change (2. order) : 0.7455667E+00  (-0.2141499E+00)
 number of electron      14.0000000 magnetization 
 augmentation part        0.1143405 magnetization 

 Broyden mixing:
  rms(total) = 0.23309E+00    rms(broyden)= 0.23309E+00
  rms(prec ) = 0.23891E+00
  weight for this iteration     100.00

 eigenvalues of (default mixing * dielectric matrix)
  average eigenvalue GAMMA=   1.7812
  1.7812  1.7812

 Free energy of the ion-electron system (eV)
  ---------------------------------------------------
  alpha Z        PSCENC =         0.01443482
  Ewald energy   TEWEN  =       609.14858154
  -Hartree energ DENC   =      -978.89558674
  -exchange      EXHF   =         0.00000000
  -V(xc)+E(xc)   XCENC  =        38.47190615
  PAW double counting   =       467.53088603     -461.18534848
  entropy T*S    EENTRO =        -0.00000000
  eigenvalues    EBANDS =      -185.09513890
  atomic energy  EATOM  =       474.14443207
  Solvation  Ediel_sol  =         0.00000000
  ---------------------------------------------------
  free energy    TOTEN  =       -35.86583352 eV

  energy without entropy =      -35.86583352  energy(sigma->0) =      -35.86583352


--------------------------------------------------------------------------------------------------------




----------------------------------------- Iteration    1(   8)  ---------------------------------------


    POTLOK:  cpu time   74.5399: real time   74.7211
    SETDIJ:  cpu time    0.9325: real time    0.9348
     EDDAV:  cpu time   36.0418: real time   36.1297
       DOS:  cpu time    0.0000: real time    0.0000
    CHARGE:  cpu time    6.6430: real time    6.6592
    MIXING:  cpu time    2.2433: real time    2.2487
    --------------------------------------------
      LOOP:  cpu time  120.4032: real time  120.6980

 eigenvalue-minimisations  :    36
 total energy-change (2. order) : 0.1583102E+00  (-0.3564834E-01)
 number of electron      14.0000000 magnetization 
 augmentation part        0.1215100 magnetization 

 Broyden mixing:
  rms(total) = 0.63449E-01    rms(broyden)= 0.63449E-01
  rms(prec ) = 0.68806E-01
  weight for this iteration     100.00

 eigenvalues of (default mixing * dielectric matrix)
  average eigenvalue GAMMA=   1.5020
  2.2834  0.9119  1.3106

 Free energy of the ion-electron system (eV)
  ---------------------------------------------------
  alpha Z        PSCENC =         0.01443482
  Ewald energy   TEWEN  =       609.14858154
  -Hartree energ DENC   =      -985.02725547
  -exchange      EXHF   =         0.00000000
  -V(xc)+E(xc)   XCENC  =        39.01353864
  PAW double counting   =       450.76677759     -444.35406213
  entropy T*S    EENTRO =        -0.00000000
  eigenvalues    EBANDS =      -179.41397040
  atomic energy  EATOM  =       474.14443207
  Solvation  Ediel_sol  =         0.00000000
  ---------------------------------------------------
  free energy    TOTEN  =       -35.70752335 eV

  energy without entropy =      -35.70752335  energy(sigma->0) =      -35.70752335


--------------------------------------------------------------------------------------------------------




----------------------------------------- Iteration    1(   9)  ---------------------------------------


    POTLOK:  cpu time   74.6115: real time   74.7928
    SETDIJ:  cpu time    0.9344: real time    0.9366
     EDDAV:  cpu time   42.3763: real time   42.4793
       DOS:  cpu time    0.0000: real time    0.0000
    CHARGE:  cpu time    6.6498: real time    6.6660
    MIXING:  cpu time    2.2968: real time    2.3023
    --------------------------------------------
      LOOP:  cpu time  126.8714: real time  127.1817

 eigenvalue-minimisations  :    44
 total energy-change (2. order) : 0.2755227E-01  (-0.1018630E-01)
 number of electron      14.0000000 magnetization 
 augmentation part        0.1197883 magnetization 

 Broyden mixing:
  rms(total) = 0.24561E-01    rms(broyden)= 0.24561E-01
  rms(prec ) = 0.28775E-01
  weight for this iteration     100.00

 eigenvalues of (default mixing * dielectric matrix)
  average eigenvalue GAMMA=   1.5104
  1.9858  1.9858  1.0350  1.0350

 Free energy of the ion-electron system (eV)
  ---------------------------------------------------
  alpha Z        PSCENC =         0.01443482
  Ewald energy   TEWEN  =       609.14858154
  -Hartree energ DENC   =      -989.09440698
  -exchange      EXHF   =         0.00000000
  -V(xc)+E(xc)   XCENC  =        39.21785060
  PAW double counting   =       459.84304355     -453.44703960
  entropy T*S    EENTRO =        -0.00000000
  eigenvalues    EBANDS =      -175.50686708
  atomic energy  EATOM  =       474.14443207
  Solvation  Ediel_sol  =         0.00000000
  ---------------------------------------------------
  free energy    TOTEN  =       -35.67997108 eV

  energy without entropy =      -35.67997108  energy(sigma->0) =      -35.67997108


--------------------------------------------------------------------------------------------------------




----------------------------------------- Iteration    1(  10)  ---------------------------------------


    POTLOK:  cpu time   74.6825: real time   74.8641
    SETDIJ:  cpu time    0.9305: real time    0.9327
     EDDAV:  cpu time   31.4357: real time   31.5122
       DOS:  cpu time    0.0000: real time    0.0000
    CHARGE:  cpu time    6.6533: real time    6.6695
    MIXING:  cpu time    2.3749: real time    2.3807
    --------------------------------------------
      LOOP:  cpu time  116.0796: real time  116.3640

 eigenvalue-minimisations  :    30
 total energy-change (2. order) : 0.3369491E-02  (-0.7750174E-03)
 number of electron      14.0000000 magnetization 
 augmentation part        0.1198174 magnetization 

 Broyden mixing:
  rms(total) = 0.13307E-01    rms(broyden)= 0.13307E-01
  rms(prec ) = 0.16951E-01
  weight for this iteration     100.00

 eigenvalues of (default mixing * dielectric matrix)
  average eigenvalue GAMMA=   1.5306
  2.0956  2.0956  1.2001  1.2001  1.0619

 Free energy of the ion-electron system (eV)
  ---------------------------------------------------
  alpha Z        PSCENC =         0.01443482
  Ewald energy   TEWEN  =       609.14858154
  -Hartree energ DENC   =      -990.85344918
  -exchange      EXHF   =         0.00000000
  -V(xc)+E(xc)   XCENC  =        39.26607323
  PAW double counting   =       464.14014001     -457.74786324
  entropy T*S    EENTRO =        -0.00000000
  eigenvalues    EBANDS =      -173.78895084
  atomic energy  EATOM  =       474.14443207
  Solvation  Ediel_sol  =         0.00000000
  ---------------------------------------------------
  free energy    TOTEN  =       -35.67660159 eV

  energy without entropy =      -35.67660159  energy(sigma->0) =      -35.67660159


--------------------------------------------------------------------------------------------------------




----------------------------------------- Iteration    1(  11)  ---------------------------------------


    POTLOK:  cpu time   74.7342: real time   74.9159
    SETDIJ:  cpu time    0.9248: real time    0.9270
     EDDAV:  cpu time   36.1248: real time   36.2129
       DOS:  cpu time    0.0000: real time    0.0000
    CHARGE:  cpu time    6.6415: real time    6.6576
    MIXING:  cpu time    2.4382: real time    2.4441
    --------------------------------------------
      LOOP:  cpu time  120.8662: real time  121.1623

 eigenvalue-minimisations  :    36
 total energy-change (2. order) : 0.8744435E-04  (-0.2211680E-03)
 number of electron      14.0000000 magnetization 
 augmentation part        0.1199900 magnetization 

 Broyden mixing:
  rms(total) = 0.76743E-02    rms(broyden)= 0.76743E-02
  rms(prec ) = 0.10751E-01
  weight for this iteration     100.00

 eigenvalues of (default mixing * dielectric matrix)
  average eigenvalue GAMMA=   1.6802
  3.0935  2.4736  1.2662  1.0067  1.1205  1.1205

 Free energy of the ion-electron system (eV)
  ---------------------------------------------------
  alpha Z        PSCENC =         0.01443482
  Ewald energy   TEWEN  =       609.14858154
  -Hartree energ DENC   =      -992.26022945
  -exchange      EXHF   =         0.00000000
  -V(xc)+E(xc)   XCENC  =        39.31025194
  PAW double counting   =       466.65767105     -460.26663750
  entropy T*S    EENTRO =        -0.00000000
  eigenvalues    EBANDS =      -172.42501861
  atomic energy  EATOM  =       474.14443207
  Solvation  Ediel_sol  =         0.00000000
  ---------------------------------------------------
  free energy    TOTEN  =       -35.67651415 eV

  energy without entropy =      -35.67651415  energy(sigma->0) =      -35.67651415


--------------------------------------------------------------------------------------------------------




----------------------------------------- Iteration    1(  12)  ---------------------------------------


    POTLOK:  cpu time   74.8185: real time   75.0003
    SETDIJ:  cpu time    0.9211: real time    0.9233
     EDDAV:  cpu time   27.5050: real time   27.5727
       DOS:  cpu time    0.0000: real time    0.0000
    CHARGE:  cpu time    6.6561: real time    6.6723
    MIXING:  cpu time    2.5012: real time    2.5073
    --------------------------------------------
      LOOP:  cpu time  112.4045: real time  112.6806

 eigenvalue-minimisations  :    25
 total energy-change (2. order) :-0.1495839E-02  (-0.2221142E-03)
 number of electron      14.0000000 magnetization 
 augmentation part        0.1199602 magnetization 

 Broyden mixing:
  rms(total) = 0.42635E-02    rms(broyden)= 0.42635E-02
  rms(prec ) = 0.60973E-02
  weight for this iteration     100.00

 eigenvalues of (default mixing * dielectric matrix)
  average eigenvalue GAMMA=   1.7542
  3.6214  2.4306  1.4843  1.4843  0.9903  1.1342  1.1342

 Free energy of the ion-electron system (eV)
  ---------------------------------------------------
  alpha Z        PSCENC =         0.01443482
  Ewald energy   TEWEN  =       609.14858154
  -Hartree energ DENC   =      -993.79398129
  -exchange      EXHF   =         0.00000000
  -V(xc)+E(xc)   XCENC  =        39.34336061
  PAW double counting   =       469.56378895     -463.17458070
  entropy T*S    EENTRO =        -0.00000000
  eigenvalues    EBANDS =      -170.92404599
  atomic energy  EATOM  =       474.14443207
  Solvation  Ediel_sol  =         0.00000000
  ---------------------------------------------------
  free energy    TOTEN  =       -35.67800998 eV

  energy without entropy =      -35.67800998  energy(sigma->0) =      -35.67800998


--------------------------------------------------------------------------------------------------------




----------------------------------------- Iteration    1(  13)  ---------------------------------------


    POTLOK:  cpu time   74.8972: real time   75.0792
    SETDIJ:  cpu time    0.9150: real time    0.9172
     EDDAV:  cpu time   29.8399: real time   29.9125
       DOS:  cpu time    0.0000: real time    0.0000
    CHARGE:  cpu time    6.6422: real time    6.6583
    MIXING:  cpu time    2.6054: real time    2.6118
    --------------------------------------------
      LOOP:  cpu time  114.9024: real time  115.1840

 eigenvalue-minimisations  :    28
 total energy-change (2. order) :-0.4781427E-02  (-0.1315154E-03)
 number of electron      14.0000000 magnetization 
 augmentation part        0.1199402 magnetization 

 Broyden mixing:
  rms(total) = 0.26564E-02    rms(broyden)= 0.26564E-02
  rms(prec ) = 0.37270E-02
  weight for this iteration     100.00

 eigenvalues of (default mixing * dielectric matrix)
  average eigenvalue GAMMA=   1.9024
  4.7201  2.7183  2.2773  1.3040  0.9102  1.1520  1.0687  1.0687

 Free energy of the ion-electron system (eV)
  ---------------------------------------------------
  alpha Z        PSCENC =         0.01443482
  Ewald energy   TEWEN  =       609.14858154
  -Hartree energ DENC   =      -994.61420439
  -exchange      EXHF   =         0.00000000
  -V(xc)+E(xc)   XCENC  =        39.35667604
  PAW double counting   =       469.17271074     -462.78263417
  entropy T*S    EENTRO =        -0.00000000
  eigenvalues    EBANDS =      -170.12278805
  atomic energy  EATOM  =       474.14443207
  Solvation  Ediel_sol  =         0.00000000
  ---------------------------------------------------
  free energy    TOTEN  =       -35.68279141 eV

  energy without entropy =      -35.68279141  energy(sigma->0) =      -35.68279141


--------------------------------------------------------------------------------------------------------




----------------------------------------- Iteration    1(  14)  ---------------------------------------


    POTLOK:  cpu time   74.9250: real time   75.1071
    SETDIJ:  cpu time    0.9168: real time    0.9190
     EDDAV:  cpu time   29.8598: real time   29.9326
       DOS:  cpu time    0.0000: real time    0.0000
    CHARGE:  cpu time    6.6533: real time    6.6695
    MIXING:  cpu time    2.6952: real time    2.7017
    --------------------------------------------
      LOOP:  cpu time  115.0528: real time  115.3351

 eigenvalue-minimisations  :    28
 total energy-change (2. order) :-0.3946267E-02  (-0.6765439E-04)
 number of electron      14.0000000 magnetization 
 augmentation part        0.1200507 magnetization 

 Broyden mixing:
  rms(total) = 0.17877E-02    rms(broyden)= 0.17877E-02
  rms(prec ) = 0.23738E-02
  weight for this iteration     100.00

 eigenvalues of (default mixing * dielectric matrix)
  average eigenvalue GAMMA=   1.9569
  5.3645  2.8834  2.3027  1.4782  1.1486  1.1486  1.0044  1.0359  1.2453

 Free energy of the ion-electron system (eV)
  ---------------------------------------------------
  alpha Z        PSCENC =         0.01443482
  Ewald energy   TEWEN  =       609.14858154
  -Hartree energ DENC   =      -995.01399854
  -exchange      EXHF   =         0.00000000
  -V(xc)+E(xc)   XCENC  =        39.35767586
  PAW double counting   =       468.62853145     -462.23758234
  entropy T*S    EENTRO =        -0.00000000
  eigenvalues    EBANDS =      -169.72881253
  atomic energy  EATOM  =       474.14443207
  Solvation  Ediel_sol  =         0.00000000
  ---------------------------------------------------
  free energy    TOTEN  =       -35.68673768 eV

  energy without entropy =      -35.68673768  energy(sigma->0) =      -35.68673768


--------------------------------------------------------------------------------------------------------




----------------------------------------- Iteration    1(  15)  ---------------------------------------


    POTLOK:  cpu time   74.9668: real time   75.1490
    SETDIJ:  cpu time    0.9152: real time    0.9174
     EDDAV:  cpu time   36.1808: real time   36.2690
       DOS:  cpu time    0.0000: real time    0.0000
    CHARGE:  cpu time    6.6431: real time    6.6593
    MIXING:  cpu time    2.8063: real time    2.8131
    --------------------------------------------
      LOOP:  cpu time  121.5149: real time  121.8127

 eigenvalue-minimisations  :    36
 total energy-change (2. order) :-0.3128334E-02  (-0.4901866E-04)
 number of electron      14.0000000 magnetization 
 augmentation part        0.1202264 magnetization 

 Broyden mixing:
  rms(total) = 0.13990E-02    rms(broyden)= 0.13990E-02
  rms(prec ) = 0.16994E-02
  weight for this iteration     100.00

 eigenvalues of (default mixing * dielectric matrix)
  average eigenvalue GAMMA=   2.0597
  6.1616  3.4909  2.2565  2.2565  1.3620  1.0668  1.0668  0.9181  1.0088  1.0088

 Free energy of the ion-electron system (eV)
  ---------------------------------------------------
  alpha Z        PSCENC =         0.01443482
  Ewald energy   TEWEN  =       609.14858154
  -Hartree energ DENC   =      -995.09970168
  -exchange      EXHF   =         0.00000000
  -V(xc)+E(xc)   XCENC  =        39.35207834
  PAW double counting   =       468.88869629     -462.49768773
  entropy T*S    EENTRO =        -0.00000000
  eigenvalues    EBANDS =      -169.64069966
  atomic energy  EATOM  =       474.14443207
  Solvation  Ediel_sol  =         0.00000000
  ---------------------------------------------------
  free energy    TOTEN  =       -35.68986601 eV

  energy without entropy =      -35.68986601  energy(sigma->0) =      -35.68986601


--------------------------------------------------------------------------------------------------------




----------------------------------------- Iteration    1(  16)  ---------------------------------------


    POTLOK:  cpu time   74.9783: real time   75.1605
    SETDIJ:  cpu time    0.9152: real time    0.9175
     EDDAV:  cpu time   31.5378: real time   31.6145
       DOS:  cpu time    0.0000: real time    0.0000
    CHARGE:  cpu time    6.6389: real time    6.6550
    MIXING:  cpu time    2.8982: real time    2.9052
    --------------------------------------------
      LOOP:  cpu time  116.9712: real time  117.2577

 eigenvalue-minimisations  :    30
 total energy-change (2. order) :-0.1886484E-02  (-0.1906018E-04)
 number of electron      14.0000000 magnetization 
 augmentation part        0.1201964 magnetization 

 Broyden mixing:
  rms(total) = 0.76110E-03    rms(broyden)= 0.76110E-03
  rms(prec ) = 0.93603E-03
  weight for this iteration     100.00

 eigenvalues of (default mixing * dielectric matrix)
  average eigenvalue GAMMA=   2.1372
  6.8435  4.0390  2.4513  2.2531  1.5342  1.1427  1.1427  1.1176  1.1176  0.9338
  0.9338

 Free energy of the ion-electron system (eV)
  ---------------------------------------------------
  alpha Z        PSCENC =         0.01443482
  Ewald energy   TEWEN  =       609.14858154
  -Hartree energ DENC   =      -995.14994641
  -exchange      EXHF   =         0.00000000
  -V(xc)+E(xc)   XCENC  =        39.34823967
  PAW double counting   =       469.45779247     -463.06732100
  entropy T*S    EENTRO =        -0.00000000
  eigenvalues    EBANDS =      -169.58796565
  atomic energy  EATOM  =       474.14443207
  Solvation  Ediel_sol  =         0.00000000
  ---------------------------------------------------
  free energy    TOTEN  =       -35.69175250 eV

  energy without entropy =      -35.69175250  energy(sigma->0) =      -35.69175250


--------------------------------------------------------------------------------------------------------




----------------------------------------- Iteration    1(  17)  ---------------------------------------


    POTLOK:  cpu time   74.9717: real time   75.1540
    SETDIJ:  cpu time    0.9154: real time    0.9176
     EDDAV:  cpu time   36.1679: real time   36.2560
       DOS:  cpu time    0.0000: real time    0.0000
    CHARGE:  cpu time    6.6498: real time    6.6659
    MIXING:  cpu time    3.0003: real time    3.0076
    --------------------------------------------
      LOOP:  cpu time  121.7078: real time  122.0063

 eigenvalue-minimisations  :    36
 total energy-change (2. order) :-0.9058044E-03  (-0.7208043E-05)
 number of electron      14.0000000 magnetization 
 augmentation part        0.1201781 magnetization 

 Broyden mixing:
  rms(total) = 0.42543E-03    rms(broyden)= 0.42543E-03
  rms(prec ) = 0.53508E-03
  weight for this iteration     100.00

 eigenvalues of (default mixing * dielectric matrix)
  average eigenvalue GAMMA=   2.2407
  7.6174  4.5199  2.5281  2.5281  2.1568  1.3533  1.1181  1.1181  1.0489  1.0489
  0.9494  0.9012

 Free energy of the ion-electron system (eV)
  ---------------------------------------------------
  alpha Z        PSCENC =         0.01443482
  Ewald energy   TEWEN  =       609.14858154
  -Hartree energ DENC   =      -995.18946944
  -exchange      EXHF   =         0.00000000
  -V(xc)+E(xc)   XCENC  =        39.34762733
  PAW double counting   =       469.73889042     -463.34867086
  entropy T*S    EENTRO =        -0.00000000
  eigenvalues    EBANDS =      -169.54848418
  atomic energy  EATOM  =       474.14443207
  Solvation  Ediel_sol  =         0.00000000
  ---------------------------------------------------
  free energy    TOTEN  =       -35.69265830 eV

  energy without entropy =      -35.69265830  energy(sigma->0) =      -35.69265830


--------------------------------------------------------------------------------------------------------




----------------------------------------- Iteration    1(  18)  ---------------------------------------


    POTLOK:  cpu time   74.8969: real time   75.0788
    SETDIJ:  cpu time    0.9178: real time    0.9201
     EDDAV:  cpu time   27.5539: real time   27.6210
       DOS:  cpu time    0.0000: real time    0.0000
    CHARGE:  cpu time    6.6458: real time    6.6620
    MIXING:  cpu time    3.1045: real time    3.1121
    --------------------------------------------
      LOOP:  cpu time  113.1218: real time  113.3992

 eigenvalue-minimisations  :    25
 total energy-change (2. order) :-0.5816879E-03  (-0.2525384E-05)
 number of electron      14.0000000 magnetization 
 augmentation part        0.1201899 magnetization 

 Broyden mixing:
  rms(total) = 0.22758E-03    rms(broyden)= 0.22758E-03
  rms(prec ) = 0.27910E-03
  weight for this iteration     100.00

 eigenvalues of (default mixing * dielectric matrix)
  average eigenvalue GAMMA=   2.2274
  7.9166  4.7928  2.8868  2.4258  1.9651  1.6297  1.1450  1.1450  1.1419  1.1419
  0.9495  0.9495  0.8672

 Free energy of the ion-electron system (eV)
  ---------------------------------------------------
  alpha Z        PSCENC =         0.01443482
  Ewald energy   TEWEN  =       609.14858154
  -Hartree energ DENC   =      -995.19008974
  -exchange      EXHF   =         0.00000000
  -V(xc)+E(xc)   XCENC  =        39.34609435
  PAW double counting   =       469.80189178     -463.41167419
  entropy T*S    EENTRO =        -0.00000000
  eigenvalues    EBANDS =      -169.54691061
  atomic energy  EATOM  =       474.14443207
  Solvation  Ediel_sol  =         0.00000000
  ---------------------------------------------------
  free energy    TOTEN  =       -35.69323999 eV

  energy without entropy =      -35.69323999  energy(sigma->0) =      -35.69323999


--------------------------------------------------------------------------------------------------------




----------------------------------------- Iteration    1(  19)  ---------------------------------------


    POTLOK:  cpu time   74.8821: real time   75.0640
    SETDIJ:  cpu time    0.9148: real time    0.9170
     EDDAV:  cpu time   42.4858: real time   42.5891
       DOS:  cpu time    0.0000: real time    0.0000
    CHARGE:  cpu time    6.6645: real time    6.6807
    MIXING:  cpu time    3.2021: real time    3.2099
    --------------------------------------------
      LOOP:  cpu time  128.1520: real time  128.4659

 eigenvalue-minimisations  :    44
 total energy-change (2. order) :-0.1761924E-03  (-0.6023983E-06)
 number of electron      14.0000000 magnetization 
 augmentation part        0.1202149 magnetization 

 Broyden mixing:
  rms(total) = 0.13799E-03    rms(broyden)= 0.13799E-03
  rms(prec ) = 0.17539E-03
  weight for this iteration     100.00

 eigenvalues of (default mixing * dielectric matrix)
  average eigenvalue GAMMA=   2.2803
  8.4439  5.2303  3.2522  2.3997  2.1236  1.8891  1.3858  1.1428  1.1428  1.0791
  1.0791  0.9416  0.9416  0.8730

 Free energy of the ion-electron system (eV)
  ---------------------------------------------------
  alpha Z        PSCENC =         0.01443482
  Ewald energy   TEWEN  =       609.14858154
  -Hartree energ DENC   =      -995.19296651
  -exchange      EXHF   =         0.00000000
  -V(xc)+E(xc)   XCENC  =        39.34587514
  PAW double counting   =       469.77350767     -463.38326114
  entropy T*S    EENTRO =        -0.00000000
  eigenvalues    EBANDS =      -169.54401976
  atomic energy  EATOM  =       474.14443207
  Solvation  Ediel_sol  =         0.00000000
  ---------------------------------------------------
  free energy    TOTEN  =       -35.69341618 eV

  energy without entropy =      -35.69341618  energy(sigma->0) =      -35.69341618


--------------------------------------------------------------------------------------------------------




----------------------------------------- Iteration    1(  20)  ---------------------------------------


    POTLOK:  cpu time   74.7748: real time   74.9565
    SETDIJ:  cpu time    0.9150: real time    0.9172
     EDDAV:  cpu time   25.2272: real time   25.2885
       DOS:  cpu time    0.0000: real time    0.0000
    CHARGE:  cpu time    6.6395: real time    6.6556
    MIXING:  cpu time    3.3583: real time    3.3665
    --------------------------------------------
      LOOP:  cpu time  110.9175: real time  111.1894

 eigenvalue-minimisations  :    22
 total energy-change (2. order) :-0.1354673E-03  (-0.2021159E-06)
 number of electron      14.0000000 magnetization 
 augmentation part        0.1202118 magnetization 

 Broyden mixing:
  rms(total) = 0.72485E-04    rms(broyden)= 0.72485E-04
  rms(prec ) = 0.93326E-04
  weight for this iteration     100.00

 eigenvalues of (default mixing * dielectric matrix)
  average eigenvalue GAMMA=   2.3427
  8.8340  5.6665  3.8980  2.5991  2.2867  2.0058  1.4582  1.1411  1.1411  1.1583
  1.1583  0.9753  0.9753  0.9659  0.8760

 Free energy of the ion-electron system (eV)
  ---------------------------------------------------
  alpha Z        PSCENC =         0.01443482
  Ewald energy   TEWEN  =       609.14858154
  -Hartree energ DENC   =      -995.20340228
  -exchange      EXHF   =         0.00000000
  -V(xc)+E(xc)   XCENC  =        39.34597753
  PAW double counting   =       469.81319585     -463.42298922
  entropy T*S    EENTRO =        -0.00000000
  eigenvalues    EBANDS =      -169.53378196
  atomic energy  EATOM  =       474.14443207
  Solvation  Ediel_sol  =         0.00000000
  ---------------------------------------------------
  free energy    TOTEN  =       -35.69355165 eV

  energy without entropy =      -35.69355165  energy(sigma->0) =      -35.69355165


--------------------------------------------------------------------------------------------------------




----------------------------------------- Iteration    1(  21)  ---------------------------------------


    POTLOK:  cpu time   74.6664: real time   74.8479
    SETDIJ:  cpu time    0.9191: real time    0.9214
     EDDAV:  cpu time   25.2174: real time   25.2787
       DOS:  cpu time    0.0000: real time    0.0000
    CHARGE:  cpu time    6.6393: real time    6.6555
    MIXING:  cpu time    3.4911: real time    3.4995
    --------------------------------------------
      LOOP:  cpu time  110.9361: real time  111.2077

 eigenvalue-minimisations  :    22
 total energy-change (2. order) :-0.6610648E-04  (-0.6711943E-07)
 number of electron      14.0000000 magnetization 
 augmentation part        0.1202113 magnetization 

 Broyden mixing:
  rms(total) = 0.43513E-04    rms(broyden)= 0.43513E-04
  rms(prec ) = 0.53703E-04
  weight for this iteration     100.00

 eigenvalues of (default mixing * dielectric matrix)
  average eigenvalue GAMMA=   2.3444
  8.9400  5.9580  3.9233  2.9218  2.3679  1.9232  1.9232  1.3832  1.1399  1.1399
  1.0652  1.0652  0.9504  0.9504  0.9668  0.8913

 Free energy of the ion-electron system (eV)
  ---------------------------------------------------
  alpha Z        PSCENC =         0.01443482
  Ewald energy   TEWEN  =       609.14858154
  -Hartree energ DENC   =      -995.20616169
  -exchange      EXHF   =         0.00000000
  -V(xc)+E(xc)   XCENC  =        39.34591955
  PAW double counting   =       469.80726174     -463.41704054
  entropy T*S    EENTRO =        -0.00000000
  eigenvalues    EBANDS =      -169.53104525
  atomic energy  EATOM  =       474.14443207
  Solvation  Ediel_sol  =         0.00000000
  ---------------------------------------------------
  free energy    TOTEN  =       -35.69361776 eV

  energy without entropy =      -35.69361776  energy(sigma->0) =      -35.69361776


--------------------------------------------------------------------------------------------------------




----------------------------------------- Iteration    1(  22)  ---------------------------------------


    POTLOK:  cpu time   74.5274: real time   74.7086
    SETDIJ:  cpu time    0.9153: real time    0.9176
     EDDAV:  cpu time   36.1606: real time   36.2487
       DOS:  cpu time    0.0000: real time    0.0000
    CHARGE:  cpu time    6.6496: real time    6.6657
    MIXING:  cpu time    3.6103: real time    3.6191
    --------------------------------------------
      LOOP:  cpu time  121.8660: real time  122.1650

 eigenvalue-minimisations  :    36
 total energy-change (2. order) :-0.2918565E-04  (-0.2230550E-07)
 number of electron      14.0000000 magnetization 
 augmentation part        0.1202130 magnetization 

 Broyden mixing:
  rms(total) = 0.45163E-04    rms(broyden)= 0.45163E-04
  rms(prec ) = 0.49660E-04
  weight for this iteration     100.00

 eigenvalues of (default mixing * dielectric matrix)
  average eigenvalue GAMMA=   2.3895
  9.2174  6.2745  4.5131  2.9767  2.5534  2.2398  1.9543  1.3737  1.3737  1.1356
  1.1356  1.0351  1.0351  0.8808  0.9965  0.9631  0.9631

 Free energy of the ion-electron system (eV)
  ---------------------------------------------------
  alpha Z        PSCENC =         0.01443482
  Ewald energy   TEWEN  =       609.14858154
  -Hartree energ DENC   =      -995.20428540
  -exchange      EXHF   =         0.00000000
  -V(xc)+E(xc)   XCENC  =        39.34577672
  PAW double counting   =       469.80149700     -463.41126077
  entropy T*S    EENTRO =        -0.00000000
  eigenvalues    EBANDS =      -169.53282291
  atomic energy  EATOM  =       474.14443207
  Solvation  Ediel_sol  =         0.00000000
  ---------------------------------------------------
  free energy    TOTEN  =       -35.69364694 eV

  energy without entropy =      -35.69364694  energy(sigma->0) =      -35.69364694


--------------------------------------------------------------------------------------------------------




----------------------------------------- Iteration    1(  23)  ---------------------------------------


    POTLOK:  cpu time   74.5601: real time   74.7414
    SETDIJ:  cpu time    0.9139: real time    0.9161
     EDDAV:  cpu time   29.8377: real time   29.9103
       DOS:  cpu time    0.0000: real time    0.0000
    CHARGE:  cpu time    6.6484: real time    6.6646
    MIXING:  cpu time    3.7529: real time    3.7620
    --------------------------------------------
      LOOP:  cpu time  115.7157: real time  115.9995

 eigenvalue-minimisations  :    28
 total energy-change (2. order) :-0.1448288E-04  (-0.9374967E-08)
 number of electron      14.0000000 magnetization 
 augmentation part        0.1202118 magnetization 

 Broyden mixing:
  rms(total) = 0.11939E-04    rms(broyden)= 0.11939E-04
  rms(prec ) = 0.15561E-04
  weight for this iteration     100.00

 eigenvalues of (default mixing * dielectric matrix)
  average eigenvalue GAMMA=   2.3914
  9.3607  6.5685  4.7244  3.4363  2.4972  2.3194  2.0045  1.5769  1.1326  1.1326
  1.2464  1.2464  1.0264  1.0264  0.8719  0.9639  0.9553  0.9553

 Free energy of the ion-electron system (eV)
  ---------------------------------------------------
  alpha Z        PSCENC =         0.01443482
  Ewald energy   TEWEN  =       609.14858154
  -Hartree energ DENC   =      -995.20693579
  -exchange      EXHF   =         0.00000000
  -V(xc)+E(xc)   XCENC  =        39.34584445
  PAW double counting   =       469.81226277     -463.42203720
  entropy T*S    EENTRO =        -0.00000000
  eigenvalues    EBANDS =      -169.53024408
  atomic energy  EATOM  =       474.14443207
  Solvation  Ediel_sol  =         0.00000000
  ---------------------------------------------------
  free energy    TOTEN  =       -35.69366142 eV

  energy without entropy =      -35.69366142  energy(sigma->0) =      -35.69366142


--------------------------------------------------------------------------------------------------------




----------------------------------------- Iteration    1(  24)  ---------------------------------------


    POTLOK:  cpu time   74.5822: real time   74.7636
    SETDIJ:  cpu time    0.9190: real time    0.9212
     EDDAV:  cpu time   27.5223: real time   27.5894
       DOS:  cpu time    0.0000: real time    0.0000
    CHARGE:  cpu time    6.6528: real time    6.6690
    MIXING:  cpu time    3.8892: real time    3.8986
    --------------------------------------------
      LOOP:  cpu time  113.5682: real time  113.8467

 eigenvalue-minimisations  :    25
 total energy-change (2. order) :-0.6179091E-05  (-0.2879487E-08)
 number of electron      14.0000000 magnetization 
 augmentation part        0.1202115 magnetization 

 Broyden mixing:
  rms(total) = 0.11743E-04    rms(broyden)= 0.11743E-04
  rms(prec ) = 0.13357E-04
  weight for this iteration     100.00

 eigenvalues of (default mixing * dielectric matrix)
  average eigenvalue GAMMA=   2.3975
  9.4426  6.7934  4.9516  3.6803  2.6070  2.2778  2.2778  1.8649  1.1306  1.1306
  1.3396  1.3396  1.0333  1.0333  0.9766  0.9766  0.9720  0.8699  0.8554

 Free energy of the ion-electron system (eV)
  ---------------------------------------------------
  alpha Z        PSCENC =         0.01443482
  Ewald energy   TEWEN  =       609.14858154
  -Hartree energ DENC   =      -995.20631249
  -exchange      EXHF   =         0.00000000
  -V(xc)+E(xc)   XCENC  =        39.34580615
  PAW double counting   =       469.81038622     -463.42015767
  entropy T*S    EENTRO =        -0.00000000
  eigenvalues    EBANDS =      -169.53083824
  atomic energy  EATOM  =       474.14443207
  Solvation  Ediel_sol  =         0.00000000
  ---------------------------------------------------
  free energy    TOTEN  =       -35.69366760 eV

  energy without entropy =      -35.69366760  energy(sigma->0) =      -35.69366760


--------------------------------------------------------------------------------------------------------




----------------------------------------- Iteration    1(  25)  ---------------------------------------


    POTLOK:  cpu time   74.6838: real time   74.8654
    SETDIJ:  cpu time    0.9161: real time    0.9184
     EDDAV:  cpu time   25.2351: real time   25.2966
       DOS:  cpu time    0.0000: real time    0.0000
    CHARGE:  cpu time    6.6545: real time    6.6707
    MIXING:  cpu time    4.0497: real time    4.0596
    --------------------------------------------
      LOOP:  cpu time  111.5420: real time  111.8158

 eigenvalue-minimisations  :    22
 total energy-change (2. order) :-0.3728148E-05  (-0.1463484E-08)
 number of electron      14.0000000 magnetization 
 augmentation part        0.1202118 magnetization 

 Broyden mixing:
  rms(total) = 0.43784E-05    rms(broyden)= 0.43784E-05
  rms(prec ) = 0.55755E-05
  weight for this iteration     100.00

 eigenvalues of (default mixing * dielectric matrix)
  average eigenvalue GAMMA=   2.4244
  9.5623  7.0211  5.2835  3.9592  2.9575  2.5347  2.1310  2.1310  1.5265  1.1324
  1.1324  1.2153  1.2096  1.0091  1.0091  0.8872  0.9336  0.9336  0.9600  0.9600

 Free energy of the ion-electron system (eV)
  ---------------------------------------------------
  alpha Z        PSCENC =         0.01443482
  Ewald energy   TEWEN  =       609.14858154
  -Hartree energ DENC   =      -995.20647690
  -exchange      EXHF   =         0.00000000
  -V(xc)+E(xc)   XCENC  =        39.34580942
  PAW double counting   =       469.81243517     -463.42220770
  entropy T*S    EENTRO =        -0.00000000
  eigenvalues    EBANDS =      -169.53067974
  atomic energy  EATOM  =       474.14443207
  Solvation  Ediel_sol  =         0.00000000
  ---------------------------------------------------
  free energy    TOTEN  =       -35.69367133 eV

  energy without entropy =      -35.69367133  energy(sigma->0) =      -35.69367133


--------------------------------------------------------------------------------------------------------




----------------------------------------- Iteration    1(  26)  ---------------------------------------


    POTLOK:  cpu time   74.7233: real time   74.9048
    SETDIJ:  cpu time    0.9170: real time    0.9192
     EDDAV:  cpu time   36.1578: real time   36.2457
       DOS:  cpu time    0.0000: real time    0.0000
    CHARGE:  cpu time    6.6442: real time    6.6604
    MIXING:  cpu time    4.2001: real time    4.2103
    --------------------------------------------
      LOOP:  cpu time  122.6450: real time  122.9455

 eigenvalue-minimisations  :    36
 total energy-change (2. order) :-0.1754926E-05  (-0.1063727E-08)
 number of electron      14.0000000 magnetization 
 augmentation part        0.1202121 magnetization 

 Broyden mixing:
  rms(total) = 0.63344E-05    rms(broyden)= 0.63344E-05
  rms(prec ) = 0.67668E-05
  weight for this iteration     100.00

 eigenvalues of (default mixing * dielectric matrix)
  average eigenvalue GAMMA=   2.4242
  9.5756  7.2680  5.4646  4.1513  3.0919  2.4812  2.2687  1.9652  1.9652  1.4595
  1.1328  1.1328  1.1612  1.0818  1.0818  0.9972  0.8749  0.9336  0.9336  0.9441
  0.9441

 Free energy of the ion-electron system (eV)
  ---------------------------------------------------
  alpha Z        PSCENC =         0.01443482
  Ewald energy   TEWEN  =       609.14858154
  -Hartree energ DENC   =      -995.20644810
  -exchange      EXHF   =         0.00000000
  -V(xc)+E(xc)   XCENC  =        39.34580403
  PAW double counting   =       469.81362384     -463.42339725
  entropy T*S    EENTRO =        -0.00000000
  eigenvalues    EBANDS =      -169.53070404
  atomic energy  EATOM  =       474.14443207
  Solvation  Ediel_sol  =         0.00000000
  ---------------------------------------------------
  free energy    TOTEN  =       -35.69367309 eV

  energy without entropy =      -35.69367309  energy(sigma->0) =      -35.69367309


--------------------------------------------------------------------------------------------------------




----------------------------------------- Iteration    1(  27)  ---------------------------------------


    POTLOK:  cpu time   74.6710: real time   74.8525
    SETDIJ:  cpu time    0.9151: real time    0.9173
     EDDAV:  cpu time   25.2143: real time   25.2757
       DOS:  cpu time    0.0000: real time    0.0000
    CHARGE:  cpu time    6.6603: real time    6.6765
    MIXING:  cpu time    4.3433: real time    4.3539
    --------------------------------------------
      LOOP:  cpu time  111.8067: real time  112.0812

 eigenvalue-minimisations  :    22
 total energy-change (2. order) :-0.6750452E-06  (-0.6567742E-09)
 number of electron      14.0000000 magnetization 
 augmentation part        0.1202120 magnetization 

 Broyden mixing:
  rms(total) = 0.23811E-05    rms(broyden)= 0.23811E-05
  rms(prec ) = 0.26938E-05
  weight for this iteration     100.00

 eigenvalues of (default mixing * dielectric matrix)
  average eigenvalue GAMMA=   2.4311
  9.5727  7.5115  5.6462  4.3197  3.3062  2.4760  2.4760  2.3284  1.9925  1.5232
  1.3718  1.1310  1.1310  0.9931  0.9931  1.0364  1.0364  1.0116  0.9661  0.9661
  0.8772  0.8179

 Free energy of the ion-electron system (eV)
  ---------------------------------------------------
  alpha Z        PSCENC =         0.01443482
  Ewald energy   TEWEN  =       609.14858154
  -Hartree energ DENC   =      -995.20651335
  -exchange      EXHF   =         0.00000000
  -V(xc)+E(xc)   XCENC  =        39.34580817
  PAW double counting   =       469.81316479     -463.42293720
  entropy T*S    EENTRO =        -0.00000000
  eigenvalues    EBANDS =      -169.53064459
  atomic energy  EATOM  =       474.14443207
  Solvation  Ediel_sol  =         0.00000000
  ---------------------------------------------------
  free energy    TOTEN  =       -35.69367376 eV

  energy without entropy =      -35.69367376  energy(sigma->0) =      -35.69367376


--------------------------------------------------------------------------------------------------------




----------------------------------------- Iteration    1(  28)  ---------------------------------------


    POTLOK:  cpu time   74.5937: real time   74.7750
    SETDIJ:  cpu time    0.9159: real time    0.9181
     EDDAV:  cpu time   36.1618: real time   36.2497
       DOS:  cpu time    0.0000: real time    0.0000
    CHARGE:  cpu time    6.6415: real time    6.6577
    MIXING:  cpu time    4.5228: real time    4.5338
    --------------------------------------------
      LOOP:  cpu time  122.8385: real time  123.1392

 eigenvalue-minimisations  :    36
 total energy-change (2. order) :-0.4225362E-06  (-0.5216716E-09)
 number of electron      14.0000000 magnetization 
 augmentation part        0.1202121 magnetization 

 Broyden mixing:
  rms(total) = 0.33676E-05    rms(broyden)= 0.33676E-05
  rms(prec ) = 0.35253E-05
  weight for this iteration     100.00

 eigenvalues of (default mixing * dielectric matrix)
  average eigenvalue GAMMA=   2.4029
  9.6277  7.6527  5.8001  4.5559  3.4623  2.6665  2.4111  1.9780  1.9780  1.5255
  1.5255  1.1312  1.1312  1.0526  1.0526  1.1013  1.1013  0.9966  0.9966  0.8999
  0.8999  0.8773  0.8431

 Free energy of the ion-electron system (eV)
  ---------------------------------------------------
  alpha Z        PSCENC =         0.01443482
  Ewald energy   TEWEN  =       609.14858154
  -Hartree energ DENC   =      -995.20653804
  -exchange      EXHF   =         0.00000000
  -V(xc)+E(xc)   XCENC  =        39.34580800
  PAW double counting   =       469.81392036     -463.42369329
  entropy T*S    EENTRO =        -0.00000000
  eigenvalues    EBANDS =      -169.53061963
  atomic energy  EATOM  =       474.14443207
  Solvation  Ediel_sol  =         0.00000000
  ---------------------------------------------------
[...]
     EDDAV:  cpu time   31.5002: real time   31.5769
       DOS:  cpu time    0.0000: real time    0.0000
    CHARGE:  cpu time    6.6503: real time    6.6665
    MIXING:  cpu time    4.6720: real time    4.6833
    --------------------------------------------
      LOOP:  cpu time  118.1656: real time  118.4551

 eigenvalue-minimisations  :    30
 total energy-change (2. order) :-0.1383643E-06  (-0.4491021E-09)
 number of electron      14.0000000 magnetization 
 augmentation part        0.1202122 magnetization 

 Broyden mixing:
  rms(total) = 0.90406E-06    rms(broyden)= 0.90406E-06
  rms(prec ) = 0.10478E-05
  weight for this iteration     100.00

 eigenvalues of (default mixing * dielectric matrix)
  average eigenvalue GAMMA=   2.4374
  9.6910  7.8654  6.0908  4.8684  3.7408  2.8982  2.4079  2.4079  1.9011  1.9011
  1.3919  1.3919  1.1302  1.1302  1.0859  1.0859  0.9951  0.9951  0.9668  0.9668
  0.9215  0.9215  0.8553  0.8874

 Free energy of the ion-electron system (eV)
  ---------------------------------------------------
  alpha Z        PSCENC =         0.01443482
  Ewald energy   TEWEN  =       609.14858154
  -Hartree energ DENC   =      -995.20647740
  -exchange      EXHF   =         0.00000000
  -V(xc)+E(xc)   XCENC  =        39.34580523
  PAW double counting   =       469.81442188     -463.42419487
  entropy T*S    EENTRO =        -0.00000000
  eigenvalues    EBANDS =      -169.53067759
  atomic energy  EATOM  =       474.14443207
  Solvation  Ediel_sol  =         0.00000000
  ---------------------------------------------------
  free energy    TOTEN  =       -35.69367432 eV

  energy without entropy =      -35.69367432  energy(sigma->0) =      -35.69367432


--------------------------------------------------------------------------------------------------------




----------------------------------------- Iteration    1(  30)  ---------------------------------------


    POTLOK:  cpu time   74.2478: real time   74.4283
    SETDIJ:  cpu time    0.9193: real time    0.9215
     EDDAV:  cpu time   25.2089: real time   25.2703
       DOS:  cpu time    0.0000: real time    0.0000
    CHARGE:  cpu time    6.6645: real time    6.6807
    MIXING:  cpu time    4.8648: real time    4.8767
    --------------------------------------------
      LOOP:  cpu time  111.9080: real time  112.1829

 eigenvalue-minimisations  :    22
 total energy-change (2. order) :-0.1734711E-06  (-0.3433023E-09)
 number of electron      14.0000000 magnetization 
 augmentation part        0.1202123 magnetization 

 Broyden mixing:
  rms(total) = 0.67218E-06    rms(broyden)= 0.67218E-06
  rms(prec ) = 0.73433E-06
  weight for this iteration     100.00

 eigenvalues of (default mixing * dielectric matrix)
  average eigenvalue GAMMA=   2.4180
  9.6995  7.9791  6.2197  4.9636  3.8776  3.1305  2.5901  2.3155  1.9862  1.9862
  1.3809  1.3809  1.1296  1.1296  1.1042  1.1042  1.0555  1.0555  0.9912  0.9912
  0.8996  0.8679  0.8679  0.8715  0.8715

 Free energy of the ion-electron system (eV)
  ---------------------------------------------------
  alpha Z        PSCENC =         0.01443482
  Ewald energy   TEWEN  =       609.14858154
  -Hartree energ DENC   =      -995.20643756
  -exchange      EXHF   =         0.00000000
  -V(xc)+E(xc)   XCENC  =        39.34580298
  PAW double counting   =       469.81516993     -463.42494326
  entropy T*S    EENTRO =        -0.00000000
  eigenvalues    EBANDS =      -169.53071501
  atomic energy  EATOM  =       474.14443207
  Solvation  Ediel_sol  =         0.00000000
  ---------------------------------------------------
  free energy    TOTEN  =       -35.69367450 eV

  energy without entropy =      -35.69367450  energy(sigma->0) =      -35.69367450


--------------------------------------------------------------------------------------------------------




----------------------------------------- Iteration    1(  31)  ---------------------------------------


    POTLOK:  cpu time   74.3217: real time   74.5024
    SETDIJ:  cpu time    0.9205: real time    0.9228
     EDDAV:  cpu time   36.1684: real time   36.2565
       DOS:  cpu time    0.0000: real time    0.0000
    --------------------------------------------
      LOOP:  cpu time  111.4132: real time  111.6865

 eigenvalue-minimisations  :    36
 total energy-change (2. order) :-0.5999317E-07  (-0.2681908E-09)
 number of electron      14.0000000 magnetization 
 augmentation part        0.1202123 magnetization 

 Free energy of the ion-electron system (eV)
  ---------------------------------------------------
  alpha Z        PSCENC =         0.01443482
  Ewald energy   TEWEN  =       609.14858154
  -Hartree energ DENC   =      -995.20644810
  -exchange      EXHF   =         0.00000000
  -V(xc)+E(xc)   XCENC  =        39.34580359
  PAW double counting   =       469.81518420     -463.42495759
  entropy T*S    EENTRO =        -0.00000000
  eigenvalues    EBANDS =      -169.53070508
  atomic energy  EATOM  =       474.14443207
  Solvation  Ediel_sol  =         0.00000000
  ---------------------------------------------------
  free energy    TOTEN  =       -35.69367456 eV

  energy without entropy =      -35.69367456  energy(sigma->0) =      -35.69367456


--------------------------------------------------------------------------------------------------------




 average (electrostatic) potential at core
  the test charge radii are     0.5553  0.5412  0.5531
  (the norm of the test charge is              1.0000)
       1-109.7372       2-113.4719       3 -42.0967       4 -42.1395       5 -40.6442
       6 -40.4890       7 -40.6368
 
 
 
 E-fermi :  -5.3779     XC(G=0):  -0.0306     alpha+bet : -0.0077


 k-point     1 :       0.0000    0.0000    0.0000
  band No.  band energies     occupation 
      1     -21.8066      2.00000
      2     -16.2147      2.00000
      3     -12.0178      2.00000
      4     -10.7414      2.00000
      5      -9.7260      2.00000
      6      -8.7947      2.00000
      7      -5.4642      2.00000
      8      -0.6204      0.00000
      9      -0.0356      0.00000
     10       0.0073      0.00000
     11       0.0910      0.00000


--------------------------------------------------------------------------------------------------------


 soft charge-density along one line, spin component           1
         0         1         2         3         4         5         6         7         8         9
 total charge-density along one line
 
 pseudopotential strength for first ion, spin component:           1
 12.862  27.286 -21.313  -0.035   0.011  -0.009  -0.028   0.004
 27.286  57.713 -51.057  -0.067   0.021  -0.017  -0.066   0.012
-21.313 -51.057  93.095   0.003  -0.002   0.001   0.134  -0.038
 -0.035  -0.067   0.003  -8.787  -0.001   0.001   7.828   0.010
  0.011   0.021  -0.002  -0.001  -8.789  -0.001   0.010   7.853
 -0.009  -0.017   0.001   0.001  -0.001  -8.790  -0.008   0.004
 -0.028  -0.066   0.134   7.828   0.010  -0.008  59.822  -0.019
  0.004   0.012  -0.038   0.010   7.853   0.004  -0.019  59.764
 -0.006  -0.014   0.033  -0.008   0.004   7.858   0.016  -0.006
  0.106   0.231  -0.248   4.549  -0.013   0.011 *******   0.018
 -0.027  -0.061   0.073  -0.013   4.510  -0.004   0.018 *******
  0.025   0.055  -0.062   0.011  -0.004   4.507  -0.016   0.002
 -0.003  -0.005   0.002  -0.002   0.001  -0.000  -0.014  -0.004
  0.003   0.005  -0.002   0.002  -0.003   0.001   0.017  -0.077
  0.003   0.007  -0.005   0.001   0.000   0.003   0.046   0.028
  0.000   0.000   0.001   0.001   0.002   0.003  -0.004  -0.032
  0.005   0.010  -0.005   0.004   0.001  -0.002   0.069  -0.003
  0.004   0.008  -0.005   0.001  -0.002  -0.014   0.029   0.006
 -0.004  -0.008   0.004  -0.000  -0.008  -0.002  -0.037   0.153
 -0.006  -0.012   0.009   0.006   0.005  -0.006  -0.091  -0.055
  0.000   0.001  -0.002  -0.002  -0.010  -0.003   0.006   0.058
 -0.008  -0.016   0.010   0.004  -0.001  -0.000  -0.141   0.004
 total augmentation occupancy for first ion, spin component:           1
  1.800  -0.052   0.000   0.169  -0.060   0.046  -0.011   0.000  -0.002  -0.002  -0.000  -0.000  -0.016   0.019   0.014   0.008
 -0.052   0.002  -0.000   0.001  -0.000   0.000   0.000  -0.000   0.000   0.000  -0.000   0.000   0.001  -0.001  -0.001  -0.000
  0.000  -0.000   0.000  -0.006   0.001  -0.001  -0.000   0.000  -0.000  -0.000   0.000  -0.000  -0.000   0.000  -0.000   0.000
  0.169   0.001  -0.006   1.579  -0.065   0.065   0.031   0.005  -0.004   0.009   0.001  -0.001   0.014  -0.007   0.029  -0.014
 -0.060  -0.000   0.001  -0.065   1.254   0.011   0.005   0.046   0.002   0.001   0.013   0.000  -0.016  -0.045   0.041  -0.073
  0.046   0.000  -0.001   0.065   0.011   1.302  -0.004   0.002   0.048  -0.001   0.000   0.013  -0.090  -0.016  -0.051  -0.022
 -0.011   0.000  -0.000   0.031   0.005  -0.004   0.001   0.000  -0.000   0.000   0.000  -0.000   0.001  -0.000   0.001  -0.001
  0.000  -0.000   0.000   0.005   0.046   0.002   0.000   0.002   0.000   0.000   0.001   0.000  -0.001  -0.002   0.002  -0.003
 -0.002   0.000  -0.000  -0.004   0.002   0.048  -0.000   0.000   0.002  -0.000   0.000   0.001  -0.003  -0.001  -0.002  -0.001
 -0.002   0.000  -0.000   0.009   0.001  -0.001   0.000   0.000  -0.000   0.000   0.000  -0.000   0.000  -0.000   0.000  -0.000
 -0.000  -0.000   0.000   0.001   0.013   0.000   0.000   0.001   0.000   0.000   0.000   0.000  -0.000  -0.000   0.001  -0.001
 -0.000   0.000  -0.000  -0.001   0.000   0.013  -0.000   0.000   0.001  -0.000   0.000   0.000  -0.001  -0.000  -0.001  -0.000
 -0.016   0.001  -0.000   0.014  -0.016  -0.090   0.001  -0.001  -0.003   0.000  -0.000  -0.001   0.007   0.001   0.004   0.003
  0.019  -0.001   0.000  -0.007  -0.045  -0.016  -0.000  -0.002  -0.001  -0.000  -0.000  -0.000   0.001   0.003  -0.001   0.003
  0.014  -0.001  -0.000   0.029   0.041  -0.051   0.001   0.002  -0.002   0.000   0.001  -0.001   0.004  -0.001   0.005  -0.001
  0.008  -0.000   0.000  -0.014  -0.073  -0.022  -0.001  -0.003  -0.001  -0.000  -0.001  -0.000   0.003   0.003  -0.001   0.006
  0.032  -0.001  -0.000   0.008  -0.007   0.001  -0.000  -0.000  -0.000  -0.000  -0.000  -0.000  -0.000   0.001  -0.000  -0.000
 -0.004   0.000  -0.000   0.005  -0.004  -0.021   0.000  -0.000  -0.001   0.000  -0.000  -0.000   0.002   0.000   0.001   0.001
  0.004  -0.000   0.000  -0.003  -0.009  -0.004  -0.000  -0.000  -0.000  -0.000  -0.000  -0.000   0.000   0.001  -0.000   0.001
  0.003  -0.000  -0.000   0.006   0.010  -0.014   0.000   0.000  -0.000   0.000   0.000  -0.000   0.001  -0.000   0.001  -0.000
  0.002  -0.000   0.000  -0.004  -0.018  -0.006  -0.000  -0.001  -0.000  -0.000  -0.000  -0.000   0.001   0.001  -0.000   0.002
  0.007  -0.000   0.000  -0.001  -0.002   0.000  -0.000  -0.000  -0.000  -0.000  -0.000  -0.000  -0.000   0.000  -0.000  -0.000


------------------------ aborting loop because EDIFF is reached ----------------------------------------


    CHARGE:  cpu time    6.6776: real time    6.6938
    FORLOC:  cpu time    7.3602: real time    7.3781
    FORNL :  cpu time    4.2884: real time    4.2989
    STRESS:  cpu time   23.9238: real time   23.9820
    FORCOR:  cpu time   75.9671: real time   76.1537
    FORHAR:  cpu time   24.2940: real time   24.3531
    MIXING:  cpu time    4.9951: real time    5.0073
    OFIELD:  cpu time    0.0001: real time    0.0004

  FORCE on cell =-STRESS in cart. coord.  units (eV):
  Direction    XX          YY          ZZ          XY          YZ          ZX
  --------------------------------------------------------------------------------------
  Alpha Z     0.01443     0.01443     0.01443
  Ewald     190.41308    95.33772   323.39800   -17.68569    20.11565   -60.60539
  Hartree   309.30515   274.83549   411.06584    -3.28118     3.14376   -48.90372
  E(xc)     -54.71156   -55.03679   -54.59894    -0.07388     0.07586    -0.04032
  Local    -651.85561  -541.69389  -890.27318    15.79833   -17.31793   112.59945
  n-local   -29.65240   -32.97237   -28.22027    -0.71687     0.68690    -0.56608
  augment     1.59529     1.85700     1.57263     0.06335    -0.06636    -0.00326
  Kinetic   235.63383   258.25024   237.86681     5.88727    -6.48633    -2.38401
  Fock        0.00000     0.00000     0.00000     0.00000     0.00000     0.00000
  -------------------------------------------------------------------------------------
  Total       0.74220     0.59183     0.82533    -0.00867     0.15155     0.09668
  in kB       0.02773     0.02212     0.03084    -0.00032     0.00566     0.00361
  external pressure =        0.03 kB  Pullay stress =        0.00 kB


 VOLUME and BASIS-vectors are now :
 -----------------------------------------------------------------------------
  energy-cutoff  :     2000.00
  volume of cell :    42875.00
      direct lattice vectors                 reciprocal lattice vectors
    35.000000000  0.000000000  0.000000000     0.028571429  0.000000000  0.000000000
     0.000000000 35.000000000  0.000000000     0.000000000  0.028571429  0.000000000
     0.000000000  0.000000000 35.000000000     0.000000000  0.000000000  0.028571429

  length of vectors
    35.000000000 35.000000000 35.000000000     0.028571429  0.028571429  0.028571429


 FORCES acting on ions
    electron-ion (+dipol)            ewald-force                    non-local-force                 convergence-correction
 -----------------------------------------------------------------------------------------------
   -.488E+02 -.422E+02 0.106E+03   0.567E+02 0.755E+02 -.114E+03   -.776E+01 -.332E+02 0.850E+01   0.410E-05 -.163E-05 -.927E-05
   0.390E+02 0.311E+01 -.934E+02   -.410E+02 -.330E+01 0.984E+02   0.215E+01 0.244E+00 -.509E+01   -.123E-07 -.127E-05 0.581E-06
   -.689E+02 0.413E+02 0.152E+02   0.751E+02 -.454E+02 -.157E+02   -.606E+01 0.400E+01 0.438E+00   0.605E-06 -.511E-06 -.619E-06
   0.463E+02 0.265E+02 0.623E+02   -.513E+02 -.293E+02 -.676E+02   0.481E+01 0.264E+01 0.492E+01   -.821E-07 -.457E-06 -.931E-06
   0.545E+02 -.348E+02 -.139E+02   -.594E+02 0.382E+02 0.143E+02   0.467E+01 -.327E+01 -.371E+00   -.212E-05 0.117E-05 0.236E-06
   0.187E+02 0.556E+02 -.286E+02   -.201E+02 -.611E+02 0.305E+02   0.135E+01 0.509E+01 -.175E+01   -.481E-06 -.217E-05 0.604E-06
   -.361E+02 -.230E+02 -.504E+02   0.400E+02 0.253E+02 0.544E+02   -.373E+01 -.217E+01 -.374E+01   0.164E-05 0.686E-06 0.181E-05
 -----------------------------------------------------------------------------------------------
   0.457E+01 0.267E+02 -.291E+01   -.711E-14 -.213E-13 -.426E-13   -.457E+01 -.267E+02 0.291E+01   0.366E-05 -.419E-05 -.759E-05
 
 
 POSITION                                       TOTAL-FORCE (eV/Angst)
 -----------------------------------------------------------------------------------
     34.36136      0.47092      0.04457         0.082816      0.171517      0.142798
     33.80134      0.39140      1.39195         0.074796      0.055339     -0.034210
      0.18995     34.88606     34.99423         0.200085     -0.095617     -0.105803
     33.69953      0.08126     34.38633        -0.197374     -0.125892     -0.338664
     32.90726      1.00924      1.45317        -0.259196      0.185961      0.002442
     33.53725     34.38416      1.72945        -0.102180     -0.324843      0.110050
     34.51972      0.79867      2.10109         0.201054      0.133535      0.223386
 -----------------------------------------------------------------------------------
    total drift:                               -0.000031      0.000068     -0.000030


--------------------------------------------------------------------------------------------------------



  FREE ENERGIE OF THE ION-ELECTRON SYSTEM (eV)
  ---------------------------------------------------
  free  energy   TOTEN  =       -35.69367456 eV

  energy  without entropy=      -35.69367456  energy(sigma->0) =      -35.69367456
 


--------------------------------------------------------------------------------------------------------


    POTLOK:  cpu time   75.4858: real time   75.6694


--------------------------------------------------------------------------------------------------------


 writing wavefunctions
     LOOP+:  cpu time 4235.9131: real time 4247.2440
    4ORBIT:  cpu time    0.0000: real time    0.0000

 total amount of memory used by VASP on root node 14603134. kBytes
========================================================================

   base      :      30000. kBytes
   nonl-proj :     348309. kBytes
   fftplans  :    4854898. kBytes
   grid      :    9274130. kBytes
   one-center:         11. kBytes
   wavefun   :      95786. kBytes
 
  
  
 General timing and accounting informations for this job:
 ========================================================
  
                  Total CPU time used (sec):     5350.381
                            User time (sec):     4847.069
                          System time (sec):      503.312
                         Elapsed time (sec):     5364.469
  
                   Maximum memory used (kb):    22325100.
                   Average memory used (kb):           0.
  
                          Minor page faults:     54661131
                          Major page faults:            8
                 Voluntary context switches:          756
 
 PROFILE, used timers:      14
 =============================
 
 index                 routine                    time                            calls level
----------------------------------------------------------------------------------------------
    1    total_time                         5364.470181                                1   1
    2      w1_copy                               9.831977                           3935   2
    3      fftwav_mpi                          381.063450                           1508   2
    4      fftext_mpi                            1.915251                             11   2
    5      overl                                 0.002780                           2276   2
    6      orth1                                10.905104                            739   2
    7      lincom                                0.553815                             32   2
    8      eccp                                 13.772167                            341   2
    9      hamiltmu                            474.567310                            246   2
   10        vhamil                               74.144438                         1308   3
   11        overl1                                0.002343                         1308   3
   12        kinhamil                            240.121259                         1308   3
   13          fftext_mpi                          237.669810                       1308   4
   14      pdssyex_zheevx                        0.025135                             31   2
 
 Flat profile
 ============
 
             routine name                   CPU           calls
 ---------------------------------------------------------------
 total_time                           4471.833193           1
 fftwav_mpi                            381.063450        1508
 fftext_mpi                            239.585060        1319
 hamiltmu                              160.299269         246
 vhamil                                 74.144438        1308
 eccp                                   13.772167         341
 orth1                                  10.905104         739
 w1_copy                                 9.831977        3935
 kinhamil                                2.451450        1308
 lincom                                  0.553815          32
 pdssyex_zheevx                          0.025135          31
 overl                                   0.002780        2276
 overl1                                  0.002343        1308
 ---------------------------------------------------------------
  summed up times    5364.47018098831     
 
Profiling took   0.009570  0.005373  0.003303  0.003295 seconds
Profiling took   0.007241 seconds
