 vasp.5.4.1 24Jun15 (build Jan 02 2020 16:21:29) gamma-only                     
  
 executed on           IFC15_impi date 2020.04.10  19:35:52
 running on   12 total cores
 distrk:  each k-point on   12 cores,    1 groups
 distr:  one band on NCORES_PER_BAND=  12 cores,    1 groups


--------------------------------------------------------------------------------------------------------


 INCAR:
 POTCAR:    PAW_PBE O_h_GW 22May2013              
 POTCAR:    PAW_PBE H_h_GW 21Apr2008              

 ----------------------------------------------------------------------------- 
|                                                                             |
|           W    W    AA    RRRRR   N    N  II  N    N   GGGG   !!!           |
|           W    W   A  A   R    R  NN   N  II  NN   N  G    G  !!!           |
|           W    W  A    A  R    R  N N  N  II  N N  N  G       !!!           |
|           W WW W  AAAAAA  RRRRR   N  N N  II  N  N N  G  GGG   !            |
|           WW  WW  A    A  R   R   N   NN  II  N   NN  G    G                |
|           W    W  A    A  R    R  N    N  II  N    N   GGGG   !!!           |
|                                                                             |
|      For optimal performance we recommend to set                            |
|        NCORE= 4 - approx SQRT( number of cores)                             |
|      NCORE specifies how many cores store one orbital (NPAR=cpu/NCORE).     |
|      This setting can  greatly improve the performance of VASP for DFT.     |
|      The default, NPAR=number of cores might be grossly inefficient         |
|      on modern multi-core architectures or massively parallel machines.     |
|      Do your own testing !!!!                                               |
|      Unfortunately you need to use the default for GW and RPA calculations. |
|      (for HF NCORE is supported but not extensively tested yet)             |
|                                                                             |
 ----------------------------------------------------------------------------- 

 POTCAR:    PAW_PBE O_h_GW 22May2013              
   VRHFIN =O: s2p4                                                              
   LEXCH  = PE                                                                  
   EATOM  =   432.3788 eV,   31.7789 Ry                                         
                                                                                
   TITEL  = PAW_PBE O_h_GW 22May2013                                            
   LULTRA =        F    use ultrasoft PP ?                                      
   IUNSCR =        1    unscreen: 0-lin 1-nonlin 2-no                           
   RPACOR =    0.800    partial core radius                                     
   POMASS =   16.000; ZVAL   =    6.000    mass and valenz                      
   RCORE  =    1.100    outmost cutoff radius                                   
   RWIGS  =    1.200; RWIGS  =    0.635    wigner-seitz radius (au A)           
   ENMAX  =  765.519; ENMIN  =  574.139 eV                                      
   RCLOC  =    0.907    cutoff for local pot                                    
   LCOR   =        T    correct aug charges                                     
   LPAW   =        T    paw PP                                                  
   EAUG   = 1673.112                                                            
   DEXC   =    0.000                                                            
   RMAX   =    1.128    core radius for proj-oper                               
   RAUG   =    1.300    factor for augmentation sphere                          
   RDEP   =    1.125    radius for radial grids                                 
   RDEPT  =    1.000    core radius for aug-charge                              
                                                                                
   Atomic configuration                                                         
    5 entries                                                                   
     n  l   j            E        occ.                                          
     1  0  0.50      -514.6923   2.0000                                         
     2  0  0.50       -23.9615   2.0000                                         
     2  1  0.50        -9.0305   4.0000                                         
     3  2  1.50        -9.5241   0.0000                                         
     4  3  2.50        -9.5241   0.0000                                         
   Description                                                                  
     l       E           TYP  RCUT    TYP  RCUT                                 
     0    -23.9615316     23  1.000                                             
     0     40.8174780     23  1.000                                             
     0    544.2330400     23  1.000                                             
     1     -9.0304908     23  1.100                                             
     1    163.2699120     23  1.100                                             
     1    435.3864320     23  1.100                                             
     2     81.6349560     23  1.100                                             
     2    163.2699120     23  1.100                                             
  local pseudopotential read in
  partial core-charges read in
  partial kinetic energy density read in
  kinetic energy density of atom read in
  atomic valenz-charges read in
  non local Contribution for L=           0  read in
    real space projection operators read in
  non local Contribution for L=           0  read in
    real space projection operators read in
  non local Contribution for L=           0  read in
    real space projection operators read in
  non local Contribution for L=           1  read in
    real space projection operators read in
  non local Contribution for L=           1  read in
    real space projection operators read in
  non local Contribution for L=           1  read in
    real space projection operators read in
  non local Contribution for L=           2  read in
    real space projection operators read in
  non local Contribution for L=           2  read in
    real space projection operators read in
    PAW grid and wavefunctions read in
 
   number of l-projection  operators is LMAX  =           8
   number of lm-projection operators is LMMAX =          22
 
 POTCAR:    PAW_PBE H_h_GW 21Apr2008              
   VRHFIN =H: ultrasoft test                                                    
   LEXCH  = PE                                                                  
   EATOM  =    12.4884 eV,    0.9179 Ry                                         
                                                                                
   TITEL  = PAW_PBE H_h_GW 21Apr2008                                            
   LULTRA =        F    use ultrasoft PP ?                                      
   IUNSCR =        0    unscreen: 0-lin 1-nonlin 2-no                           
   RPACOR =    0.000    partial core radius                                     
   POMASS =    1.000; ZVAL   =    1.000    mass and valenz                      
   RCORE  =    0.800    outmost cutoff radius                                   
   RWIGS  =    1.100; RWIGS  =    0.582    wigner-seitz radius (au A)           
   ENMAX  =  700.000; ENMIN  =  350.000 eV                                      
   RCLOC  =    0.701    cutoff for local pot                                    
   LCOR   =        T    correct aug charges                                     
   LPAW   =        T    paw PP                                                  
   EAUG   = 1000.000                                                            
   RMAX   =    0.819    core radius for proj-oper                               
   RAUG   =    1.000    factor for augmentation sphere                          
   RDEP   =    0.817    radius for radial grids                                 
   RDEPT  =    1.000    core radius for aug-charge                              
                                                                                
   Atomic configuration                                                         
    3 entries                                                                   
     n  l   j            E        occ.                                          
     1  0  0.50        -6.4927   1.0000                                         
     2  1  0.50        -3.4015   0.0000                                         
     3  2  1.50        13.6058   0.0000                                         
   Description                                                                  
     l       E           TYP  RCUT    TYP  RCUT                                 
     0     -6.4927495     23  0.800                                             
     0      6.8029130     23  0.800                                             
     1     -4.0817478     23  0.800                                             
     1    108.8466080     23  0.800                                             
     2     81.6349560     23  0.800                                             
  local pseudopotential read in
  kinetic energy density of atom read in
  atomic valenz-charges read in
  non local Contribution for L=           0  read in
    real space projection operators read in
  non local Contribution for L=           0  read in
    real space projection operators read in
  non local Contribution for L=           1  read in
    real space projection operators read in
  non local Contribution for L=           1  read in
    real space projection operators read in
  non local Contribution for L=           2  read in
    real space projection operators read in
    PAW grid and wavefunctions read in
 
   number of l-projection  operators is LMAX  =           5
   number of lm-projection operators is LMMAX =          13
 
  PAW_PBE O_h_GW 22May2013              :
 energy of atom  1       EATOM= -432.3788
 kinetic energy error for atom=    0.0017 (will be added to EATOM!!)
  PAW_PBE H_h_GW 21Apr2008              :
 energy of atom  2       EATOM=  -12.4884
 kinetic energy error for atom=    0.0001 (will be added to EATOM!!)
 
 
 POSCAR: O H                                     
  positions in cartesian coordinates
  No initial velocities read in
 exchange correlation table for  LEXCH =        8
   RHO(1)=    0.500       N(1)  =     2000
   RHO(2)=  100.500       N(2)  =     4000
 


--------------------------------------------------------------------------------------------------------


 ion  position               nearest neighbor table
   1  0.984  0.997  1.000-   2 0.96   3 0.97
   2  0.975  0.023  0.000-   1 0.96
   3  0.012  1.000  1.000-   1 0.97
 
  LATTYP: Found a simple cubic cell.
 ALAT       =    35.0000000000
  
  Lattice vectors:
  
 A1 = (  35.0000000000,   0.0000000000,   0.0000000000)
 A2 = (   0.0000000000,  35.0000000000,   0.0000000000)
 A3 = (   0.0000000000,   0.0000000000,  35.0000000000)


Analysis of symmetry for initial positions (statically):
=====================================================================
 Subroutine PRICEL returns:
 Original cell was already a primitive cell.
 

 Routine SETGRP: Setting up the symmetry group for a 
 simple cubic supercell.


 Subroutine GETGRP returns: Found  1 space group operations
 (whereof  1 operations were pure point group operations)
 out of a pool of 48 trial point group operations.


The static configuration has the point symmetry C_1 .


Analysis of symmetry for dynamics (positions and initial velocities):
=====================================================================
 Subroutine PRICEL returns:
 Original cell was already a primitive cell.
 

 Routine SETGRP: Setting up the symmetry group for a 
 simple cubic supercell.


 Subroutine GETGRP returns: Found  1 space group operations
 (whereof  1 operations were pure point group operations)
 out of a pool of 48 trial point group operations.


The dynamic configuration has the point symmetry C_1 .
 
 
 KPOINTS: automatic mesh                          

Automatic generation of k-mesh.
Space group operators:
 irot       det(A)        alpha          n_x          n_y          n_z        tau_x        tau_y        tau_z
    1     1.000000     0.000000     1.000000     0.000000     0.000000     0.000000     0.000000     0.000000
 
 Subroutine IBZKPT returns following result:
 ===========================================
 
 Found      1 irreducible k-points:
 
 Following reciprocal coordinates:
            Coordinates               Weight
  0.000000  0.000000  0.000000      1.000000
 
 Following cartesian coordinates:
            Coordinates               Weight
  0.000000  0.000000  0.000000      1.000000
 


--------------------------------------------------------------------------------------------------------




 Dimension of arrays:
   k-points           NKPTS =      1   k-points in BZ     NKDIM =      1   number of bands    NBANDS=      8
   number of dos      NEDOS =    301   number of ions     NIONS =      3
   non local maximal  LDIM  =      8   non local SUM 2l+1 LMDIM =     22
   total plane-waves  NPLWV = ******
   max r-space proj   IRMAX =      1   max aug-charges    IRDMAX=  19040
   dimension x,y,z NGX =   512 NGY =  512 NGZ =  512
   dimension x,y,z NGXF=  1024 NGYF= 1024 NGZF= 1024
   support grid    NGXF=  1024 NGYF= 1024 NGZF= 1024
   ions per type =               1   2
 NGX,Y,Z   is equivalent  to a cutoff of  24.32, 24.32, 24.32 a.u.
 NGXF,Y,Z  is equivalent  to a cutoff of  48.64, 48.64, 48.64 a.u.


 I would recommend the setting:
   dimension x,y,z NGX =   511 NGY =  511 NGZ =  511
 SYSTEM =  C                                       
 POSCAR =  O H                                     

 Startparameter for this run:
   NWRITE =      2    write-flag & timer
   PREC   = acc       normal or accurate (medium, high low for compatibility)
   ISTART =      0    job   : 0-new  1-cont  2-samecut
   ICHARG =      2    charge: 1-file 2-atom 10-const
   ISPIN  =      1    spin polarized calculation?
   LNONCOLLINEAR =      F non collinear calculations
   LSORBIT =      F    spin-orbit coupling
   INIWAV =      1    electr: 0-lowe 1-rand  2-diag
   LASPH  =      T    aspherical Exc in radial PAW
   METAGGA=      F    non-selfconsistent MetaGGA calc.

 Electronic Relaxation 1
   ENCUT  = 2000.0 eV 147.00 Ry   12.12 a.u. 127.63127.63127.63*2*pi/ulx,y,z
   ENINI  = 2000.0     initial cutoff
   ENAUG  = 1673.1 eV  augmentation charge cutoff
   NELM   =     60;   NELMIN=  2; NELMDL= -5     # of ELM steps 
   EDIFF  = 0.1E-06   stopping-criterion for ELM
   LREAL  =      F    real-space projection
   NLSPLINE    = F    spline interpolate recip. space projectors
   LCOMPAT=      F    compatible to vasp.4.4
   GGA_COMPAT  = T    GGA compatible to vasp.4.4-vasp.4.6
   LMAXPAW     = -100 max onsite density
   LMAXMIX     =    2 max onsite mixed and CHGCAR
   VOSKOWN=      0    Vosko Wilk Nusair interpolation
   ROPT   =    0.00000   0.00000
 Ionic relaxation
   EDIFFG = 0.1E-05   stopping-criterion for IOM
   NSW    =      0    number of steps for IOM
   NBLOCK =      1;   KBLOCK =      1    inner block; outer block 
   IBRION =     -1    ionic relax: 0-MD 1-quasi-New 2-CG
   NFREE  =      0    steps in history (QN), initial steepest desc. (CG)
   ISIF   =      2    stress and relaxation
   IWAVPR =     10    prediction:  0-non 1-charg 2-wave 3-comb
   ISYM   =      2    0-nonsym 1-usesym 2-fastsym
   LCORR  =      T    Harris-Foulkes like correction to forces

   POTIM  = 0.5000    time-step for ionic-motion
   TEIN   =    0.0    initial temperature
   TEBEG  =    0.0;   TEEND  =   0.0 temperature during run
   SMASS  =  -3.00    Nose mass-parameter (am)
   estimated Nose-frequenzy (Omega)   =  0.10E-29 period in steps =****** mass=  -0.280E-25a.u.
   SCALEE = 1.0000    scale energy and forces
   NPACO  =    256;   APACO  = 16.0  distance and # of slots for P.C.
   PSTRESS=    0.0 pullay stress

  Mass of Ions in am
   POMASS =  16.00  1.00
  Ionic Valenz
   ZVAL   =   6.00  1.00
  Atomic Wigner-Seitz radii
   RWIGS  =  -1.00 -1.00
  virtual crystal weights 
   VCA    =   1.00  1.00
   NELECT =       8.0000    total number of electrons
   NUPDOWN=      -1.0000    fix difference up-down

 DOS related values:
   EMIN   =  10.00;   EMAX   =-10.00  energy-range for DOS
   EFERMI =   0.00
   ISMEAR =     0;   SIGMA  =   0.01  broadening in eV -4-tet -1-fermi 0-gaus

 Electronic relaxation 2 (details)
   IALGO  =     38    algorithm
   LDIAG  =      T    sub-space diagonalisation (order eigenvalues)
   LSUBROT=      F    optimize rotation matrix (better conditioning)
   TURBO    =      0    0=normal 1=particle mesh
   IRESTART =      0    0=no restart 2=restart with 2 vectors
   NREBOOT  =      0    no. of reboots
   NMIN     =      0    reboot dimension
   EREF     =   0.00    reference energy to select bands
   IMIX   =      4    mixing-type and parameters
     AMIX     =   0.40;   BMIX     =  1.00
     AMIX_MAG =   1.60;   BMIX_MAG =  1.00
     AMIN     =   0.10
     WC   =   100.;   INIMIX=   1;  MIXPRE=   1;  MAXMIX= -45

 Intra band minimization:
   WEIMIN = 0.0000     energy-eigenvalue tresh-hold
   EBREAK =  0.31E-08  absolut break condition
   DEPER  =   0.30     relativ break condition  

   TIME   =   0.40     timestep for ELM

  volume/ion in A,a.u.               =   14291.67     96444.93
  Fermi-wavevector in a.u.,A,eV,Ry     =   0.093548  0.176781  0.119069  0.008751
  Thomas-Fermi vector in A             =   0.652187
 
 Write flags
   LWAVE  =      T    write WAVECAR
   LCHARG =      T    write CHGCAR
   LVTOT  =      F    write LOCPOT, total local potential
   LVHAR  =      F    write LOCPOT, Hartree potential only
   LELF   =      F    write electronic localiz. function (ELF)
   LORBIT =      0    0 simple, 1 ext, 2 COOP (PROOUT)


 Dipole corrections
   LMONO  =      F    monopole corrections only (constant potential shift)
   LDIPOL =      F    correct potential (dipole corrections)
   IDIPOL =      0    1-x, 2-y, 3-z, 4-all directions 
   EPSILON=  1.0000000 bulk dielectric constant

 Exchange correlation treatment:
   GGA     =    --    GGA type
   LEXCH   =     8    internal setting for exchange type
   VOSKOWN=      0    Vosko Wilk Nusair interpolation
   LHFCALC =     F    Hartree Fock is set to
   LHFONE  =     F    Hartree Fock one center treatment
   AEXX    =    0.0000 exact exchange contribution

 Linear response parameters
   LEPSILON=     F    determine dielectric tensor
   LRPA    =     F    only Hartree local field effects (RPA)
   LNABLA  =     F    use nabla operator in PAW spheres
   LVEL    =     F    velocity operator in full k-point grid
   LINTERFAST=   F  fast interpolation
   KINTER  =     0    interpolate to denser k-point grid
   CSHIFT  =0.1000    complex shift for real part using Kramers Kronig
   OMEGAMAX=  -1.0    maximum frequency
   DEG_THRESHOLD= 0.2000000E-02 threshold for treating states as degnerate
   RTIME   =    0.100 relaxation time in fs

 Orbital magnetization related:
   ORBITALMAG=     F  switch on orbital magnetization
   LCHIMAG   =     F  perturbation theory with respect to B field
   DQ        =  0.001000  dq finite difference perturbation B field



--------------------------------------------------------------------------------------------------------


 Static calculation
 charge density and potential will be updated during run
 non-spin polarized calculation
 Variant of blocked Davidson
 Davidson routine will perform the subspace rotation
 perform sub-space diagonalisation
    after iterative eigenvector-optimisation
 modified Broyden-mixing scheme, WC =      100.0
 initial mixing is a Kerker type mixing with AMIX =  0.4000 and BMIX =      1.0000
 Hartree-type preconditioning will be used
 using additional bands            4
 reciprocal scheme for non local part
 use partial core corrections
 calculate Harris-corrections to forces 
   (improved forces if not selfconsistent)
 use gradient corrections 
 use of overlap-Matrix (Vanderbilt PP)
 Gauss-broadening in eV      SIGMA  =   0.01


--------------------------------------------------------------------------------------------------------


  energy-cutoff  :     2000.00
  volume of cell :    42875.00
      direct lattice vectors                 reciprocal lattice vectors
    35.000000000  0.000000000  0.000000000     0.028571429  0.000000000  0.000000000
     0.000000000 35.000000000  0.000000000     0.000000000  0.028571429  0.000000000
     0.000000000  0.000000000 35.000000000     0.000000000  0.000000000  0.028571429

  length of vectors
    35.000000000 35.000000000 35.000000000     0.028571429  0.028571429  0.028571429


 
 k-points in units of 2pi/SCALE and weight: automatic mesh                          
   0.00000000  0.00000000  0.00000000       1.000
 
 k-points in reciprocal lattice and weights: automatic mesh                          
   0.00000000  0.00000000  0.00000000       1.000
 
 position of ions in fractional coordinates (direct lattice) 
   0.98420483  0.99709436  0.99998575
   0.97509258  0.02290835  0.00000413
   0.01179027  0.99994765  0.99999281
 
 position of ions in cartesian coordinates  (Angst):
  34.44716898 34.89830251 34.99950121
  34.12824037  0.80179220  0.00014440
   0.41265950 34.99816775 34.99974819
 


--------------------------------------------------------------------------------------------------------


 use parallel FFT for wavefunctions z direction half grid
 k-point  1 :   0.0000 0.0000 0.0000  plane waves: 4353902

 maximum and minimum number of plane-waves per node :    362837   362811

 maximum number of plane-waves:   4353902
 maximum index in each direction: 
   IXMAX=  127   IYMAX=  127   IZMAX=  127
   IXMIN= -127   IYMIN= -127   IZMIN=    0

 NGX is ok and might be reduce to 510
 NGY is ok and might be reduce to 510
 NGZ is ok and might be reduce to 510

 parallel 3D FFT for wavefunctions:
    minimum data exchange during FFTs selected (reduces bandwidth)
 parallel 3D FFT for charge:
    minimum data exchange during FFTs selected (reduces bandwidth)


 total amount of memory used by VASP on root node  8985664. kBytes
========================================================================

   base      :      30000. kBytes
   nonl-proj :     145124. kBytes
   fftplans  :    3255861. kBytes
   grid      :    5508227. kBytes
   one-center:         11. kBytes
   wavefun   :      46441. kBytes
 
     INWAV:  cpu time    0.0000: real time    0.0000
 Broyden mixing: mesh for mixing (old mesh)
   NGX =255   NGY =255   NGZ =255
  (NGX  =***   NGY  =***   NGZ  =***)
  gives a total of ****** points

 initial charge density was supplied:
 charge density of overlapping atoms calculated
 number of electron       8.0000000 magnetization 
 keeping initial charge density in first step


--------------------------------------------------------------------------------------------------------


 Maximum index for augmentation-charges         1640 (set IRDMAX)


--------------------------------------------------------------------------------------------------------


 First call to EWALD:  gamma=   0.051
 Maximum number of real-space cells 3x 3x 3
 Maximum number of reciprocal cells 3x 3x 3

 FEWALD executed in parallel
    FEWALD:  cpu time    0.0012: real time    0.0012


----------------------------------------- Iteration    1(   1)  ---------------------------------------


    POTLOK:  cpu time   42.6482: real time   42.7640
    SETDIJ:  cpu time    0.1275: real time    0.1278
     EDDAV:  cpu time   10.1965: real time   10.2246
       DOS:  cpu time    0.0001: real time    0.0001
    --------------------------------------------
      LOOP:  cpu time   52.9744: real time   53.1206

 eigenvalue-minimisations  :    16
 total energy-change (2. order) : 0.8401759E+02  (-0.1266405E+03)
 number of electron       8.0000000 magnetization 
 augmentation part        8.0000000 magnetization 

 Free energy of the ion-electron system (eV)
  ---------------------------------------------------
  alpha Z        PSCENC =         0.00506612
  Ewald energy   TEWEN  =       151.34559510
  -Hartree energ DENC   =      -508.35008747
  -exchange      EXHF   =         0.00000000
  -V(xc)+E(xc)   XCENC  =        30.51931888
  PAW double counting   =       348.86663534     -349.92881252
  entropy T*S    EENTRO =        -0.00000000
  eigenvalues    EBANDS =       -45.79389303
  atomic energy  EATOM  =       457.35377130
  Solvation  Ediel_sol  =         0.00000000
  ---------------------------------------------------
  free energy    TOTEN  =        84.01759372 eV

  energy without entropy =       84.01759372  energy(sigma->0) =       84.01759372


--------------------------------------------------------------------------------------------------------




----------------------------------------- Iteration    1(   2)  ---------------------------------------


     EDDAV:  cpu time   16.6148: real time   16.6600
       DOS:  cpu time    0.0000: real time    0.0000
    --------------------------------------------
      LOOP:  cpu time   16.6185: real time   16.6667

 eigenvalue-minimisations  :    32
 total energy-change (2. order) :-0.3747910E+02  (-0.3747910E+02)
 number of electron       8.0000000 magnetization 
 augmentation part        8.0000000 magnetization 

 Free energy of the ion-electron system (eV)
  ---------------------------------------------------
  alpha Z        PSCENC =         0.00506612
  Ewald energy   TEWEN  =       151.34559510
  -Hartree energ DENC   =      -508.35008747
  -exchange      EXHF   =         0.00000000
  -V(xc)+E(xc)   XCENC  =        30.51931888
  PAW double counting   =       348.86663534     -349.92881252
  entropy T*S    EENTRO =        -0.00000000
  eigenvalues    EBANDS =       -83.27298809
  atomic energy  EATOM  =       457.35377130
  Solvation  Ediel_sol  =         0.00000000
  ---------------------------------------------------
  free energy    TOTEN  =        46.53849867 eV

  energy without entropy =       46.53849867  energy(sigma->0) =       46.53849867


--------------------------------------------------------------------------------------------------------




----------------------------------------- Iteration    1(   3)  ---------------------------------------


     EDDAV:  cpu time   13.2948: real time   13.3312
       DOS:  cpu time    0.0000: real time    0.0000
    --------------------------------------------
      LOOP:  cpu time   13.2988: real time   13.3383

 eigenvalue-minimisations  :    24
 total energy-change (2. order) :-0.3783328E+02  (-0.3783328E+02)
 number of electron       8.0000000 magnetization 
 augmentation part        8.0000000 magnetization 

 Free energy of the ion-electron system (eV)
  ---------------------------------------------------
  alpha Z        PSCENC =         0.00506612
  Ewald energy   TEWEN  =       151.34559510
  -Hartree energ DENC   =      -508.35008747
  -exchange      EXHF   =         0.00000000
  -V(xc)+E(xc)   XCENC  =        30.51931888
  PAW double counting   =       348.86663534     -349.92881252
  entropy T*S    EENTRO =        -0.00000000
  eigenvalues    EBANDS =      -121.10626891
  atomic energy  EATOM  =       457.35377130
  Solvation  Ediel_sol  =         0.00000000
  ---------------------------------------------------
  free energy    TOTEN  =         8.70521784 eV

  energy without entropy =        8.70521784  energy(sigma->0) =        8.70521784


--------------------------------------------------------------------------------------------------------




----------------------------------------- Iteration    1(   4)  ---------------------------------------


     EDDAV:  cpu time   13.2961: real time   13.3324
       DOS:  cpu time    0.0000: real time    0.0000
    --------------------------------------------
      LOOP:  cpu time   13.2996: real time   13.3380

 eigenvalue-minimisations  :    24
 total energy-change (2. order) :-0.2182887E+02  (-0.2182887E+02)
 number of electron       8.0000000 magnetization 
 augmentation part        8.0000000 magnetization 

 Free energy of the ion-electron system (eV)
  ---------------------------------------------------
  alpha Z        PSCENC =         0.00506612
  Ewald energy   TEWEN  =       151.34559510
  -Hartree energ DENC   =      -508.35008747
  -exchange      EXHF   =         0.00000000
  -V(xc)+E(xc)   XCENC  =        30.51931888
  PAW double counting   =       348.86663534     -349.92881252
  entropy T*S    EENTRO =        -0.00000000
  eigenvalues    EBANDS =      -142.93513549
  atomic energy  EATOM  =       457.35377130
  Solvation  Ediel_sol  =         0.00000000
  ---------------------------------------------------
  free energy    TOTEN  =       -13.12364873 eV

  energy without entropy =      -13.12364873  energy(sigma->0) =      -13.12364873


--------------------------------------------------------------------------------------------------------




----------------------------------------- Iteration    1(   5)  ---------------------------------------


     EDDAV:  cpu time    9.9843: real time   10.0116
       DOS:  cpu time    0.0000: real time    0.0000
    CHARGE:  cpu time    4.2192: real time    4.2307
    MIXING:  cpu time    1.1681: real time    1.1713
    --------------------------------------------
      LOOP:  cpu time   15.3752: real time   15.4200

 eigenvalue-minimisations  :    16
 total energy-change (2. order) :-0.3118777E+01  (-0.3118777E+01)
 number of electron       8.0000000 magnetization 
 augmentation part        0.1622871 magnetization 

 Broyden mixing:
  rms(total) = 0.79106E+00    rms(broyden)= 0.79106E+00
  rms(prec ) = 0.81608E+00
  weight for this iteration     100.00

 Free energy of the ion-electron system (eV)
  ---------------------------------------------------
  alpha Z        PSCENC =         0.00506612
  Ewald energy   TEWEN  =       151.34559510
  -Hartree energ DENC   =      -508.35008747
  -exchange      EXHF   =         0.00000000
  -V(xc)+E(xc)   XCENC  =        30.51931888
  PAW double counting   =       348.86663534     -349.92881252
  entropy T*S    EENTRO =        -0.00000000
  eigenvalues    EBANDS =      -146.05391203
  atomic energy  EATOM  =       457.35377130
  Solvation  Ediel_sol  =         0.00000000
  ---------------------------------------------------
  free energy    TOTEN  =       -16.24242527 eV

  energy without entropy =      -16.24242527  energy(sigma->0) =      -16.24242527


--------------------------------------------------------------------------------------------------------




----------------------------------------- Iteration    1(   6)  ---------------------------------------


    POTLOK:  cpu time   42.7716: real time   42.8881
    SETDIJ:  cpu time    0.1276: real time    0.1279
     EDDAV:  cpu time   13.3002: real time   13.3367
       DOS:  cpu time    0.0000: real time    0.0000
    CHARGE:  cpu time    4.0934: real time    4.1045
    MIXING:  cpu time    1.2145: real time    1.2178
    --------------------------------------------
      LOOP:  cpu time   61.5095: real time   61.6798

 eigenvalue-minimisations  :    24
 total energy-change (2. order) : 0.1770527E+01  (-0.8914929E+00)
 number of electron       8.0000000 magnetization 
 augmentation part        0.1081678 magnetization 

 Broyden mixing:
  rms(total) = 0.32181E+00    rms(broyden)= 0.32180E+00
  rms(prec ) = 0.32805E+00
  weight for this iteration     100.00

 eigenvalues of (default mixing * dielectric matrix)
  average eigenvalue GAMMA=   0.9479
  0.9479

 Free energy of the ion-electron system (eV)
  ---------------------------------------------------
  alpha Z        PSCENC =         0.00506612
  Ewald energy   TEWEN  =       151.34559510
  -Hartree energ DENC   =      -531.99671968
  -exchange      EXHF   =         0.00000000
  -V(xc)+E(xc)   XCENC  =        31.80612763
  PAW double counting   =       417.85694156     -419.17538439
  entropy T*S    EENTRO =        -0.00000000
  eigenvalues    EBANDS =      -121.66729609
  atomic energy  EATOM  =       457.35377130
  Solvation  Ediel_sol  =         0.00000000
  ---------------------------------------------------
  free energy    TOTEN  =       -14.47189844 eV

  energy without entropy =      -14.47189844  energy(sigma->0) =      -14.47189844


--------------------------------------------------------------------------------------------------------




----------------------------------------- Iteration    1(   7)  ---------------------------------------


    POTLOK:  cpu time   42.7789: real time   42.8952
    SETDIJ:  cpu time    0.1276: real time    0.1279
     EDDAV:  cpu time   13.2901: real time   13.3263
       DOS:  cpu time    0.0000: real time    0.0000
    CHARGE:  cpu time    4.0944: real time    4.1058
    MIXING:  cpu time    1.2511: real time    1.2544
    --------------------------------------------
      LOOP:  cpu time   61.5441: real time   61.7137

 eigenvalue-minimisations  :    24
 total energy-change (2. order) : 0.1118858E+00  (-0.2656518E-01)
 number of electron       8.0000000 magnetization 
 augmentation part        0.1085227 magnetization 

 Broyden mixing:
  rms(total) = 0.20101E+00    rms(broyden)= 0.20101E+00
  rms(prec ) = 0.20494E+00
  weight for this iteration     100.00

 eigenvalues of (default mixing * dielectric matrix)
  average eigenvalue GAMMA=   1.6492
  1.0841  2.2143

 Free energy of the ion-electron system (eV)
  ---------------------------------------------------
  alpha Z        PSCENC =         0.00506612
  Ewald energy   TEWEN  =       151.34559510
  -Hartree energ DENC   =      -536.55162710
  -exchange      EXHF   =         0.00000000
  -V(xc)+E(xc)   XCENC  =        32.05971748
  PAW double counting   =       429.00724093     -430.32092578
  entropy T*S    EENTRO =        -0.00000000
  eigenvalues    EBANDS =      -117.25885066
  atomic energy  EATOM  =       457.35377130
  Solvation  Ediel_sol  =         0.00000000
  ---------------------------------------------------
  free energy    TOTEN  =       -14.36001260 eV

  energy without entropy =      -14.36001260  energy(sigma->0) =      -14.36001260


--------------------------------------------------------------------------------------------------------




----------------------------------------- Iteration    1(   8)  ---------------------------------------


    POTLOK:  cpu time   42.7987: real time   42.9153
    SETDIJ:  cpu time    0.1276: real time    0.1279
     EDDAV:  cpu time   16.6130: real time   16.6588
       DOS:  cpu time    0.0000: real time    0.0000
    CHARGE:  cpu time    4.0922: real time    4.1034
    MIXING:  cpu time    1.2950: real time    1.2984
    --------------------------------------------
      LOOP:  cpu time   64.9287: real time   65.1084

 eigenvalue-minimisations  :    32
 total energy-change (2. order) : 0.8755672E-01  (-0.5903933E-02)
 number of electron       8.0000000 magnetization 
 augmentation part        0.1095118 magnetization 

 Broyden mixing:
  rms(total) = 0.23530E-01    rms(broyden)= 0.23530E-01
  rms(prec ) = 0.27185E-01
  weight for this iteration     100.00

 eigenvalues of (default mixing * dielectric matrix)
  average eigenvalue GAMMA=   1.5096
  2.4169  1.0290  1.0830

 Free energy of the ion-electron system (eV)
  ---------------------------------------------------
  alpha Z        PSCENC =         0.00506612
  Ewald energy   TEWEN  =       151.34559510
  -Hartree energ DENC   =      -541.45306768
  -exchange      EXHF   =         0.00000000
  -V(xc)+E(xc)   XCENC  =        32.35052694
  PAW double counting   =       437.55249199     -438.84701717
  entropy T*S    EENTRO =        -0.00000000
  eigenvalues    EBANDS =      -112.57982250
  atomic energy  EATOM  =       457.35377130
  Solvation  Ediel_sol  =         0.00000000
  ---------------------------------------------------
  free energy    TOTEN  =       -14.27245588 eV

  energy without entropy =      -14.27245588  energy(sigma->0) =      -14.27245588


--------------------------------------------------------------------------------------------------------




----------------------------------------- Iteration    1(   9)  ---------------------------------------


    POTLOK:  cpu time   42.8043: real time   42.9211
    SETDIJ:  cpu time    0.1276: real time    0.1279
     EDDAV:  cpu time   13.2918: real time   13.3281
       DOS:  cpu time    0.0000: real time    0.0000
    CHARGE:  cpu time    4.0867: real time    4.0979
    MIXING:  cpu time    1.3377: real time    1.3416
    --------------------------------------------
      LOOP:  cpu time   61.6503: real time   61.8213

 eigenvalue-minimisations  :    24
 total energy-change (2. order) : 0.2803835E-02  (-0.3641550E-03)
 number of electron       8.0000000 magnetization 
 augmentation part        0.1089884 magnetization 

 Broyden mixing:
  rms(total) = 0.13935E-01    rms(broyden)= 0.13935E-01
  rms(prec ) = 0.17015E-01
  weight for this iteration     100.00

 eigenvalues of (default mixing * dielectric matrix)
  average eigenvalue GAMMA=   1.8719
  1.0115  1.0115  2.4680  2.9965

 Free energy of the ion-electron system (eV)
  ---------------------------------------------------
  alpha Z        PSCENC =         0.00506612
  Ewald energy   TEWEN  =       151.34559510
  -Hartree energ DENC   =      -542.53051832
  -exchange      EXHF   =         0.00000000
  -V(xc)+E(xc)   XCENC  =        32.40019582
  PAW double counting   =       438.11044511     -439.40712164
  entropy T*S    EENTRO =        -0.00000000
  eigenvalues    EBANDS =      -111.54708554
  atomic energy  EATOM  =       457.35377130
  Solvation  Ediel_sol  =         0.00000000
  ---------------------------------------------------
  free energy    TOTEN  =       -14.26965205 eV

  energy without entropy =      -14.26965205  energy(sigma->0) =      -14.26965205


--------------------------------------------------------------------------------------------------------




----------------------------------------- Iteration    1(  10)  ---------------------------------------


    POTLOK:  cpu time   42.8400: real time   42.9568
    SETDIJ:  cpu time    0.1276: real time    0.1279
     EDDAV:  cpu time    9.9783: real time   10.0056
       DOS:  cpu time    0.0000: real time    0.0000
    CHARGE:  cpu time    4.0919: real time    4.1031
    MIXING:  cpu time    1.3943: real time    1.3980
    --------------------------------------------
      LOOP:  cpu time   58.4342: real time   58.5959

 eigenvalue-minimisations  :    16
 total energy-change (2. order) :-0.4120129E-02  (-0.3574344E-03)
 number of electron       8.0000000 magnetization 
 augmentation part        0.1088055 magnetization 

 Broyden mixing:
  rms(total) = 0.47807E-02    rms(broyden)= 0.47807E-02
  rms(prec ) = 0.67675E-02
  weight for this iteration     100.00

 eigenvalues of (default mixing * dielectric matrix)
  average eigenvalue GAMMA=   1.7914
  3.1247  2.3105  1.0247  1.0247  1.4725

 Free energy of the ion-electron system (eV)
  ---------------------------------------------------
  alpha Z        PSCENC =         0.00506612
  Ewald energy   TEWEN  =       151.34559510
  -Hartree energ DENC   =      -543.54605922
  -exchange      EXHF   =         0.00000000
  -V(xc)+E(xc)   XCENC  =        32.42179460
  PAW double counting   =       436.03372721     -437.33198164
  entropy T*S    EENTRO =        -0.00000000
  eigenvalues    EBANDS =      -110.55568565
  atomic energy  EATOM  =       457.35377130
  Solvation  Ediel_sol  =         0.00000000
  ---------------------------------------------------
  free energy    TOTEN  =       -14.27377217 eV

  energy without entropy =      -14.27377217  energy(sigma->0) =      -14.27377217


--------------------------------------------------------------------------------------------------------




----------------------------------------- Iteration    1(  11)  ---------------------------------------


    POTLOK:  cpu time   42.8610: real time   42.9777
    SETDIJ:  cpu time    0.1276: real time    0.1279
     EDDAV:  cpu time   16.6134: real time   16.6588
       DOS:  cpu time    0.0000: real time    0.0000
    CHARGE:  cpu time    4.0907: real time    4.1018
    MIXING:  cpu time    1.4463: real time    1.4504
    --------------------------------------------
      LOOP:  cpu time   65.1411: real time   65.3211

 eigenvalue-minimisations  :    32
 total energy-change (2. order) :-0.3468655E-02  (-0.1526646E-03)
 number of electron       8.0000000 magnetization 
 augmentation part        0.1084997 magnetization 

 Broyden mixing:
  rms(total) = 0.41697E-02    rms(broyden)= 0.41697E-02
  rms(prec ) = 0.55641E-02
  weight for this iteration     100.00

 eigenvalues of (default mixing * dielectric matrix)
  average eigenvalue GAMMA=   1.8873
  3.7473  2.6013  1.9826  1.1026  0.9699  0.9200

 Free energy of the ion-electron system (eV)
  ---------------------------------------------------
  alpha Z        PSCENC =         0.00506612
  Ewald energy   TEWEN  =       151.34559510
  -Hartree energ DENC   =      -543.81080969
  -exchange      EXHF   =         0.00000000
  -V(xc)+E(xc)   XCENC  =        32.42715173
  PAW double counting   =       436.24149787     -437.53841409
  entropy T*S    EENTRO =        -0.00000000
  eigenvalues    EBANDS =      -110.30109919
  atomic energy  EATOM  =       457.35377130
  Solvation  Ediel_sol  =         0.00000000
  ---------------------------------------------------
  free energy    TOTEN  =       -14.27724083 eV

  energy without entropy =      -14.27724083  energy(sigma->0) =      -14.27724083


--------------------------------------------------------------------------------------------------------




----------------------------------------- Iteration    1(  12)  ---------------------------------------


    POTLOK:  cpu time   42.8530: real time   42.9695
    SETDIJ:  cpu time    0.1275: real time    0.1278
     EDDAV:  cpu time   13.2978: real time   13.3341
       DOS:  cpu time    0.0000: real time    0.0000
    CHARGE:  cpu time    4.0918: real time    4.1030
    MIXING:  cpu time    1.5042: real time    1.5084
    --------------------------------------------
      LOOP:  cpu time   61.8764: real time   62.0477

 eigenvalue-minimisations  :    24
 total energy-change (2. order) :-0.4444199E-02  (-0.1029647E-03)
 number of electron       8.0000000 magnetization 
 augmentation part        0.1087913 magnetization 

 Broyden mixing:
  rms(total) = 0.29670E-02    rms(broyden)= 0.29670E-02
  rms(prec ) = 0.36716E-02
  weight for this iteration     100.00

 eigenvalues of (default mixing * dielectric matrix)
  average eigenvalue GAMMA=   2.0861
  4.9477  3.0038  2.4560  0.9297  0.9297  1.1679  1.1679

 Free energy of the ion-electron system (eV)
  ---------------------------------------------------
  alpha Z        PSCENC =         0.00506612
  Ewald energy   TEWEN  =       151.34559510
  -Hartree energ DENC   =      -543.87481283
  -exchange      EXHF   =         0.00000000
  -V(xc)+E(xc)   XCENC  =        32.41599545
  PAW double counting   =       435.63649061     -436.93099211
  entropy T*S    EENTRO =        -0.00000000
  eigenvalues    EBANDS =      -110.23279869
  atomic energy  EATOM  =       457.35377130
  Solvation  Ediel_sol  =         0.00000000
  ---------------------------------------------------
  free energy    TOTEN  =       -14.28168503 eV

  energy without entropy =      -14.28168503  energy(sigma->0) =      -14.28168503


--------------------------------------------------------------------------------------------------------




----------------------------------------- Iteration    1(  13)  ---------------------------------------


    POTLOK:  cpu time   42.9017: real time   43.0185
    SETDIJ:  cpu time    0.1276: real time    0.1279
     EDDAV:  cpu time   13.2872: real time   13.3233
       DOS:  cpu time    0.0000: real time    0.0000
    CHARGE:  cpu time    4.0927: real time    4.1038
    MIXING:  cpu time    1.5673: real time    1.5717
    --------------------------------------------
      LOOP:  cpu time   61.9786: real time   62.1500

 eigenvalue-minimisations  :    24
 total energy-change (2. order) :-0.2823528E-02  (-0.7078574E-04)
 number of electron       8.0000000 magnetization 
 augmentation part        0.1085029 magnetization 

 Broyden mixing:
  rms(total) = 0.15561E-02    rms(broyden)= 0.15561E-02
  rms(prec ) = 0.19412E-02
  weight for this iteration     100.00

 eigenvalues of (default mixing * dielectric matrix)
  average eigenvalue GAMMA=   2.0692
  5.4177  3.1456  2.4123  1.6361  1.0934  1.0934  0.8776  0.8776

 Free energy of the ion-electron system (eV)
  ---------------------------------------------------
  alpha Z        PSCENC =         0.00506612
  Ewald energy   TEWEN  =       151.34559510
  -Hartree energ DENC   =      -544.06703914
  -exchange      EXHF   =         0.00000000
  -V(xc)+E(xc)   XCENC  =        32.41871620
  PAW double counting   =       436.05660035     -437.35179602
  entropy T*S    EENTRO =        -0.00000000
  eigenvalues    EBANDS =      -110.04542247
  atomic energy  EATOM  =       457.35377130
  Solvation  Ediel_sol  =         0.00000000
  ---------------------------------------------------
  free energy    TOTEN  =       -14.28450856 eV

  energy without entropy =      -14.28450856  energy(sigma->0) =      -14.28450856


--------------------------------------------------------------------------------------------------------




----------------------------------------- Iteration    1(  14)  ---------------------------------------


    POTLOK:  cpu time   42.9009: real time   43.0175
    SETDIJ:  cpu time    0.1275: real time    0.1278
     EDDAV:  cpu time   16.6036: real time   16.6491
       DOS:  cpu time    0.0000: real time    0.0000
    CHARGE:  cpu time    4.0915: real time    4.1027
    MIXING:  cpu time    1.6309: real time    1.6352
    --------------------------------------------
      LOOP:  cpu time   65.3565: real time   65.5369

 eigenvalue-minimisations  :    32
 total energy-change (2. order) :-0.1465991E-02  (-0.1074559E-04)
 number of electron       8.0000000 magnetization 
 augmentation part        0.1085326 magnetization 

 Broyden mixing:
  rms(total) = 0.80595E-03    rms(broyden)= 0.80595E-03
  rms(prec ) = 0.10737E-02
  weight for this iteration     100.00

 eigenvalues of (default mixing * dielectric matrix)
  average eigenvalue GAMMA=   2.2981
  6.8463  3.7485  2.7043  2.3722  1.1412  1.1412  0.9827  0.8732  0.8732

 Free energy of the ion-electron system (eV)
  ---------------------------------------------------
  alpha Z        PSCENC =         0.00506612
  Ewald energy   TEWEN  =       151.34559510
  -Hartree energ DENC   =      -544.05689090
  -exchange      EXHF   =         0.00000000
  -V(xc)+E(xc)   XCENC  =        32.41507786
  PAW double counting   =       435.94677843     -437.24208334
  entropy T*S    EENTRO =        -0.00000000
  eigenvalues    EBANDS =      -110.05328911
  atomic energy  EATOM  =       457.35377130
  Solvation  Ediel_sol  =         0.00000000
  ---------------------------------------------------
  free energy    TOTEN  =       -14.28597455 eV

  energy without entropy =      -14.28597455  energy(sigma->0) =      -14.28597455


--------------------------------------------------------------------------------------------------------




----------------------------------------- Iteration    1(  15)  ---------------------------------------


    POTLOK:  cpu time   42.9014: real time   43.0182
    SETDIJ:  cpu time    0.1276: real time    0.1282
     EDDAV:  cpu time    9.9829: real time   10.0101
       DOS:  cpu time    0.0000: real time    0.0000
    CHARGE:  cpu time    4.0897: real time    4.1009
    MIXING:  cpu time    1.7101: real time    1.7145
    --------------------------------------------
      LOOP:  cpu time   58.8138: real time   58.9757

 eigenvalue-minimisations  :    16
 total energy-change (2. order) :-0.1062554E-02  (-0.8169992E-05)
 number of electron       8.0000000 magnetization 
 augmentation part        0.1085386 magnetization 

 Broyden mixing:
  rms(total) = 0.51587E-03    rms(broyden)= 0.51587E-03
  rms(prec ) = 0.62057E-03
  weight for this iteration     100.00

 eigenvalues of (default mixing * dielectric matrix)
  average eigenvalue GAMMA=   2.3500
  7.3946  3.9238  2.6829  2.4696  2.0458  1.1036  1.1036  0.9936  0.8911  0.8911

 Free energy of the ion-electron system (eV)
  ---------------------------------------------------
  alpha Z        PSCENC =         0.00506612
  Ewald energy   TEWEN  =       151.34559510
  -Hartree energ DENC   =      -544.04653861
  -exchange      EXHF   =         0.00000000
  -V(xc)+E(xc)   XCENC  =        32.41250463
  PAW double counting   =       435.87007270     -437.16534939
  entropy T*S    EENTRO =        -0.00000000
  eigenvalues    EBANDS =      -110.06215896
  atomic energy  EATOM  =       457.35377130
  Solvation  Ediel_sol  =         0.00000000
  ---------------------------------------------------
  free energy    TOTEN  =       -14.28703710 eV

  energy without entropy =      -14.28703710  energy(sigma->0) =      -14.28703710


--------------------------------------------------------------------------------------------------------




----------------------------------------- Iteration    1(  16)  ---------------------------------------


    POTLOK:  cpu time   42.8792: real time   42.9959
    SETDIJ:  cpu time    0.1275: real time    0.1278
     EDDAV:  cpu time   16.6094: real time   16.6549
       DOS:  cpu time    0.0000: real time    0.0000
    CHARGE:  cpu time    4.0934: real time    4.1045
    MIXING:  cpu time    1.7872: real time    1.7922
    --------------------------------------------
      LOOP:  cpu time   65.4988: real time   65.6802

 eigenvalue-minimisations  :    32
 total energy-change (2. order) :-0.4642715E-03  (-0.2614645E-05)
 number of electron       8.0000000 magnetization 
 augmentation part        0.1085685 magnetization 

 Broyden mixing:
  rms(total) = 0.29467E-03    rms(broyden)= 0.29467E-03
  rms(prec ) = 0.34876E-03
  weight for this iteration     100.00

 eigenvalues of (default mixing * dielectric matrix)
  average eigenvalue GAMMA=   2.3873
  8.1012  4.5152  3.0535  2.5152  2.2484  1.1263  1.1263  0.9364  0.9364  0.8509
  0.8509

 Free energy of the ion-electron system (eV)
  ---------------------------------------------------
  alpha Z        PSCENC =         0.00506612
  Ewald energy   TEWEN  =       151.34559510
  -Hartree energ DENC   =      -544.05062366
  -exchange      EXHF   =         0.00000000
  -V(xc)+E(xc)   XCENC  =        32.41212199
  PAW double counting   =       435.87308872     -437.16803355
  entropy T*S    EENTRO =        -0.00000000
  eigenvalues    EBANDS =      -110.05848739
  atomic energy  EATOM  =       457.35377130
  Solvation  Ediel_sol  =         0.00000000
  ---------------------------------------------------
  free energy    TOTEN  =       -14.28750137 eV

  energy without entropy =      -14.28750137  energy(sigma->0) =      -14.28750137


--------------------------------------------------------------------------------------------------------




----------------------------------------- Iteration    1(  17)  ---------------------------------------


    POTLOK:  cpu time   42.8773: real time   43.0026
    SETDIJ:  cpu time    0.1311: real time    0.1314
     EDDAV:  cpu time    9.9780: real time   10.0052
       DOS:  cpu time    0.0000: real time    0.0000
    CHARGE:  cpu time    4.0939: real time    4.1051
    MIXING:  cpu time    1.8659: real time    1.8710
    --------------------------------------------
      LOOP:  cpu time   58.9484: real time   59.1204

 eigenvalue-minimisations  :    16
 total energy-change (2. order) :-0.1636479E-03  (-0.4016862E-06)
 number of electron       8.0000000 magnetization 
 augmentation part        0.1085545 magnetization 

 Broyden mixing:
  rms(total) = 0.15657E-03    rms(broyden)= 0.15657E-03
  rms(prec ) = 0.19377E-03
  weight for this iteration     100.00

 eigenvalues of (default mixing * dielectric matrix)
  average eigenvalue GAMMA=   2.5232
  8.6980  5.0004  3.4842  2.5286  2.5286  2.0624  1.1282  1.1282  0.9986  0.9204
  0.9006  0.9006

 Free energy of the ion-electron system (eV)
  ---------------------------------------------------
  alpha Z        PSCENC =         0.00506612
  Ewald energy   TEWEN  =       151.34559510
  -Hartree energ DENC   =      -544.05669983
  -exchange      EXHF   =         0.00000000
  -V(xc)+E(xc)   XCENC  =        32.41218740
  PAW double counting   =       435.89138191     -437.18644430
  entropy T*S    EENTRO =        -0.00000000
  eigenvalues    EBANDS =      -110.05252272
  atomic energy  EATOM  =       457.35377130
  Solvation  Ediel_sol  =         0.00000000
  ---------------------------------------------------
  free energy    TOTEN  =       -14.28766502 eV

  energy without entropy =      -14.28766502  energy(sigma->0) =      -14.28766502


--------------------------------------------------------------------------------------------------------




----------------------------------------- Iteration    1(  18)  ---------------------------------------


    POTLOK:  cpu time   42.8492: real time   42.9659
    SETDIJ:  cpu time    0.1275: real time    0.1278
     EDDAV:  cpu time   16.6091: real time   16.6546
       DOS:  cpu time    0.0000: real time    0.0000
    CHARGE:  cpu time    4.0917: real time    4.1029
    MIXING:  cpu time    1.9546: real time    1.9600
    --------------------------------------------
      LOOP:  cpu time   65.6342: real time   65.8157

 eigenvalue-minimisations  :    32
 total energy-change (2. order) :-0.1572731E-03  (-0.2335031E-06)
 number of electron       8.0000000 magnetization 
 augmentation part        0.1085453 magnetization 

 Broyden mixing:
  rms(total) = 0.93429E-04    rms(broyden)= 0.93429E-04
  rms(prec ) = 0.10546E-03
  weight for this iteration     100.00

 eigenvalues of (default mixing * dielectric matrix)
  average eigenvalue GAMMA=   2.4752
  8.8899  5.4969  3.4858  2.9285  2.4268  1.9942  1.1152  1.1152  0.9983  0.9983
  0.8887  0.8887  0.9508

 Free energy of the ion-electron system (eV)
  ---------------------------------------------------
  alpha Z        PSCENC =         0.00506612
  Ewald energy   TEWEN  =       151.34559510
  -Hartree energ DENC   =      -544.05501171
  -exchange      EXHF   =         0.00000000
  -V(xc)+E(xc)   XCENC  =        32.41181559
  PAW double counting   =       435.89846691     -437.19376430
  entropy T*S    EENTRO =        -0.00000000
  eigenvalues    EBANDS =      -110.05376131
  atomic energy  EATOM  =       457.35377130
  Solvation  Ediel_sol  =         0.00000000
  ---------------------------------------------------
  free energy    TOTEN  =       -14.28782229 eV

  energy without entropy =      -14.28782229  energy(sigma->0) =      -14.28782229


--------------------------------------------------------------------------------------------------------




----------------------------------------- Iteration    1(  19)  ---------------------------------------


    POTLOK:  cpu time   42.8740: real time   42.9907
    SETDIJ:  cpu time    0.1275: real time    0.1278
     EDDAV:  cpu time    9.9803: real time   10.0075
       DOS:  cpu time    0.0000: real time    0.0000
    CHARGE:  cpu time    4.0842: real time    4.0953
    MIXING:  cpu time    2.0373: real time    2.0428
    --------------------------------------------
      LOOP:  cpu time   59.1054: real time   59.2687

 eigenvalue-minimisations  :    16
 total energy-change (2. order) :-0.2562524E-04  (-0.1059432E-07)
 number of electron       8.0000000 magnetization 
 augmentation part        0.1085495 magnetization 

 Broyden mixing:
  rms(total) = 0.68104E-04    rms(broyden)= 0.68104E-04
  rms(prec ) = 0.76564E-04
  weight for this iteration     100.00

 eigenvalues of (default mixing * dielectric matrix)
  average eigenvalue GAMMA=   2.5951
  9.2685  6.0428  4.1355  3.0397  2.6245  2.3427  1.7137  1.2630  1.0980  1.0980
  0.8905  0.8905  0.9618  0.9618

 Free energy of the ion-electron system (eV)
  ---------------------------------------------------
  alpha Z        PSCENC =         0.00506612
  Ewald energy   TEWEN  =       151.34559510
  -Hartree energ DENC   =      -544.05260631
  -exchange      EXHF   =         0.00000000
  -V(xc)+E(xc)   XCENC  =        32.41165338
  PAW double counting   =       435.89742917     -437.19270251
  entropy T*S    EENTRO =        -0.00000000
  eigenvalues    EBANDS =      -110.05605418
  atomic energy  EATOM  =       457.35377130
  Solvation  Ediel_sol  =         0.00000000
  ---------------------------------------------------
  free energy    TOTEN  =       -14.28784792 eV

  energy without entropy =      -14.28784792  energy(sigma->0) =      -14.28784792


--------------------------------------------------------------------------------------------------------




----------------------------------------- Iteration    1(  20)  ---------------------------------------


    POTLOK:  cpu time   42.8102: real time   42.9269
    SETDIJ:  cpu time    0.1276: real time    0.1279
     EDDAV:  cpu time    9.9840: real time   10.0114
       DOS:  cpu time    0.0000: real time    0.0000
    CHARGE:  cpu time    4.0950: real time    4.1062
    MIXING:  cpu time    2.1400: real time    2.1461
    --------------------------------------------
      LOOP:  cpu time   59.1590: real time   59.3233

 eigenvalue-minimisations  :    16
 total energy-change (2. order) :-0.4122705E-04  (-0.3463558E-07)
 number of electron       8.0000000 magnetization 
 augmentation part        0.1085524 magnetization 

 Broyden mixing:
  rms(total) = 0.42514E-04    rms(broyden)= 0.42514E-04
  rms(prec ) = 0.45349E-04
  weight for this iteration     100.00

 eigenvalues of (default mixing * dielectric matrix)
  average eigenvalue GAMMA=   2.5447
  9.3903  6.2190  4.2718  3.1750  2.6564  2.4118  1.9256  1.1528  1.1528  1.0529
  1.0529  0.9042  0.9042  0.9500  0.9500

 Free energy of the ion-electron system (eV)
  ---------------------------------------------------
  alpha Z        PSCENC =         0.00506612
  Ewald energy   TEWEN  =       151.34559510
  -Hartree energ DENC   =      -544.05218642
  -exchange      EXHF   =         0.00000000
  -V(xc)+E(xc)   XCENC  =        32.41156463
  PAW double counting   =       435.89165288     -437.18688182
  entropy T*S    EENTRO =        -0.00000000
  eigenvalues    EBANDS =      -110.05647096
  atomic energy  EATOM  =       457.35377130
  Solvation  Ediel_sol  =         0.00000000
  ---------------------------------------------------
  free energy    TOTEN  =       -14.28788915 eV

  energy without entropy =      -14.28788915  energy(sigma->0) =      -14.28788915


--------------------------------------------------------------------------------------------------------




----------------------------------------- Iteration    1(  21)  ---------------------------------------


    POTLOK:  cpu time   42.7962: real time   42.9156
    SETDIJ:  cpu time    0.1275: real time    0.1281
     EDDAV:  cpu time   16.6107: real time   16.6557
       DOS:  cpu time    0.0000: real time    0.0000
    CHARGE:  cpu time    4.0963: real time    4.1074
    MIXING:  cpu time    2.2332: real time    2.2395
    --------------------------------------------
      LOOP:  cpu time   65.8660: real time   66.0515

 eigenvalue-minimisations  :    32
 total energy-change (2. order) :-0.7668424E-05  (-0.6222972E-08)
 number of electron       8.0000000 magnetization 
 augmentation part        0.1085537 magnetization 

 Broyden mixing:
  rms(total) = 0.43341E-04    rms(broyden)= 0.43341E-04
  rms(prec ) = 0.45218E-04
  weight for this iteration     100.00

 eigenvalues of (default mixing * dielectric matrix)
  average eigenvalue GAMMA=   2.5873
  9.5304  6.5368  4.6906  3.1264  3.1264  2.4714  2.0426  1.6011  1.4536  1.1001
  1.1001  0.8906  0.8906  0.9658  0.9658  0.9048

 Free energy of the ion-electron system (eV)
  ---------------------------------------------------
  alpha Z        PSCENC =         0.00506612
  Ewald energy   TEWEN  =       151.34559510
  -Hartree energ DENC   =      -544.05246394
  -exchange      EXHF   =         0.00000000
  -V(xc)+E(xc)   XCENC  =        32.41157758
  PAW double counting   =       435.89119181     -437.18639732
  entropy T*S    EENTRO =        -0.00000000
  eigenvalues    EBANDS =      -110.05623748
  atomic energy  EATOM  =       457.35377130
  Solvation  Ediel_sol  =         0.00000000
  ---------------------------------------------------
  free energy    TOTEN  =       -14.28789681 eV

  energy without entropy =      -14.28789681  energy(sigma->0) =      -14.28789681


--------------------------------------------------------------------------------------------------------




----------------------------------------- Iteration    1(  22)  ---------------------------------------


    POTLOK:  cpu time   42.8502: real time   42.9670
    SETDIJ:  cpu time    0.1276: real time    0.1279
     EDDAV:  cpu time    9.9816: real time   10.0088
       DOS:  cpu time    0.0000: real time    0.0000
    CHARGE:  cpu time    4.0907: real time    4.1019
    MIXING:  cpu time    2.3392: real time    2.3455
    --------------------------------------------
      LOOP:  cpu time   59.3914: real time   59.5559

 eigenvalue-minimisations  :    16
 total energy-change (2. order) :-0.7237260E-05  (-0.6979535E-08)
 number of electron       8.0000000 magnetization 
 augmentation part        0.1085501 magnetization 

 Broyden mixing:
  rms(total) = 0.18904E-04    rms(broyden)= 0.18904E-04
  rms(prec ) = 0.19993E-04
  weight for this iteration     100.00

 eigenvalues of (default mixing * dielectric matrix)
  average eigenvalue GAMMA=   2.5606
  9.5817  6.7763  4.9162  3.3862  3.1272  2.4666  2.2765  1.6108  1.1814  1.1814
  1.2019  1.1035  1.0468  0.8897  0.8897  0.9471  0.9471

 Free energy of the ion-electron system (eV)
  ---------------------------------------------------
  alpha Z        PSCENC =         0.00506612
  Ewald energy   TEWEN  =       151.34559510
  -Hartree energ DENC   =      -544.05445617
  -exchange      EXHF   =         0.00000000
  -V(xc)+E(xc)   XCENC  =        32.41168005
  PAW double counting   =       435.89457416     -437.18978906
  entropy T*S    EENTRO =        -0.00000000
  eigenvalues    EBANDS =      -110.05434556
  atomic energy  EATOM  =       457.35377130
  Solvation  Ediel_sol  =         0.00000000
  ---------------------------------------------------
  free energy    TOTEN  =       -14.28790405 eV

  energy without entropy =      -14.28790405  energy(sigma->0) =      -14.28790405


--------------------------------------------------------------------------------------------------------




----------------------------------------- Iteration    1(  23)  ---------------------------------------


    POTLOK:  cpu time   42.8456: real time   42.9622
    SETDIJ:  cpu time    0.1275: real time    0.1278
     EDDAV:  cpu time   16.6069: real time   16.6523
       DOS:  cpu time    0.0000: real time    0.0000
    CHARGE:  cpu time    4.0890: real time    4.1001
    MIXING:  cpu time    2.4479: real time    2.4544
    --------------------------------------------
      LOOP:  cpu time   66.1189: real time   66.3021

 eigenvalue-minimisations  :    32
 total energy-change (2. order) :-0.1997218E-05  (-0.1352927E-08)
 number of electron       8.0000000 magnetization 
 augmentation part        0.1085504 magnetization 

 Broyden mixing:
  rms(total) = 0.13549E-04    rms(broyden)= 0.13549E-04
  rms(prec ) = 0.14261E-04
  weight for this iteration     100.00

 eigenvalues of (default mixing * dielectric matrix)
  average eigenvalue GAMMA=   2.5396
  9.6273  7.0042  5.0482  3.7296  2.7574  2.7574  2.3880  1.8661  1.3577  1.3577
  1.1052  1.1052  0.9966  0.9966  0.8993  0.8993  0.9085  0.9085

 Free energy of the ion-electron system (eV)
  ---------------------------------------------------
  alpha Z        PSCENC =         0.00506612
  Ewald energy   TEWEN  =       151.34559510
  -Hartree energ DENC   =      -544.05416689
  -exchange      EXHF   =         0.00000000
  -V(xc)+E(xc)   XCENC  =        32.41166481
  PAW double counting   =       435.89417003     -437.18938220
  entropy T*S    EENTRO =        -0.00000000
  eigenvalues    EBANDS =      -110.05462433
  atomic energy  EATOM  =       457.35377130
  Solvation  Ediel_sol  =         0.00000000
  ---------------------------------------------------
  free energy    TOTEN  =       -14.28790605 eV

  energy without entropy =      -14.28790605  energy(sigma->0) =      -14.28790605


--------------------------------------------------------------------------------------------------------




----------------------------------------- Iteration    1(  24)  ---------------------------------------


    POTLOK:  cpu time   42.8335: real time   42.9540
    SETDIJ:  cpu time    0.1275: real time    0.1281
     EDDAV:  cpu time    9.9770: real time   10.0043
       DOS:  cpu time    0.0000: real time    0.0000
    CHARGE:  cpu time    4.0947: real time    4.1059
    MIXING:  cpu time    2.5535: real time    2.5603
    --------------------------------------------
      LOOP:  cpu time   59.5884: real time   59.7574

 eigenvalue-minimisations  :    16
 total energy-change (2. order) :-0.1226857E-05  (-0.4530865E-09)
 number of electron       8.0000000 magnetization 
 augmentation part        0.1085509 magnetization 

 Broyden mixing:
  rms(total) = 0.45759E-05    rms(broyden)= 0.45759E-05
  rms(prec ) = 0.50463E-05
  weight for this iteration     100.00

 eigenvalues of (default mixing * dielectric matrix)
  average eigenvalue GAMMA=   2.5809
  9.7068  7.2988  5.3797  4.1336  2.9186  2.9186  2.3840  1.9461  1.9461  1.1969
  1.1969  1.1714  1.1714  0.8915  0.8915  0.9624  0.9624  0.9806  0.9806

 Free energy of the ion-electron system (eV)
  ---------------------------------------------------
  alpha Z        PSCENC =         0.00506612
  Ewald energy   TEWEN  =       151.34559510
  -Hartree energ DENC   =      -544.05369968
  -exchange      EXHF   =         0.00000000
  -V(xc)+E(xc)   XCENC  =        32.41163788
  PAW double counting   =       435.89366345     -437.18887938
  entropy T*S    EENTRO =        -0.00000000
  eigenvalues    EBANDS =      -110.05506208
  atomic energy  EATOM  =       457.35377130
  Solvation  Ediel_sol  =         0.00000000
  ---------------------------------------------------
  free energy    TOTEN  =       -14.28790728 eV

  energy without entropy =      -14.28790728  energy(sigma->0) =      -14.28790728


--------------------------------------------------------------------------------------------------------




----------------------------------------- Iteration    1(  25)  ---------------------------------------


    POTLOK:  cpu time   42.8500: real time   42.9667
    SETDIJ:  cpu time    0.1275: real time    0.1278
     EDDAV:  cpu time    9.9739: real time   10.0012
       DOS:  cpu time    0.0000: real time    0.0000
    CHARGE:  cpu time    4.0912: real time    4.1024
    MIXING:  cpu time    2.6781: real time    2.6855
    --------------------------------------------
      LOOP:  cpu time   59.7228: real time   59.8882

 eigenvalue-minimisations  :    16
 total energy-change (2. order) :-0.1004367E-05  (-0.4089884E-09)
 number of electron       8.0000000 magnetization 
 augmentation part        0.1085512 magnetization 

 Broyden mixing:
  rms(total) = 0.23426E-05    rms(broyden)= 0.23426E-05
  rms(prec ) = 0.25840E-05
  weight for this iteration     100.00

 eigenvalues of (default mixing * dielectric matrix)
  average eigenvalue GAMMA=   2.5773
  9.7448  7.5050  5.6457  4.3068  3.3161  2.6719  2.6719  2.2100  1.5907  1.5907
  1.1529  1.1529  1.1685  1.1685  0.8920  0.8920  0.9757  0.9757  0.9566  0.9566

 Free energy of the ion-electron system (eV)
  ---------------------------------------------------
  alpha Z        PSCENC =         0.00506612
  Ewald energy   TEWEN  =       151.34559510
  -Hartree energ DENC   =      -544.05355154
  -exchange      EXHF   =         0.00000000
  -V(xc)+E(xc)   XCENC  =        32.41162725
  PAW double counting   =       435.89336696     -437.18858569
  entropy T*S    EENTRO =        -0.00000000
  eigenvalues    EBANDS =      -110.05519779
  atomic energy  EATOM  =       457.35377130
  Solvation  Ediel_sol  =         0.00000000
  ---------------------------------------------------
  free energy    TOTEN  =       -14.28790828 eV

  energy without entropy =      -14.28790828  energy(sigma->0) =      -14.28790828


--------------------------------------------------------------------------------------------------------




----------------------------------------- Iteration    1(  26)  ---------------------------------------


    POTLOK:  cpu time   42.8472: real time   42.9640
    SETDIJ:  cpu time    0.1275: real time    0.1278
     EDDAV:  cpu time   16.6159: real time   16.6615
       DOS:  cpu time    0.0000: real time    0.0000
    CHARGE:  cpu time    4.0911: real time    4.1022
    MIXING:  cpu time    2.7973: real time    2.8050
    --------------------------------------------
      LOOP:  cpu time   66.4811: real time   66.6652

 eigenvalue-minimisations  :    32
 total energy-change (2. order) :-0.3195234E-06  (-0.2018670E-09)
 number of electron       8.0000000 magnetization 
 augmentation part        0.1085513 magnetization 

 Broyden mixing:
  rms(total) = 0.19435E-05    rms(broyden)= 0.19435E-05
  rms(prec ) = 0.20718E-05
  weight for this iteration     100.00

 eigenvalues of (default mixing * dielectric matrix)
  average eigenvalue GAMMA=   2.6249
  9.7824  7.7779  5.9434  4.6713  3.4732  3.1097  2.6715  2.5058  2.1562  1.4341
  1.4341  1.2144  1.2144  1.0745  1.0269  1.0269  0.8917  0.8917  0.9572  0.9324
  0.9324

 Free energy of the ion-electron system (eV)
  ---------------------------------------------------
  alpha Z        PSCENC =         0.00506612
  Ewald energy   TEWEN  =       151.34559510
  -Hartree energ DENC   =      -544.05358918
  -exchange      EXHF   =         0.00000000
  -V(xc)+E(xc)   XCENC  =        32.41162860
  PAW double counting   =       435.89349571     -437.18871613
  entropy T*S    EENTRO =        -0.00000000
  eigenvalues    EBANDS =      -110.05516012
  atomic energy  EATOM  =       457.35377130
  Solvation  Ediel_sol  =         0.00000000
  ---------------------------------------------------
  free energy    TOTEN  =       -14.28790860 eV

  energy without entropy =      -14.28790860  energy(sigma->0) =      -14.28790860


--------------------------------------------------------------------------------------------------------




----------------------------------------- Iteration    1(  27)  ---------------------------------------


    POTLOK:  cpu time   42.7307: real time   42.8472
    SETDIJ:  cpu time    0.1275: real time    0.1278
     EDDAV:  cpu time    9.9795: real time   10.0065
       DOS:  cpu time    0.0000: real time    0.0000
    CHARGE:  cpu time    4.0934: real time    4.1046
    MIXING:  cpu time    2.9188: real time    2.9268
    --------------------------------------------
      LOOP:  cpu time   59.8520: real time   60.0183

 eigenvalue-minimisations  :    16
 total energy-change (2. order) :-0.2133789E-06  (-0.1373888E-09)
 number of electron       8.0000000 magnetization 
 augmentation part        0.1085512 magnetization 

 Broyden mixing:
  rms(total) = 0.11305E-05    rms(broyden)= 0.11305E-05
  rms(prec ) = 0.11820E-05
  weight for this iteration     100.00

 eigenvalues of (default mixing * dielectric matrix)
  average eigenvalue GAMMA=   2.6128
  9.7862  7.9601  6.1226  4.8256  3.7482  2.9005  2.7549  2.5275  2.1060  1.6702
  1.6702  1.3795  1.1717  1.1717  1.0833  0.8904  0.8904  0.9975  0.9975  0.9346
  0.9462  0.9462

 Free energy of the ion-electron system (eV)
  ---------------------------------------------------
  alpha Z        PSCENC =         0.00506612
  Ewald energy   TEWEN  =       151.34559510
  -Hartree energ DENC   =      -544.05365861
  -exchange      EXHF   =         0.00000000
  -V(xc)+E(xc)   XCENC  =        32.41163251
  PAW double counting   =       435.89367415     -437.18889302
  entropy T*S    EENTRO =        -0.00000000
  eigenvalues    EBANDS =      -110.05509639
  atomic energy  EATOM  =       457.35377130
  Solvation  Ediel_sol  =         0.00000000
  ---------------------------------------------------
  free energy    TOTEN  =       -14.28790881 eV

  energy without entropy =      -14.28790881  energy(sigma->0) =      -14.28790881


--------------------------------------------------------------------------------------------------------




----------------------------------------- Iteration    1(  28)  ---------------------------------------


    POTLOK:  cpu time   42.7485: real time   42.8648
    SETDIJ:  cpu time    0.1276: real time    0.1279
     EDDAV:  cpu time   16.6058: real time   16.6510
       DOS:  cpu time    0.0000: real time    0.0000
    --------------------------------------------
      LOOP:  cpu time   59.4839: real time   59.6488

 eigenvalue-minimisations  :    32
 total energy-change (2. order) :-0.4681340E-07  (-0.8739498E-10)
 number of electron       8.0000000 magnetization 
 augmentation part        0.1085512 magnetization 

 Free energy of the ion-electron system (eV)
  ---------------------------------------------------
  alpha Z        PSCENC =         0.00506612
  Ewald energy   TEWEN  =       151.34559510
  -Hartree energ DENC   =      -544.05362562
  -exchange      EXHF   =         0.00000000
  -V(xc)+E(xc)   XCENC  =        32.41163075
  PAW double counting   =       435.89353228     -437.18875108
  entropy T*S    EENTRO =        -0.00000000
  eigenvalues    EBANDS =      -110.05512772
  atomic energy  EATOM  =       457.35377130
  Solvation  Ediel_sol  =         0.00000000
  ---------------------------------------------------
  free energy    TOTEN  =       -14.28790886 eV

  energy without entropy =      -14.28790886  energy(sigma->0) =      -14.28790886


--------------------------------------------------------------------------------------------------------




 average (electrostatic) potential at core
  the test charge radii are     0.5586  0.5531
  (the norm of the test charge is              1.0000)
       1-112.6588       2 -43.7375       3 -43.5690
 
 
 
 E-fermi :  -7.1774     XC(G=0):  -0.0215     alpha+bet : -0.0030


 k-point     1 :       0.0000    0.0000    0.0000
  band No.  band energies     occupation 
      1     -25.3364      2.00000
      2     -13.0863      2.00000
      3      -9.3715      2.00000
      4      -7.2334      2.00000
      5      -0.9596      0.00000
      6      -0.0023      0.00000
      7       0.1028      0.00000
      8       0.1113      0.00000


--------------------------------------------------------------------------------------------------------


 soft charge-density along one line, spin component           1
         0         1         2         3         4         5         6         7         8         9
 total charge-density along one line
 
 pseudopotential strength for first ion, spin component:           1
 17.930 -30.086  34.091   0.055   0.000   0.035   0.086   0.000
-30.086  51.145 -42.168  -0.089  -0.000  -0.056  -0.152  -0.000
 34.091 -42.168 *******   0.205   0.000   0.127  -0.079  -0.000
  0.055  -0.089   0.205 -14.756  -0.000   0.005   8.845   0.000
  0.000  -0.000   0.000  -0.000 -14.737  -0.000   0.000   8.772
  0.035  -0.056   0.127   0.005  -0.000 -14.760  -0.017   0.000
  0.086  -0.152  -0.079   8.845   0.000  -0.017  60.496  -0.000
  0.000  -0.000  -0.000   0.000   8.772   0.000  -0.000  60.601
  0.052  -0.092  -0.048  -0.017   0.000   8.859   0.023  -0.000
 -0.213   0.377  -0.334  12.081  -0.000   0.015 *******   0.000
 -0.000   0.000  -0.000  -0.000  12.152  -0.000   0.000 *******
 -0.132   0.234  -0.208   0.015  -0.000  12.068  -0.014   0.000
 -0.004   0.006  -0.023  -0.003   0.000  -0.009   0.056  -0.000
  0.000  -0.000   0.000  -0.000  -0.009   0.000   0.000   0.109
 -0.013   0.020  -0.057   0.006  -0.000   0.003  -0.071   0.000
  0.000  -0.000   0.000   0.000  -0.005  -0.000  -0.000   0.067
  0.002  -0.003   0.011   0.010   0.000  -0.009  -0.118  -0.000
 -0.005   0.008  -0.037  -0.010   0.000  -0.026   0.093  -0.000
  0.000  -0.000   0.000  -0.000  -0.025   0.000   0.000   0.176
 -0.016   0.027  -0.092   0.017  -0.000   0.010  -0.113   0.000
  0.000  -0.000   0.000   0.000  -0.015  -0.000  -0.000   0.109
  0.002  -0.004   0.017   0.028   0.000  -0.023  -0.189  -0.000
 total augmentation occupancy for first ion, spin component:           1
  1.962   0.051  -0.000  -0.090  -0.000  -0.060   0.014   0.000   0.008   0.002   0.000   0.001  -0.025   0.000  -0.047  -0.000
  0.051   0.004   0.000   0.048   0.000   0.030   0.002   0.000   0.001   0.000   0.000   0.000  -0.000   0.000  -0.004   0.000
 -0.000   0.000   0.000   0.000   0.000   0.000   0.000   0.000   0.000   0.000   0.000   0.000   0.000   0.000  -0.000   0.000
 -0.090   0.048   0.000   1.502  -0.000   0.072   0.044   0.000  -0.006   0.009   0.000  -0.001  -0.026   0.000  -0.063  -0.000
 -0.000   0.000   0.000  -0.000   1.800  -0.000   0.000   0.019   0.000   0.000   0.004   0.000  -0.000   0.037   0.000   0.023
 -0.060   0.030   0.000   0.072  -0.000   1.422  -0.006   0.000   0.049  -0.001   0.000   0.010   0.062  -0.000  -0.038   0.000
  0.014   0.002   0.000   0.044   0.000  -0.006   0.001   0.000  -0.000   0.000   0.000  -0.000  -0.001   0.000  -0.002  -0.000
  0.000   0.000   0.000   0.000   0.019   0.000   0.000   0.000  -0.000   0.000   0.000  -0.000  -0.000   0.000  -0.000   0.000
  0.008   0.001   0.000  -0.006   0.000   0.049  -0.000  -0.000   0.002  -0.000  -0.000   0.000   0.002  -0.000  -0.001   0.000
  0.002   0.000   0.000   0.009   0.000  -0.001   0.000   0.000  -0.000   0.000   0.000  -0.000  -0.000   0.000  -0.000  -0.000
  0.000   0.000   0.000   0.000   0.004   0.000   0.000   0.000  -0.000   0.000   0.000  -0.000  -0.000   0.000  -0.000   0.000
  0.001   0.000   0.000  -0.001   0.000   0.010  -0.000  -0.000   0.000  -0.000  -0.000   0.000   0.000  -0.000  -0.000   0.000
 -0.025  -0.000   0.000  -0.026  -0.000   0.062  -0.001  -0.000   0.002  -0.000  -0.000   0.000   0.004  -0.000   0.000   0.000
  0.000   0.000   0.000   0.000   0.037  -0.000   0.000   0.000  -0.000   0.000   0.000  -0.000  -0.000   0.001  -0.000   0.000
 -0.047  -0.004  -0.000  -0.063   0.000  -0.038  -0.002  -0.000  -0.001  -0.000  -0.000  -0.000   0.000  -0.000   0.005  -0.000
 -0.000   0.000   0.000  -0.000   0.023   0.000  -0.000   0.000   0.000  -0.000   0.000   0.000   0.000   0.000  -0.000   0.000
  0.010  -0.000  -0.000  -0.080  -0.000   0.112  -0.003  -0.000   0.004  -0.001  -0.000   0.001   0.006  -0.000   0.000   0.000
  0.007   0.000   0.000   0.014   0.000  -0.016   0.001   0.000  -0.001   0.000   0.000  -0.000  -0.001   0.000  -0.000  -0.000
 -0.000  -0.000  -0.000  -0.000  -0.005   0.000  -0.000  -0.000   0.000  -0.000  -0.000   0.000   0.000  -0.000   0.000  -0.000
  0.016   0.001   0.000   0.019   0.000   0.012   0.001   0.000   0.000   0.000   0.000   0.000  -0.000   0.000  -0.002   0.000
  0.000  -0.000  -0.000   0.000  -0.003  -0.000   0.000  -0.000  -0.000   0.000  -0.000  -0.000  -0.000  -0.000   0.000  -0.000
 -0.003  -0.000  -0.000   0.023   0.000  -0.038   0.001   0.000  -0.001   0.000   0.000  -0.000  -0.002   0.000   0.000  -0.000


------------------------ aborting loop because EDIFF is reached ----------------------------------------


    CHARGE:  cpu time    4.0929: real time    4.1043
    FORLOC:  cpu time    2.6894: real time    2.6965
    FORNL :  cpu time    0.8999: real time    0.9024
    STRESS:  cpu time    6.6487: real time    6.6669
    FORCOR:  cpu time   41.8004: real time   41.9142
    FORHAR:  cpu time   12.0969: real time   12.1298
    MIXING:  cpu time    3.0422: real time    3.0505
    OFIELD:  cpu time    0.0000: real time    0.0000

  FORCE on cell =-STRESS in cart. coord.  units (eV):
  Direction    XX          YY          ZZ          XY          YZ          ZX
  --------------------------------------------------------------------------------------
  Alpha Z     0.00507     0.00507     0.00507
  Ewald      92.44918    71.35283   -12.45631   -23.46375     0.06072     0.00027
  Hartree   188.85409   184.98889   170.21067    -3.93943     0.01074     0.00023
  E(xc)     -36.72407   -36.81581   -37.22387    -0.09482     0.00030     0.00001
  Local    -383.84831  -364.98278  -294.01175    20.27068    -0.05134    -0.00009
  n-local   -45.99855   -47.39479   -51.32570    -1.24458     0.00282    -0.00003
  augment     1.50585     1.64960     2.28498     0.14784    -0.00047    -0.00002
  Kinetic   183.78358   191.66630   222.51428     8.09104    -0.02245    -0.00055
  Fock        0.00000     0.00000     0.00000     0.00000     0.00000     0.00000
  -------------------------------------------------------------------------------------
  Total       0.02683     0.46931    -0.00265    -0.23303     0.00032    -0.00017
  in kB       0.00100     0.01754    -0.00010    -0.00871     0.00001    -0.00001
  external pressure =        0.01 kB  Pullay stress =        0.00 kB


 VOLUME and BASIS-vectors are now :
 -----------------------------------------------------------------------------
  energy-cutoff  :     2000.00
  volume of cell :    42875.00
      direct lattice vectors                 reciprocal lattice vectors
    35.000000000  0.000000000  0.000000000     0.028571429  0.000000000  0.000000000
     0.000000000 35.000000000  0.000000000     0.000000000  0.028571429  0.000000000
     0.000000000  0.000000000 35.000000000     0.000000000  0.000000000  0.028571429

  length of vectors
    35.000000000 35.000000000 35.000000000     0.028571429  0.028571429  0.028571429


 FORCES acting on ions
    electron-ion (+dipol)            ewald-force                    non-local-force                 convergence-correction
 -----------------------------------------------------------------------------------------------
   0.303E+02 0.500E+02 0.440E-01   -.599E+02 -.982E+02 -.865E-01   0.299E+02 0.477E+02 0.422E-01   0.144E-05 0.112E-04 0.264E-06
   0.332E+02 -.834E+02 -.587E-01   -.366E+02 0.921E+02 0.648E-01   0.315E+01 -.813E+01 -.574E-02   -.219E-06 0.191E-05 -.179E-08
   -.883E+02 -.558E+01 -.198E-01   0.965E+02 0.611E+01 0.217E-01   -.830E+01 -.590E+00 -.192E-02   0.193E-05 0.813E-06 -.724E-09
 -----------------------------------------------------------------------------------------------
   -.247E+02 -.390E+02 -.345E-01   0.000E+00 0.000E+00 0.347E-17   0.247E+02 0.390E+02 0.345E-01   0.314E-05 0.139E-04 0.262E-06
 
 
 POSITION                                       TOTAL-FORCE (eV/Angst)
 -----------------------------------------------------------------------------------
     34.44717     34.89830     34.99950         0.304920     -0.463598     -0.000299
     34.12824      0.80179      0.00014        -0.252062      0.529819      0.000362
      0.41266     34.99817     34.99975        -0.052858     -0.066221     -0.000063
 -----------------------------------------------------------------------------------
    total drift:                                0.000040     -0.000012      0.000008


--------------------------------------------------------------------------------------------------------



  FREE ENERGIE OF THE ION-ELECTRON SYSTEM (eV)
  ---------------------------------------------------
  free  energy   TOTEN  =       -14.28790886 eV

  energy  without entropy=      -14.28790886  energy(sigma->0) =      -14.28790886
 


--------------------------------------------------------------------------------------------------------


    POTLOK:  cpu time   42.8888: real time   43.0055


--------------------------------------------------------------------------------------------------------


 writing wavefunctions
     LOOP+:  cpu time 2343.2455: real time 2349.8403
    4ORBIT:  cpu time    0.0000: real time    0.0000

 total amount of memory used by VASP on root node  8985664. kBytes
========================================================================

   base      :      30000. kBytes
   nonl-proj :     145124. kBytes
   fftplans  :    3255861. kBytes
   grid      :    5508227. kBytes
   one-center:         11. kBytes
   wavefun   :      46441. kBytes
 
  
  
 General timing and accounting informations for this job:
 ========================================================
  
                  Total CPU time used (sec):     3346.648
                            User time (sec):     2998.390
                          System time (sec):      348.257
                         Elapsed time (sec):     3355.966
  
                   Maximum memory used (kb):    14151824.
                   Average memory used (kb):           0.
  
                          Minor page faults:      9343443
                          Major page faults:            7
                 Voluntary context switches:          678
 
 PROFILE, used timers:      13
 =============================
 
 index                 routine                    time                            calls level
----------------------------------------------------------------------------------------------
    1    total_time                         3355.967305                                1   1
    2      w1_copy                               4.064153                           2672   2
    3      fftwav_mpi                          174.905029                            992   2
    4      fftext_mpi                            0.899731                              8   2
    5      overl                                 0.001574                           1553   2
    6      orth1                                 3.909334                            306   2
    7      lincom                                0.005985                              1   2
    8      eccp                                  5.893791                            224   2
    9      hamiltmu                            173.615140                            111   2
   10        vhamil                               39.471931                          888   3
   11        overl1                                0.001291                          888   3
   12        kinhamil                            101.180522                          888   3
   13          fftext_mpi                           99.974609                        888   4
 
 Flat profile
 ============
 
             routine name                   CPU           calls
 ---------------------------------------------------------------
 total_time                           2992.672568           1
 fftwav_mpi                            174.905029         992
 fftext_mpi                            100.874340         896
 vhamil                                 39.471931         888
 hamiltmu                               32.961396         111
 eccp                                    5.893791         224
 w1_copy                                 4.064153        2672
 orth1                                   3.909334         306
 kinhamil                                1.205913         888
 lincom                                  0.005985           1
 overl                                   0.001574        1553
 overl1                                  0.001291         888
 ---------------------------------------------------------------
  summed up times    3355.96730494499     
 
Profiling took   0.006640  0.004930  0.003367  0.003363 seconds
Profiling took   0.004179 seconds
