 vasp.5.4.1 24Jun15 (build Jan 02 2020 16:21:29) gamma-only                     
  
 executed on           IFC15_impi date 2020.07.01  16:32:36
 running on   48 total cores
 distrk:  each k-point on   48 cores,    1 groups
 distr:  one band on NCORES_PER_BAND=   8 cores,    6 groups


--------------------------------------------------------------------------------------------------------


 INCAR:
 POTCAR:    PAW_PBE N_h_GW 03Jul2013              
 POTCAR:    PAW_PBE O_h_GW 22May2013              
 POTCAR:    PAW_PBE H_h_GW 21Apr2008              
 POTCAR:    PAW_PBE C_h_GW 23May2013              
 POTCAR:    PAW_PBE N_h_GW 03Jul2013              
   VRHFIN =N: s2p3                                                              
   LEXCH  = PE                                                                  
   EATOM  =   264.5486 eV,   19.4438 Ry                                         
                                                                                
   TITEL  = PAW_PBE N_h_GW 03Jul2013                                            
   LULTRA =        F    use ultrasoft PP ?                                      
   IUNSCR =        1    unscreen: 0-lin 1-nonlin 2-no                           
   RPACOR =    0.800    partial core radius                                     
   POMASS =   14.001; ZVAL   =    5.000    mass and valenz                      
   RCORE  =    1.100    outmost cutoff radius                                   
   RWIGS  =    1.200; RWIGS  =    0.635    wigner-seitz radius (au A)           
   ENMAX  =  755.582; ENMIN  =  566.687 eV                                      
   RCLOC  =    0.901    cutoff for local pot                                    
   LCOR   =        T    correct aug charges                                     
   LPAW   =        T    paw PP                                                  
   EAUG   = 1692.969                                                            
   DEXC   =    0.000                                                            
   RMAX   =    1.127    core radius for proj-oper                               
   RAUG   =    1.300    factor for augmentation sphere                          
   RDEP   =    1.115    radius for radial grids                                 
   RDEPT  =    1.000    core radius for aug-charge                              
                                                                                
   Atomic configuration                                                         
    5 entries                                                                   
     n  l   j            E        occ.                                          
     1  0  0.50      -384.7179   2.0000                                         
     2  0  0.50       -18.5828   2.0000                                         
     2  1  0.50        -7.0898   3.0000                                         
     3  2  1.50        -8.1635   0.0000                                         
     4  3  2.50        -8.1635   0.0000                                         
   Description                                                                  
     l       E           TYP  RCUT    TYP  RCUT                                 
     0    -18.5828120     23  0.900                                             
     0     54.4233040     23  0.900                                             
     0    340.1456500     23  0.900                                             
     1     -7.0897854     23  1.100                                             
     1    176.8757380     23  1.100                                             
     1    380.9631280     23  1.100                                             
     2     81.6349560     23  1.100                                             
     2    204.0873900     23  1.100                                             
  local pseudopotential read in
  partial core-charges read in
  partial kinetic energy density read in
  kinetic energy density of atom read in
  atomic valenz-charges read in
  non local Contribution for L=           0  read in
    real space projection operators read in
  non local Contribution for L=           0  read in
    real space projection operators read in
  non local Contribution for L=           0  read in
    real space projection operators read in
  non local Contribution for L=           1  read in
    real space projection operators read in
  non local Contribution for L=           1  read in
    real space projection operators read in
  non local Contribution for L=           1  read in
    real space projection operators read in
  non local Contribution for L=           2  read in
    real space projection operators read in
  non local Contribution for L=           2  read in
    real space projection operators read in
    PAW grid and wavefunctions read in
 
   number of l-projection  operators is LMAX  =           8
   number of lm-projection operators is LMMAX =          22
 
 POTCAR:    PAW_PBE O_h_GW 22May2013              
   VRHFIN =O: s2p4                                                              
   LEXCH  = PE                                                                  
   EATOM  =   432.3788 eV,   31.7789 Ry                                         
                                                                                
   TITEL  = PAW_PBE O_h_GW 22May2013                                            
   LULTRA =        F    use ultrasoft PP ?                                      
   IUNSCR =        1    unscreen: 0-lin 1-nonlin 2-no                           
   RPACOR =    0.800    partial core radius                                     
   POMASS =   16.000; ZVAL   =    6.000    mass and valenz                      
   RCORE  =    1.100    outmost cutoff radius                                   
   RWIGS  =    1.200; RWIGS  =    0.635    wigner-seitz radius (au A)           
   ENMAX  =  765.519; ENMIN  =  574.139 eV                                      
   RCLOC  =    0.907    cutoff for local pot                                    
   LCOR   =        T    correct aug charges                                     
   LPAW   =        T    paw PP                                                  
   EAUG   = 1673.112                                                            
   DEXC   =    0.000                                                            
   RMAX   =    1.128    core radius for proj-oper                               
   RAUG   =    1.300    factor for augmentation sphere                          
   RDEP   =    1.125    radius for radial grids                                 
   RDEPT  =    1.000    core radius for aug-charge                              
                                                                                
   Atomic configuration                                                         
    5 entries                                                                   
     n  l   j            E        occ.                                          
     1  0  0.50      -514.6923   2.0000                                         
     2  0  0.50       -23.9615   2.0000                                         
     2  1  0.50        -9.0305   4.0000                                         
     3  2  1.50        -9.5241   0.0000                                         
     4  3  2.50        -9.5241   0.0000                                         
   Description                                                                  
     l       E           TYP  RCUT    TYP  RCUT                                 
     0    -23.9615316     23  1.000                                             
     0     40.8174780     23  1.000                                             
     0    544.2330400     23  1.000                                             
     1     -9.0304908     23  1.100                                             
     1    163.2699120     23  1.100                                             
     1    435.3864320     23  1.100                                             
     2     81.6349560     23  1.100                                             
     2    163.2699120     23  1.100                                             
  local pseudopotential read in
  partial core-charges read in
  partial kinetic energy density read in
  kinetic energy density of atom read in
  atomic valenz-charges read in
  non local Contribution for L=           0  read in
    real space projection operators read in
  non local Contribution for L=           0  read in
    real space projection operators read in
  non local Contribution for L=           0  read in
    real space projection operators read in
  non local Contribution for L=           1  read in
    real space projection operators read in
  non local Contribution for L=           1  read in
    real space projection operators read in
  non local Contribution for L=           1  read in
    real space projection operators read in
  non local Contribution for L=           2  read in
    real space projection operators read in
  non local Contribution for L=           2  read in
    real space projection operators read in
    PAW grid and wavefunctions read in
 
   number of l-projection  operators is LMAX  =           8
   number of lm-projection operators is LMMAX =          22
 
 POTCAR:    PAW_PBE H_h_GW 21Apr2008              
   VRHFIN =H: ultrasoft test                                                    
   LEXCH  = PE                                                                  
   EATOM  =    12.4884 eV,    0.9179 Ry                                         
                                                                                
   TITEL  = PAW_PBE H_h_GW 21Apr2008                                            
   LULTRA =        F    use ultrasoft PP ?                                      
   IUNSCR =        0    unscreen: 0-lin 1-nonlin 2-no                           
   RPACOR =    0.000    partial core radius                                     
   POMASS =    1.000; ZVAL   =    1.000    mass and valenz                      
   RCORE  =    0.800    outmost cutoff radius                                   
   RWIGS  =    1.100; RWIGS  =    0.582    wigner-seitz radius (au A)           
   ENMAX  =  700.000; ENMIN  =  350.000 eV                                      
   RCLOC  =    0.701    cutoff for local pot                                    
   LCOR   =        T    correct aug charges                                     
   LPAW   =        T    paw PP                                                  
   EAUG   = 1000.000                                                            
   RMAX   =    0.819    core radius for proj-oper                               
   RAUG   =    1.000    factor for augmentation sphere                          
   RDEP   =    0.817    radius for radial grids                                 
   RDEPT  =    1.000    core radius for aug-charge                              
                                                                                
   Atomic configuration                                                         
    3 entries                                                                   
     n  l   j            E        occ.                                          
     1  0  0.50        -6.4927   1.0000                                         
     2  1  0.50        -3.4015   0.0000                                         
     3  2  1.50        13.6058   0.0000                                         
   Description                                                                  
     l       E           TYP  RCUT    TYP  RCUT                                 
     0     -6.4927495     23  0.800                                             
     0      6.8029130     23  0.800                                             
     1     -4.0817478     23  0.800                                             
     1    108.8466080     23  0.800                                             
     2     81.6349560     23  0.800                                             
  local pseudopotential read in
  kinetic energy density of atom read in
  atomic valenz-charges read in
  non local Contribution for L=           0  read in
    real space projection operators read in
  non local Contribution for L=           0  read in
    real space projection operators read in
  non local Contribution for L=           1  read in
    real space projection operators read in
  non local Contribution for L=           1  read in
    real space projection operators read in
  non local Contribution for L=           2  read in
    real space projection operators read in
    PAW grid and wavefunctions read in
 
   number of l-projection  operators is LMAX  =           5
   number of lm-projection operators is LMMAX =          13
 
 POTCAR:    PAW_PBE C_h_GW 23May2013              
   VRHFIN =C: s2p2                                                              
   LEXCH  = PE                                                                  
   EATOM  =   147.1560 eV,   10.8157 Ry                                         
                                                                                
   TITEL  = PAW_PBE C_h_GW 23May2013                                            
   LULTRA =        F    use ultrasoft PP ?                                      
   IUNSCR =        1    unscreen: 0-lin 1-nonlin 2-no                           
   RPACOR =    0.800    partial core radius                                     
   POMASS =   12.011; ZVAL   =    4.000    mass and valenz                      
   RCORE  =    1.100    outmost cutoff radius                                   
   RWIGS  =    1.200; RWIGS  =    0.635    wigner-seitz radius (au A)           
   ENMAX  =  741.689; ENMIN  =  556.267 eV                                      
   RCLOC  =    0.804    cutoff for local pot                                    
   LCOR   =        T    correct aug charges                                     
   LPAW   =        T    paw PP                                                  
   EAUG   = 1782.225                                                            
   DEXC   =    0.000                                                            
   RMAX   =    1.128    core radius for proj-oper                               
   RAUG   =    1.300    factor for augmentation sphere                          
   RDEP   =    1.162    radius for radial grids                                 
   RDEPT  =    1.000    core radius for aug-charge                              
                                                                                
   Atomic configuration                                                         
    5 entries                                                                   
     n  l   j            E        occ.                                          
     1  0  0.50      -273.3789   2.0000                                         
     2  0  0.50       -13.7508   2.0000                                         
     2  1  0.50        -5.2854   2.0000                                         
     3  2  1.50        -5.4423   0.0000                                         
     4  3  2.50        -5.4423   0.0000                                         
   Description                                                                  
     l       E           TYP  RCUT    TYP  RCUT                                 
     0    -13.7508457     23  1.000                                             
     0     81.6349560     23  1.000                                             
     0    204.0873900     23  1.000                                             
     1     -5.2854382     23  1.100                                             
     1    204.0873900     23  1.100                                             
     1    380.9631280     23  1.100                                             
     2     81.6349560     23  1.100                                             
     2    204.0873900     23  1.100                                             
  local pseudopotential read in
  partial core-charges read in
  partial kinetic energy density read in
  kinetic energy density of atom read in
  atomic valenz-charges read in
  non local Contribution for L=           0  read in
    real space projection operators read in
  non local Contribution for L=           0  read in
    real space projection operators read in
  non local Contribution for L=           0  read in
    real space projection operators read in
  non local Contribution for L=           1  read in
    real space projection operators read in
  non local Contribution for L=           1  read in
    real space projection operators read in
  non local Contribution for L=           1  read in
    real space projection operators read in
  non local Contribution for L=           2  read in
    real space projection operators read in
  non local Contribution for L=           2  read in
    real space projection operators read in
    PAW grid and wavefunctions read in
 
   number of l-projection  operators is LMAX  =           8
   number of lm-projection operators is LMMAX =          22
 
  PAW_PBE N_h_GW 03Jul2013              :
 energy of atom  1       EATOM= -264.5486
 kinetic energy error for atom=    0.0015 (will be added to EATOM!!)
  PAW_PBE O_h_GW 22May2013              :
 energy of atom  2       EATOM= -432.3788
 kinetic energy error for atom=    0.0017 (will be added to EATOM!!)
  PAW_PBE H_h_GW 21Apr2008              :
 energy of atom  3       EATOM=  -12.4884
 kinetic energy error for atom=    0.0001 (will be added to EATOM!!)
  PAW_PBE C_h_GW 23May2013              :
 energy of atom  4       EATOM= -147.1560
 kinetic energy error for atom=    0.0004 (will be added to EATOM!!)
 
 
 POSCAR: N O H C                                 
  positions in cartesian coordinates
  No initial velocities read in
 exchange correlation table for  LEXCH =        8
   RHO(1)=    0.500       N(1)  =     2000
   RHO(2)=  100.500       N(2)  =     4000
 


--------------------------------------------------------------------------------------------------------


 ion  position               nearest neighbor table
   1  0.981  0.000  0.991-   4 1.00   3 1.02   8 1.34
   2  0.984  0.064  0.001-   8 1.24
   3  0.010  0.997  0.991-   1 1.02
   4  0.964  0.977  0.987-   1 1.00
   5  0.912  0.047  0.023-   9 1.09
   6  0.909  0.009  0.990-   9 1.09
   7  0.913  0.056  0.974-   9 1.09
   8  0.965  0.035  0.996-   2 1.24   1 1.34   9 1.51
   9  0.922  0.036  0.996-   6 1.09   7 1.09   5 1.09   8 1.51
 
  LATTYP: Found a simple cubic cell.
 ALAT       =    35.0000000000
  
  Lattice vectors:
  
 A1 = (  35.0000000000,   0.0000000000,   0.0000000000)
 A2 = (   0.0000000000,  35.0000000000,   0.0000000000)
 A3 = (   0.0000000000,   0.0000000000,  35.0000000000)


Analysis of symmetry for initial positions (statically):
=====================================================================
 Subroutine PRICEL returns:
 Original cell was already a primitive cell.
 

 Routine SETGRP: Setting up the symmetry group for a 
 simple cubic supercell.


 Subroutine GETGRP returns: Found  1 space group operations
 (whereof  1 operations were pure point group operations)
 out of a pool of 48 trial point group operations.


The static configuration has the point symmetry C_1 .


Analysis of symmetry for dynamics (positions and initial velocities):
=====================================================================
 Subroutine PRICEL returns:
 Original cell was already a primitive cell.
 

 Routine SETGRP: Setting up the symmetry group for a 
 simple cubic supercell.


 Subroutine GETGRP returns: Found  1 space group operations
 (whereof  1 operations were pure point group operations)
 out of a pool of 48 trial point group operations.


The dynamic configuration has the point symmetry C_1 .
 
 
 KPOINTS: automatic mesh                          

Automatic generation of k-mesh.
Space group operators:
 irot       det(A)        alpha          n_x          n_y          n_z        tau_x        tau_y        tau_z
    1     1.000000     0.000000     1.000000     0.000000     0.000000     0.000000     0.000000     0.000000
 
 Subroutine IBZKPT returns following result:
 ===========================================
 
 Found      1 irreducible k-points:
 
 Following reciprocal coordinates:
            Coordinates               Weight
  0.000000  0.000000  0.000000      1.000000
 
 Following cartesian coordinates:
            Coordinates               Weight
  0.000000  0.000000  0.000000      1.000000
 


--------------------------------------------------------------------------------------------------------




 Dimension of arrays:
   k-points           NKPTS =      1   k-points in BZ     NKDIM =      1   number of bands    NBANDS=     18
   number of dos      NEDOS =    301   number of ions     NIONS =      9
   non local maximal  LDIM  =      8   non local SUM 2l+1 LMDIM =     22
   total plane-waves  NPLWV = ******
   max r-space proj   IRMAX =      1   max aug-charges    IRDMAX=  19040
   dimension x,y,z NGX =   512 NGY =  512 NGZ =  512
   dimension x,y,z NGXF=  1024 NGYF= 1024 NGZF= 1024
   support grid    NGXF=  1024 NGYF= 1024 NGZF= 1024
   ions per type =               1   1   5   2
 NGX,Y,Z   is equivalent  to a cutoff of  24.32, 24.32, 24.32 a.u.
 NGXF,Y,Z  is equivalent  to a cutoff of  48.64, 48.64, 48.64 a.u.


 I would recommend the setting:
   dimension x,y,z NGX =   511 NGY =  511 NGZ =  511
 SYSTEM =  C                                       
 POSCAR =  N O H C                                 

 Startparameter for this run:
   NWRITE =      2    write-flag & timer
   PREC   = acc       normal or accurate (medium, high low for compatibility)
   ISTART =      0    job   : 0-new  1-cont  2-samecut
   ICHARG =      2    charge: 1-file 2-atom 10-const
   ISPIN  =      1    spin polarized calculation?
   LNONCOLLINEAR =      F non collinear calculations
   LSORBIT =      F    spin-orbit coupling
   INIWAV =      1    electr: 0-lowe 1-rand  2-diag
   LASPH  =      T    aspherical Exc in radial PAW
   METAGGA=      F    non-selfconsistent MetaGGA calc.

 Electronic Relaxation 1
   ENCUT  = 2000.0 eV 147.00 Ry   12.12 a.u. 127.63127.63127.63*2*pi/ulx,y,z
   ENINI  = 2000.0     initial cutoff
   ENAUG  = 1782.2 eV  augmentation charge cutoff
   NELM   =     60;   NELMIN=  2; NELMDL= -5     # of ELM steps 
   EDIFF  = 0.1E-06   stopping-criterion for ELM
   LREAL  =      F    real-space projection
   NLSPLINE    = F    spline interpolate recip. space projectors
   LCOMPAT=      F    compatible to vasp.4.4
   GGA_COMPAT  = T    GGA compatible to vasp.4.4-vasp.4.6
   LMAXPAW     = -100 max onsite density
   LMAXMIX     =    2 max onsite mixed and CHGCAR
   VOSKOWN=      0    Vosko Wilk Nusair interpolation
   ROPT   =    0.00000   0.00000   0.00000   0.00000
 Ionic relaxation
   EDIFFG = 0.1E-05   stopping-criterion for IOM
   NSW    =      0    number of steps for IOM
   NBLOCK =      1;   KBLOCK =      1    inner block; outer block 
   IBRION =     -1    ionic relax: 0-MD 1-quasi-New 2-CG
   NFREE  =      0    steps in history (QN), initial steepest desc. (CG)
   ISIF   =      2    stress and relaxation
   IWAVPR =     10    prediction:  0-non 1-charg 2-wave 3-comb
   ISYM   =      2    0-nonsym 1-usesym 2-fastsym
   LCORR  =      T    Harris-Foulkes like correction to forces

   POTIM  = 0.5000    time-step for ionic-motion
   TEIN   =    0.0    initial temperature
   TEBEG  =    0.0;   TEEND  =   0.0 temperature during run
   SMASS  =  -3.00    Nose mass-parameter (am)
   estimated Nose-frequenzy (Omega)   =  0.10E-29 period in steps =****** mass=  -0.280E-25a.u.
   SCALEE = 1.0000    scale energy and forces
   NPACO  =    256;   APACO  = 16.0  distance and # of slots for P.C.
   PSTRESS=    0.0 pullay stress

  Mass of Ions in am
   POMASS =  14.00 16.00  1.00 12.01
  Ionic Valenz
   ZVAL   =   5.00  6.00  1.00  4.00
  Atomic Wigner-Seitz radii
   RWIGS  =  -1.00 -1.00 -1.00 -1.00
  virtual crystal weights 
   VCA    =   1.00  1.00  1.00  1.00
   NELECT =      24.0000    total number of electrons
   NUPDOWN=      -1.0000    fix difference up-down

 DOS related values:
   EMIN   =  10.00;   EMAX   =-10.00  energy-range for DOS
   EFERMI =   0.00
   ISMEAR =     0;   SIGMA  =   0.01  broadening in eV -4-tet -1-fermi 0-gaus

 Electronic relaxation 2 (details)
   IALGO  =     38    algorithm
   LDIAG  =      T    sub-space diagonalisation (order eigenvalues)
   LSUBROT=      F    optimize rotation matrix (better conditioning)
   TURBO    =      0    0=normal 1=particle mesh
   IRESTART =      0    0=no restart 2=restart with 2 vectors
   NREBOOT  =      0    no. of reboots
   NMIN     =      0    reboot dimension
   EREF     =   0.00    reference energy to select bands
   IMIX   =      4    mixing-type and parameters
     AMIX     =   0.40;   BMIX     =  1.00
     AMIX_MAG =   1.60;   BMIX_MAG =  1.00
     AMIN     =   0.10
     WC   =   100.;   INIMIX=   1;  MIXPRE=   1;  MAXMIX= -45

 Intra band minimization:
   WEIMIN = 0.0000     energy-eigenvalue tresh-hold
   EBREAK =  0.14E-08  absolut break condition
   DEPER  =   0.30     relativ break condition  

   TIME   =   0.40     timestep for ELM

  volume/ion in A,a.u.               =    4763.89     32148.31
  Fermi-wavevector in a.u.,A,eV,Ry     =   0.134920  0.254962  0.247673  0.018203
  Thomas-Fermi vector in A             =   0.783236
 
 Write flags
   LWAVE  =      T    write WAVECAR
   LCHARG =      T    write CHGCAR
   LVTOT  =      F    write LOCPOT, total local potential
   LVHAR  =      F    write LOCPOT, Hartree potential only
   LELF   =      F    write electronic localiz. function (ELF)
   LORBIT =      0    0 simple, 1 ext, 2 COOP (PROOUT)


 Dipole corrections
   LMONO  =      F    monopole corrections only (constant potential shift)
   LDIPOL =      F    correct potential (dipole corrections)
   IDIPOL =      0    1-x, 2-y, 3-z, 4-all directions 
   EPSILON=  1.0000000 bulk dielectric constant

 Exchange correlation treatment:
   GGA     =    --    GGA type
   LEXCH   =     8    internal setting for exchange type
   VOSKOWN=      0    Vosko Wilk Nusair interpolation
   LHFCALC =     F    Hartree Fock is set to
   LHFONE  =     F    Hartree Fock one center treatment
   AEXX    =    0.0000 exact exchange contribution

 Linear response parameters
   LEPSILON=     F    determine dielectric tensor
   LRPA    =     F    only Hartree local field effects (RPA)
   LNABLA  =     F    use nabla operator in PAW spheres
   LVEL    =     F    velocity operator in full k-point grid
   LINTERFAST=   F  fast interpolation
   KINTER  =     0    interpolate to denser k-point grid
   CSHIFT  =0.1000    complex shift for real part using Kramers Kronig
   OMEGAMAX=  -1.0    maximum frequency
   DEG_THRESHOLD= 0.2000000E-02 threshold for treating states as degnerate
   RTIME   =    0.100 relaxation time in fs

 Orbital magnetization related:
   ORBITALMAG=     F  switch on orbital magnetization
   LCHIMAG   =     F  perturbation theory with respect to B field
   DQ        =  0.001000  dq finite difference perturbation B field



--------------------------------------------------------------------------------------------------------


 Static calculation
 charge density and potential will be updated during run
 non-spin polarized calculation
 Variant of blocked Davidson
 Davidson routine will perform the subspace rotation
 perform sub-space diagonalisation
    after iterative eigenvector-optimisation
 modified Broyden-mixing scheme, WC =      100.0
 initial mixing is a Kerker type mixing with AMIX =  0.4000 and BMIX =      1.0000
 Hartree-type preconditioning will be used
 using additional bands            6
 reciprocal scheme for non local part
 use partial core corrections
 calculate Harris-corrections to forces 
   (improved forces if not selfconsistent)
 use gradient corrections 
 use of overlap-Matrix (Vanderbilt PP)
 Gauss-broadening in eV      SIGMA  =   0.01


--------------------------------------------------------------------------------------------------------


  energy-cutoff  :     2000.00
  volume of cell :    42875.00
      direct lattice vectors                 reciprocal lattice vectors
    35.000000000  0.000000000  0.000000000     0.028571429  0.000000000  0.000000000
     0.000000000 35.000000000  0.000000000     0.000000000  0.028571429  0.000000000
     0.000000000  0.000000000 35.000000000     0.000000000  0.000000000  0.028571429

  length of vectors
    35.000000000 35.000000000 35.000000000     0.028571429  0.028571429  0.028571429


 
 k-points in units of 2pi/SCALE and weight: automatic mesh                          
   0.00000000  0.00000000  0.00000000       1.000
 
 k-points in reciprocal lattice and weights: automatic mesh                          
   0.00000000  0.00000000  0.00000000       1.000
 
 position of ions in fractional coordinates (direct lattice) 
   0.98084056  0.00011111  0.99102053
   0.98367781  0.06405759  0.00073191
   0.00982420  0.99741257  0.99119067
   0.96445104  0.97696218  0.98723764
   0.91205785  0.04704586  0.02298576
   0.90851100  0.00865330  0.99010825
   0.91285750  0.05644259  0.97375436
   0.96477923  0.03461826  0.99595360
   0.92176443  0.03619308  0.99554610
 
 position of ions in cartesian coordinates  (Angst):
  34.32941949  0.00388878 34.68571853
  34.42872333  2.24201573  0.02561679
   0.34384695 34.90943990 34.69167333
  33.75578627 34.19367630 34.55331729
  31.92202466  1.64660511  0.80450159
  31.79788497  0.30286549 34.65378888
  31.95001253  1.97549049 34.08140263
  33.76727300  1.21163896 34.85837594
  32.26175504  1.26675766 34.84411343
 


--------------------------------------------------------------------------------------------------------


 use parallel FFT for wavefunctions z direction half grid
 k-point  1 :   0.0000 0.0000 0.0000  plane waves: 4353902

 maximum and minimum number of plane-waves per node :    544247   544233

 maximum number of plane-waves:   4353902
 maximum index in each direction: 
   IXMAX=  127   IYMAX=  127   IZMAX=  127
   IXMIN= -127   IYMIN= -127   IZMIN=    0

 NGX is ok and might be reduce to 510
 NGY is ok and might be reduce to 510
 NGZ is ok and might be reduce to 510

 parallel 3D FFT for wavefunctions:
    minimum data exchange during FFTs selected (reduces bandwidth)
 parallel 3D FFT for charge:
    minimum data exchange during FFTs selected (reduces bandwidth)


 total amount of memory used by VASP on root node  3970605. kBytes
========================================================================

   base      :      30000. kBytes
   nonl-proj :     461512. kBytes
   fftplans  :    1117866. kBytes
   grid      :    2335080. kBytes
   one-center:         23. kBytes
   wavefun   :      26124. kBytes
 
     INWAV:  cpu time    0.0000: real time    0.0000
 Broyden mixing: mesh for mixing (old mesh)
   NGX =255   NGY =255   NGZ =255
  (NGX  =***   NGY  =***   NGZ  =***)
  gives a total of ****** points

 initial charge density was supplied:
 charge density of overlapping atoms calculated
 number of electron      24.0000000 magnetization 
 keeping initial charge density in first step


--------------------------------------------------------------------------------------------------------


 Maximum index for augmentation-charges          836 (set IRDMAX)


--------------------------------------------------------------------------------------------------------


 First call to EWALD:  gamma=   0.051
 Maximum number of real-space cells 3x 3x 3
 Maximum number of reciprocal cells 3x 3x 3

 FEWALD executed in parallel
    FEWALD:  cpu time    0.0024: real time    0.0024


----------------------------------------- Iteration    1(   1)  ---------------------------------------


    POTLOK:  cpu time   12.8703: real time   12.9073
    SETDIJ:  cpu time    0.1389: real time    0.1393
     EDDAV:  cpu time    7.7793: real time    7.8012
       DOS:  cpu time    0.0009: real time    0.0009
    --------------------------------------------
      LOOP:  cpu time   20.7923: real time   20.8546

 eigenvalue-minimisations  :    36
 total energy-change (2. order) : 0.3196450E+03  (-0.4382485E+03)
 number of electron      24.0000000 magnetization 
 augmentation part       24.0000000 magnetization 

 Free energy of the ion-electron system (eV)
  ---------------------------------------------------
  alpha Z        PSCENC =         0.04463725
  Ewald energy   TEWEN  =      1529.45039652
  -Hartree energ DENC   =     -2292.50619411
  -exchange      EXHF   =         0.00000000
  -V(xc)+E(xc)   XCENC  =        68.52146379
  PAW double counting   =       787.44622629     -776.60643290
  entropy T*S    EENTRO =        -0.00000000
  eigenvalues    EBANDS =       -50.38213463
  atomic energy  EATOM  =      1053.67706829
  Solvation  Ediel_sol  =         0.00000000
  ---------------------------------------------------
  free energy    TOTEN  =       319.64503050 eV

  energy without entropy =      319.64503050  energy(sigma->0) =      319.64503050


--------------------------------------------------------------------------------------------------------




----------------------------------------- Iteration    1(   2)  ---------------------------------------


     EDDAV:  cpu time   12.1275: real time   12.1615
       DOS:  cpu time    0.0021: real time    0.0021
    --------------------------------------------
      LOOP:  cpu time   12.1326: real time   12.1697

 eigenvalue-minimisations  :    66
 total energy-change (2. order) :-0.1715560E+03  (-0.1708421E+03)
 number of electron      24.0000000 magnetization 
 augmentation part       24.0000000 magnetization 

 Free energy of the ion-electron system (eV)
  ---------------------------------------------------
  alpha Z        PSCENC =         0.04463725
  Ewald energy   TEWEN  =      1529.45039652
  -Hartree energ DENC   =     -2292.50619411
  -exchange      EXHF   =         0.00000000
  -V(xc)+E(xc)   XCENC  =        68.52146379
  PAW double counting   =       787.44622629     -776.60643290
  entropy T*S    EENTRO =        -0.00000000
  eigenvalues    EBANDS =      -221.93808744
  atomic energy  EATOM  =      1053.67706829
  Solvation  Ediel_sol  =         0.00000000
  ---------------------------------------------------
  free energy    TOTEN  =       148.08907768 eV

  energy without entropy =      148.08907768  energy(sigma->0) =      148.08907768


--------------------------------------------------------------------------------------------------------




----------------------------------------- Iteration    1(   3)  ---------------------------------------


     EDDAV:  cpu time   13.0080: real time   13.0448
       DOS:  cpu time    0.0019: real time    0.0019
    --------------------------------------------
      LOOP:  cpu time   13.0159: real time   13.0562

 eigenvalue-minimisations  :    72
 total energy-change (2. order) :-0.1433939E+03  (-0.1426158E+03)
 number of electron      24.0000000 magnetization 
 augmentation part       24.0000000 magnetization 

 Free energy of the ion-electron system (eV)
  ---------------------------------------------------
  alpha Z        PSCENC =         0.04463725
  Ewald energy   TEWEN  =      1529.45039652
  -Hartree energ DENC   =     -2292.50619411
  -exchange      EXHF   =         0.00000000
  -V(xc)+E(xc)   XCENC  =        68.52146379
  PAW double counting   =       787.44622629     -776.60643290
  entropy T*S    EENTRO =        -0.00000000
  eigenvalues    EBANDS =      -365.33199183
  atomic energy  EATOM  =      1053.67706829
  Solvation  Ediel_sol  =         0.00000000
  ---------------------------------------------------
  free energy    TOTEN  =         4.69517330 eV

  energy without entropy =        4.69517330  energy(sigma->0) =        4.69517330


--------------------------------------------------------------------------------------------------------




----------------------------------------- Iteration    1(   4)  ---------------------------------------


     EDDAV:  cpu time   13.0152: real time   13.0517
       DOS:  cpu time    0.0014: real time    0.0014
    --------------------------------------------
      LOOP:  cpu time   13.0227: real time   13.0627

 eigenvalue-minimisations  :    72
 total energy-change (2. order) :-0.5233575E+02  (-0.5040677E+02)
 number of electron      24.0000000 magnetization 
 augmentation part       24.0000000 magnetization 

 Free energy of the ion-electron system (eV)
  ---------------------------------------------------
  alpha Z        PSCENC =         0.04463725
  Ewald energy   TEWEN  =      1529.45039652
  -Hartree energ DENC   =     -2292.50619411
  -exchange      EXHF   =         0.00000000
  -V(xc)+E(xc)   XCENC  =        68.52146379
  PAW double counting   =       787.44622629     -776.60643290
  entropy T*S    EENTRO =        -0.00000000
  eigenvalues    EBANDS =      -417.66773689
  atomic energy  EATOM  =      1053.67706829
  Solvation  Ediel_sol  =         0.00000000
  ---------------------------------------------------
  free energy    TOTEN  =       -47.64057176 eV

  energy without entropy =      -47.64057176  energy(sigma->0) =      -47.64057176


--------------------------------------------------------------------------------------------------------




----------------------------------------- Iteration    1(   5)  ---------------------------------------


     EDDAV:  cpu time   11.2340: real time   11.2658
       DOS:  cpu time    0.0013: real time    0.0013
    CHARGE:  cpu time    2.0101: real time    2.0158
    MIXING:  cpu time    0.2976: real time    0.2983
    --------------------------------------------
      LOOP:  cpu time   13.5456: real time   13.5870

 eigenvalue-minimisations  :    60
 total energy-change (2. order) :-0.1027766E+02  (-0.1024035E+02)
 number of electron      24.0000000 magnetization 
 augmentation part        0.2823992 magnetization 

 Broyden mixing:
  rms(total) = 0.12477E+01    rms(broyden)= 0.12477E+01
  rms(prec ) = 0.12906E+01
  weight for this iteration     100.00

 Free energy of the ion-electron system (eV)
  ---------------------------------------------------
  alpha Z        PSCENC =         0.04463725
  Ewald energy   TEWEN  =      1529.45039652
  -Hartree energ DENC   =     -2292.50619411
  -exchange      EXHF   =         0.00000000
  -V(xc)+E(xc)   XCENC  =        68.52146379
  PAW double counting   =       787.44622629     -776.60643290
  entropy T*S    EENTRO =        -0.00000000
  eigenvalues    EBANDS =      -427.94539642
  atomic energy  EATOM  =      1053.67706829
  Solvation  Ediel_sol  =         0.00000000
  ---------------------------------------------------
  free energy    TOTEN  =       -57.91823129 eV

  energy without entropy =      -57.91823129  energy(sigma->0) =      -57.91823129


--------------------------------------------------------------------------------------------------------




----------------------------------------- Iteration    1(   6)  ---------------------------------------


    POTLOK:  cpu time   12.7172: real time   12.7481
    SETDIJ:  cpu time    0.1392: real time    0.1395
     EDDAV:  cpu time   11.2237: real time   11.2547
       DOS:  cpu time    0.0009: real time    0.0009
    CHARGE:  cpu time    2.0088: real time    2.0137
    MIXING:  cpu time    0.3052: real time    0.3059
    --------------------------------------------
      LOOP:  cpu time   26.3975: real time   26.4685

 eigenvalue-minimisations  :    60
 total energy-change (2. order) : 0.4757968E+01  (-0.1403587E+01)
 number of electron      24.0000000 magnetization 
 augmentation part        0.2277929 magnetization 

 Broyden mixing:
  rms(total) = 0.53601E+00    rms(broyden)= 0.53601E+00
  rms(prec ) = 0.55287E+00
  weight for this iteration     100.00

 eigenvalues of (default mixing * dielectric matrix)
  average eigenvalue GAMMA=   1.2206
  1.2206

 Free energy of the ion-electron system (eV)
  ---------------------------------------------------
  alpha Z        PSCENC =         0.04463725
  Ewald energy   TEWEN  =      1529.45039652
  -Hartree energ DENC   =     -2346.50872682
  -exchange      EXHF   =         0.00000000
  -V(xc)+E(xc)   XCENC  =        71.23384621
  PAW double counting   =       982.61518681     -972.20473239
  entropy T*S    EENTRO =        -0.00000000
  eigenvalues    EBANDS =      -371.46793888
  atomic energy  EATOM  =      1053.67706829
  Solvation  Ediel_sol  =         0.00000000
  ---------------------------------------------------
  free energy    TOTEN  =       -53.16026303 eV

  energy without entropy =      -53.16026303  energy(sigma->0) =      -53.16026303


--------------------------------------------------------------------------------------------------------




----------------------------------------- Iteration    1(   7)  ---------------------------------------


    POTLOK:  cpu time   12.9564: real time   12.9879
    SETDIJ:  cpu time    0.1378: real time    0.1382
     EDDAV:  cpu time   10.4682: real time   10.4972
       DOS:  cpu time    0.0013: real time    0.0013
    CHARGE:  cpu time    1.9787: real time    1.9835
    MIXING:  cpu time    0.3144: real time    0.3151
    --------------------------------------------
      LOOP:  cpu time   25.8594: real time   25.9290

 eigenvalue-minimisations  :    54
 total energy-change (2. order) : 0.7532362E+00  (-0.1796040E+00)
 number of electron      24.0000000 magnetization 
 augmentation part        0.2204848 magnetization 

 Broyden mixing:
  rms(total) = 0.27960E+00    rms(broyden)= 0.27960E+00
  rms(prec ) = 0.28742E+00
  weight for this iteration     100.00

 eigenvalues of (default mixing * dielectric matrix)
  average eigenvalue GAMMA=   1.6450
  1.2194  2.0705

 Free energy of the ion-electron system (eV)
  ---------------------------------------------------
  alpha Z        PSCENC =         0.04463725
  Ewald energy   TEWEN  =      1529.45039652
  -Hartree energ DENC   =     -2373.45510784
  -exchange      EXHF   =         0.00000000
  -V(xc)+E(xc)   XCENC  =        72.60412685
  PAW double counting   =      1037.56350738    -1027.22592938
  entropy T*S    EENTRO =        -0.00000000
  eigenvalues    EBANDS =      -345.06572593
  atomic energy  EATOM  =      1053.67706829
  Solvation  Ediel_sol  =         0.00000000
  ---------------------------------------------------
  free energy    TOTEN  =       -52.40702686 eV

  energy without entropy =      -52.40702686  energy(sigma->0) =      -52.40702686


--------------------------------------------------------------------------------------------------------




----------------------------------------- Iteration    1(   8)  ---------------------------------------


    POTLOK:  cpu time   12.7760: real time   12.8070
    SETDIJ:  cpu time    0.1388: real time    0.1391
     EDDAV:  cpu time   11.2739: real time   11.3057
       DOS:  cpu time    0.0012: real time    0.0012
    CHARGE:  cpu time    1.9770: real time    1.9818
    MIXING:  cpu time    0.3234: real time    0.3242
    --------------------------------------------
      LOOP:  cpu time   26.4929: real time   26.5651

 eigenvalue-minimisations  :    60
 total energy-change (2. order) : 0.2451812E+00  (-0.3257041E-01)
 number of electron      24.0000000 magnetization 
 augmentation part        0.2250393 magnetization 

 Broyden mixing:
  rms(total) = 0.59919E-01    rms(broyden)= 0.59919E-01
  rms(prec ) = 0.65941E-01
  weight for this iteration     100.00

 eigenvalues of (default mixing * dielectric matrix)
  average eigenvalue GAMMA=   1.5562
  2.2412  1.1634  1.2639

 Free energy of the ion-electron system (eV)
  ---------------------------------------------------
  alpha Z        PSCENC =         0.04463725
  Ewald energy   TEWEN  =      1529.45039652
  -Hartree energ DENC   =     -2390.14503801
  -exchange      EXHF   =         0.00000000
  -V(xc)+E(xc)   XCENC  =        73.53304012
  PAW double counting   =      1039.34188265    -1028.97615881
  entropy T*S    EENTRO =        -0.00000000
  eigenvalues    EBANDS =      -329.08767370
  atomic energy  EATOM  =      1053.67706829
  Solvation  Ediel_sol  =         0.00000000
  ---------------------------------------------------
  free energy    TOTEN  =       -52.16184571 eV

  energy without entropy =      -52.16184571  energy(sigma->0) =      -52.16184571


--------------------------------------------------------------------------------------------------------




----------------------------------------- Iteration    1(   9)  ---------------------------------------


    POTLOK:  cpu time   12.7691: real time   12.8001
    SETDIJ:  cpu time    0.1392: real time    0.1396
     EDDAV:  cpu time   12.1810: real time   12.2152
       DOS:  cpu time    0.0013: real time    0.0013
    CHARGE:  cpu time    2.0073: real time    2.0121
    MIXING:  cpu time    0.3326: real time    0.3334
    --------------------------------------------
      LOOP:  cpu time   27.4330: real time   27.5076

 eigenvalue-minimisations  :    66
 total energy-change (2. order) : 0.2089764E-01  (-0.4352379E-02)
 number of electron      24.0000000 magnetization 
 augmentation part        0.2248189 magnetization 

 Broyden mixing:
  rms(total) = 0.35537E-01    rms(broyden)= 0.35537E-01
  rms(prec ) = 0.40383E-01
  weight for this iteration     100.00

 eigenvalues of (default mixing * dielectric matrix)
  average eigenvalue GAMMA=   1.4447
  2.2799  1.6463  1.0488  0.8038

 Free energy of the ion-electron system (eV)
  ---------------------------------------------------
  alpha Z        PSCENC =         0.04463725
  Ewald energy   TEWEN  =      1529.45039652
  -Hartree energ DENC   =     -2394.28170813
  -exchange      EXHF   =         0.00000000
  -V(xc)+E(xc)   XCENC  =        73.71238556
  PAW double counting   =      1038.21816971    -1027.84998486
  entropy T*S    EENTRO =        -0.00000000
  eigenvalues    EBANDS =      -325.11191240
  atomic energy  EATOM  =      1053.67706829
  Solvation  Ediel_sol  =         0.00000000
  ---------------------------------------------------
  free energy    TOTEN  =       -52.14094807 eV

  energy without entropy =      -52.14094807  energy(sigma->0) =      -52.14094807


--------------------------------------------------------------------------------------------------------




----------------------------------------- Iteration    1(  10)  ---------------------------------------


    POTLOK:  cpu time   12.7807: real time   12.8118
    SETDIJ:  cpu time    0.1390: real time    0.1394
     EDDAV:  cpu time   11.2518: real time   11.2831
       DOS:  cpu time    0.0010: real time    0.0010
    CHARGE:  cpu time    1.9819: real time    1.9867
    MIXING:  cpu time    0.3486: real time    0.3494
    --------------------------------------------
      LOOP:  cpu time   26.5057: real time   26.5774

 eigenvalue-minimisations  :    60
 total energy-change (2. order) : 0.3881015E-02  (-0.7068185E-03)
 number of electron      24.0000000 magnetization 
 augmentation part        0.2270429 magnetization 

 Broyden mixing:
  rms(total) = 0.17155E-01    rms(broyden)= 0.17155E-01
  rms(prec ) = 0.22966E-01
  weight for this iteration     100.00

 eigenvalues of (default mixing * dielectric matrix)
  average eigenvalue GAMMA=   1.5343
  2.3148  2.3010  1.1318  1.1318  0.7918

 Free energy of the ion-electron system (eV)
  ---------------------------------------------------
  alpha Z        PSCENC =         0.04463725
  Ewald energy   TEWEN  =      1529.45039652
  -Hartree energ DENC   =     -2395.84137253
  -exchange      EXHF   =         0.00000000
  -V(xc)+E(xc)   XCENC  =        73.73861073
  PAW double counting   =      1040.16836951    -1029.79482453
  entropy T*S    EENTRO =        -0.00000000
  eigenvalues    EBANDS =      -323.57995229
  atomic energy  EATOM  =      1053.67706829
  Solvation  Ediel_sol  =         0.00000000
  ---------------------------------------------------
  free energy    TOTEN  =       -52.13706706 eV

  energy without entropy =      -52.13706706  energy(sigma->0) =      -52.13706706


--------------------------------------------------------------------------------------------------------




----------------------------------------- Iteration    1(  11)  ---------------------------------------


    POTLOK:  cpu time   12.7808: real time   12.8119
    SETDIJ:  cpu time    0.1390: real time    0.1393
     EDDAV:  cpu time    8.6006: real time    8.6243
       DOS:  cpu time    0.0007: real time    0.0007
    CHARGE:  cpu time    2.0153: real time    2.0202
    MIXING:  cpu time    0.3565: real time    0.3573
    --------------------------------------------
      LOOP:  cpu time   23.8955: real time   23.9598

 eigenvalue-minimisations  :    42
 total energy-change (2. order) : 0.1712555E-03  (-0.4063769E-03)
 number of electron      24.0000000 magnetization 
 augmentation part        0.2270230 magnetization 

 Broyden mixing:
  rms(total) = 0.98965E-02    rms(broyden)= 0.98965E-02
  rms(prec ) = 0.14358E-01
  weight for this iteration     100.00

 eigenvalues of (default mixing * dielectric matrix)
  average eigenvalue GAMMA=   1.6712
  3.1537  2.4372  1.4263  1.1779  0.9160  0.9160

 Free energy of the ion-electron system (eV)
  ---------------------------------------------------
  alpha Z        PSCENC =         0.04463725
  Ewald energy   TEWEN  =      1529.45039652
  -Hartree energ DENC   =     -2398.56336037
  -exchange      EXHF   =         0.00000000
  -V(xc)+E(xc)   XCENC  =        73.78521906
  PAW double counting   =      1046.78375311    -1036.41419576
  entropy T*S    EENTRO =        -0.00000000
  eigenvalues    EBANDS =      -320.90041391
  atomic energy  EATOM  =      1053.67706829
  Solvation  Ediel_sol  =         0.00000000
  ---------------------------------------------------
  free energy    TOTEN  =       -52.13689580 eV

  energy without entropy =      -52.13689580  energy(sigma->0) =      -52.13689580


--------------------------------------------------------------------------------------------------------




----------------------------------------- Iteration    1(  12)  ---------------------------------------


    POTLOK:  cpu time   12.8144: real time   12.8456
    SETDIJ:  cpu time    0.1409: real time    0.1412
     EDDAV:  cpu time   11.2895: real time   11.3207
       DOS:  cpu time    0.0011: real time    0.0012
    CHARGE:  cpu time    1.9715: real time    1.9763
    MIXING:  cpu time    0.3696: real time    0.3705
    --------------------------------------------
      LOOP:  cpu time   26.5896: real time   26.6614

 eigenvalue-minimisations  :    60
 total energy-change (2. order) :-0.5975389E-02  (-0.5959775E-03)
 number of electron      24.0000000 magnetization 
 augmentation part        0.2266045 magnetization 

 Broyden mixing:
  rms(total) = 0.55423E-02    rms(broyden)= 0.55423E-02
  rms(prec ) = 0.79745E-02
  weight for this iteration     100.00

 eigenvalues of (default mixing * dielectric matrix)
  average eigenvalue GAMMA=   1.7517
  3.8515  2.4577  1.5503  1.3807  1.2232  0.8994  0.8994

 Free energy of the ion-electron system (eV)
  ---------------------------------------------------
  alpha Z        PSCENC =         0.04463725
  Ewald energy   TEWEN  =      1529.45039652
  -Hartree energ DENC   =     -2401.34246219
  -exchange      EXHF   =         0.00000000
  -V(xc)+E(xc)   XCENC  =        73.82328109
  PAW double counting   =      1051.11875146    -1040.75255544
  entropy T*S    EENTRO =        -0.00000000
  eigenvalues    EBANDS =      -318.16198817
  atomic energy  EATOM  =      1053.67706829
  Solvation  Ediel_sol  =         0.00000000
  ---------------------------------------------------
  free energy    TOTEN  =       -52.14287119 eV

  energy without entropy =      -52.14287119  energy(sigma->0) =      -52.14287119


--------------------------------------------------------------------------------------------------------




----------------------------------------- Iteration    1(  13)  ---------------------------------------


    POTLOK:  cpu time   12.8649: real time   12.8961
    SETDIJ:  cpu time    0.1394: real time    0.1397
     EDDAV:  cpu time   11.2521: real time   11.2832
       DOS:  cpu time    0.0008: real time    0.0008
    CHARGE:  cpu time    1.9735: real time    1.9783
    MIXING:  cpu time    0.3831: real time    0.3840
    --------------------------------------------
      LOOP:  cpu time   26.6164: real time   26.6881

 eigenvalue-minimisations  :    60
 total energy-change (2. order) :-0.6582367E-02  (-0.1670019E-03)
 number of electron      24.0000000 magnetization 
 augmentation part        0.2265776 magnetization 

 Broyden mixing:
  rms(total) = 0.36181E-02    rms(broyden)= 0.36181E-02
  rms(prec ) = 0.51155E-02
  weight for this iteration     100.00

 eigenvalues of (default mixing * dielectric matrix)
  average eigenvalue GAMMA=   1.8334
  4.4770  2.5850  2.1277  1.4727  1.0819  1.0819  0.9205  0.9205

 Free energy of the ion-electron system (eV)
  ---------------------------------------------------
  alpha Z        PSCENC =         0.04463725
  Ewald energy   TEWEN  =      1529.45039652
  -Hartree energ DENC   =     -2402.40552593
  -exchange      EXHF   =         0.00000000
  -V(xc)+E(xc)   XCENC  =        73.82782313
  PAW double counting   =      1049.86841471    -1039.50005900
  entropy T*S    EENTRO =        -0.00000000
  eigenvalues    EBANDS =      -317.11220853
  atomic energy  EATOM  =      1053.67706829
  Solvation  Ediel_sol  =         0.00000000
  ---------------------------------------------------
  free energy    TOTEN  =       -52.14945356 eV

  energy without entropy =      -52.14945356  energy(sigma->0) =      -52.14945356


--------------------------------------------------------------------------------------------------------




----------------------------------------- Iteration    1(  14)  ---------------------------------------


    POTLOK:  cpu time   12.7840: real time   12.8151
    SETDIJ:  cpu time    0.1421: real time    0.1425
     EDDAV:  cpu time   11.2824: real time   11.3137
       DOS:  cpu time    0.0013: real time    0.0013
    CHARGE:  cpu time    1.9726: real time    1.9774
    MIXING:  cpu time    0.3973: real time    0.3983
    --------------------------------------------
      LOOP:  cpu time   26.5825: real time   26.6542

 eigenvalue-minimisations  :    60
 total energy-change (2. order) :-0.5246619E-02  (-0.6944944E-04)
 number of electron      24.0000000 magnetization 
 augmentation part        0.2268038 magnetization 

 Broyden mixing:
  rms(total) = 0.21196E-02    rms(broyden)= 0.21196E-02
  rms(prec ) = 0.31176E-02
  weight for this iteration     100.00

 eigenvalues of (default mixing * dielectric matrix)
  average eigenvalue GAMMA=   1.9255
  5.5246  2.8593  2.2762  1.4647  1.1913  1.1913  0.9070  0.9573  0.9573

 Free energy of the ion-electron system (eV)
  ---------------------------------------------------
  alpha Z        PSCENC =         0.04463725
  Ewald energy   TEWEN  =      1529.45039652
  -Hartree energ DENC   =     -2402.93382334
  -exchange      EXHF   =         0.00000000
  -V(xc)+E(xc)   XCENC  =        73.82373522
  PAW double counting   =      1048.68040891    -1038.31012393
  entropy T*S    EENTRO =        -0.00000000
  eigenvalues    EBANDS =      -316.58699909
  atomic energy  EATOM  =      1053.67706829
  Solvation  Ediel_sol  =         0.00000000
  ---------------------------------------------------
  free energy    TOTEN  =       -52.15470018 eV

  energy without entropy =      -52.15470018  energy(sigma->0) =      -52.15470018


--------------------------------------------------------------------------------------------------------




----------------------------------------- Iteration    1(  15)  ---------------------------------------


    POTLOK:  cpu time   12.7649: real time   12.7959
    SETDIJ:  cpu time    0.1378: real time    0.1382
     EDDAV:  cpu time   11.2341: real time   11.2656
       DOS:  cpu time    0.0011: real time    0.0011
    CHARGE:  cpu time    2.0265: real time    2.0314
    MIXING:  cpu time    0.4175: real time    0.4185
    --------------------------------------------
      LOOP:  cpu time   26.5845: real time   26.6565

 eigenvalue-minimisations  :    60
 total energy-change (2. order) :-0.3840088E-02  (-0.4130858E-04)
 number of electron      24.0000000 magnetization 
 augmentation part        0.2267128 magnetization 

 Broyden mixing:
  rms(total) = 0.13715E-02    rms(broyden)= 0.13715E-02
  rms(prec ) = 0.19405E-02
  weight for this iteration     100.00

 eigenvalues of (default mixing * dielectric matrix)
  average eigenvalue GAMMA=   2.0736
  6.5316  3.3364  2.4338  1.9894  1.4433  1.0747  1.0747  0.8675  0.9921  0.9921

 Free energy of the ion-electron system (eV)
  ---------------------------------------------------
  alpha Z        PSCENC =         0.04463725
  Ewald energy   TEWEN  =      1529.45039652
  -Hartree energ DENC   =     -2403.26460456
  -exchange      EXHF   =         0.00000000
  -V(xc)+E(xc)   XCENC  =        73.82031503
  PAW double counting   =      1048.62471481    -1038.25426856
  entropy T*S    EENTRO =        -0.00000000
  eigenvalues    EBANDS =      -316.25679904
  atomic energy  EATOM  =      1053.67706829
  Solvation  Ediel_sol  =         0.00000000
  ---------------------------------------------------
  free energy    TOTEN  =       -52.15854027 eV

  energy without entropy =      -52.15854027  energy(sigma->0) =      -52.15854027


--------------------------------------------------------------------------------------------------------




----------------------------------------- Iteration    1(  16)  ---------------------------------------


    POTLOK:  cpu time   12.8277: real time   12.8590
    SETDIJ:  cpu time    0.1390: real time    0.1393
     EDDAV:  cpu time    9.4725: real time    9.4990
       DOS:  cpu time    0.0010: real time    0.0010
    CHARGE:  cpu time    1.9759: real time    1.9807
    MIXING:  cpu time    0.4296: real time    0.4307
    --------------------------------------------
      LOOP:  cpu time   24.8485: real time   24.9156

 eigenvalue-minimisations  :    48
 total energy-change (2. order) :-0.3371499E-02  (-0.3225837E-04)
 number of electron      24.0000000 magnetization 
 augmentation part        0.2267952 magnetization 

 Broyden mixing:
  rms(total) = 0.74745E-03    rms(broyden)= 0.74745E-03
  rms(prec ) = 0.10120E-02
  weight for this iteration     100.00

 eigenvalues of (default mixing * dielectric matrix)
  average eigenvalue GAMMA=   2.1215
  7.1979  3.7526  2.5276  2.2272  1.4490  1.1916  1.1916  0.8525  0.9577  0.9577
  1.0309

 Free energy of the ion-electron system (eV)
  ---------------------------------------------------
  alpha Z        PSCENC =         0.04463725
  Ewald energy   TEWEN  =      1529.45039652
  -Hartree energ DENC   =     -2403.41085220
  -exchange      EXHF   =         0.00000000
  -V(xc)+E(xc)   XCENC  =        73.81530730
  PAW double counting   =      1049.19565125    -1038.82537801
  entropy T*S    EENTRO =        -0.00000000
  eigenvalues    EBANDS =      -316.10874216
  atomic energy  EATOM  =      1053.67706829
  Solvation  Ediel_sol  =         0.00000000
  ---------------------------------------------------
  free energy    TOTEN  =       -52.16191176 eV

  energy without entropy =      -52.16191176  energy(sigma->0) =      -52.16191176


--------------------------------------------------------------------------------------------------------




----------------------------------------- Iteration    1(  17)  ---------------------------------------


    POTLOK:  cpu time   12.7744: real time   12.8055
    SETDIJ:  cpu time    0.1393: real time    0.1396
     EDDAV:  cpu time   13.0074: real time   13.0439
       DOS:  cpu time    0.0014: real time    0.0014
    CHARGE:  cpu time    1.9745: real time    1.9793
    MIXING:  cpu time    0.4466: real time    0.4477
    --------------------------------------------
      LOOP:  cpu time   28.3462: real time   28.4231

 eigenvalue-minimisations  :    72
 total energy-change (2. order) :-0.1280551E-02  (-0.8274250E-05)
 number of electron      24.0000000 magnetization 
 augmentation part        0.2267729 magnetization 

 Broyden mixing:
  rms(total) = 0.51080E-03    rms(broyden)= 0.51080E-03
  rms(prec ) = 0.65561E-03
  weight for this iteration     100.00

 eigenvalues of (default mixing * dielectric matrix)
  average eigenvalue GAMMA=   2.1798
  7.8258  4.3107  2.5049  2.5049  1.5913  1.5913  1.0961  1.0961  0.9796  0.9796
  0.8386  0.8386

 Free energy of the ion-electron system (eV)
  ---------------------------------------------------
  alpha Z        PSCENC =         0.04463725
  Ewald energy   TEWEN  =      1529.45039652
  -Hartree energ DENC   =     -2403.43072354
  -exchange      EXHF   =         0.00000000
  -V(xc)+E(xc)   XCENC  =        73.81304296
  PAW double counting   =      1049.51130358    -1039.14140174
  entropy T*S    EENTRO =        -0.00000000
  eigenvalues    EBANDS =      -316.08751563
  atomic energy  EATOM  =      1053.67706829
  Solvation  Ediel_sol  =         0.00000000
  ---------------------------------------------------
  free energy    TOTEN  =       -52.16319232 eV

  energy without entropy =      -52.16319232  energy(sigma->0) =      -52.16319232


--------------------------------------------------------------------------------------------------------




----------------------------------------- Iteration    1(  18)  ---------------------------------------


    POTLOK:  cpu time   12.8114: real time   12.8426
    SETDIJ:  cpu time    0.1390: real time    0.1394
     EDDAV:  cpu time    9.4853: real time    9.5122
       DOS:  cpu time    0.0009: real time    0.0009
    CHARGE:  cpu time    1.9683: real time    1.9731
    MIXING:  cpu time    0.4655: real time    0.4666
    --------------------------------------------
      LOOP:  cpu time   24.8732: real time   24.9411

 eigenvalue-minimisations  :    48
 total energy-change (2. order) :-0.7179098E-03  (-0.2834229E-05)
 number of electron      24.0000000 magnetization 
 augmentation part        0.2267972 magnetization 

 Broyden mixing:
  rms(total) = 0.37453E-03    rms(broyden)= 0.37453E-03
  rms(prec ) = 0.44601E-03
  weight for this iteration     100.00

 eigenvalues of (default mixing * dielectric matrix)
  average eigenvalue GAMMA=   2.1909
  8.1130  4.7427  2.7221  2.3884  2.0524  1.3551  1.1486  1.1486  1.1512  0.9721
  0.9721  0.9114  0.8041

 Free energy of the ion-electron system (eV)
  ---------------------------------------------------
  alpha Z        PSCENC =         0.04463725
  Ewald energy   TEWEN  =      1529.45039652
  -Hartree energ DENC   =     -2403.40723770
  -exchange      EXHF   =         0.00000000
  -V(xc)+E(xc)   XCENC  =        73.81047253
  PAW double counting   =      1049.57760289    -1039.20765864
  entropy T*S    EENTRO =        -0.00000000
  eigenvalues    EBANDS =      -316.10919135
  atomic energy  EATOM  =      1053.67706829
  Solvation  Ediel_sol  =         0.00000000
  ---------------------------------------------------
  free energy    TOTEN  =       -52.16391023 eV

  energy without entropy =      -52.16391023  energy(sigma->0) =      -52.16391023


--------------------------------------------------------------------------------------------------------




----------------------------------------- Iteration    1(  19)  ---------------------------------------


    POTLOK:  cpu time   12.9452: real time   12.9767
    SETDIJ:  cpu time    0.1511: real time    0.1515
     EDDAV:  cpu time   13.1711: real time   13.2076
       DOS:  cpu time    0.0013: real time    0.0013
    CHARGE:  cpu time    1.9699: real time    1.9747
    MIXING:  cpu time    0.4817: real time    0.4829
    --------------------------------------------
      LOOP:  cpu time   28.7231: real time   28.8005

 eigenvalue-minimisations  :    72
 total energy-change (2. order) :-0.3059605E-03  (-0.7355107E-06)
 number of electron      24.0000000 magnetization 
 augmentation part        0.2267825 magnetization 

 Broyden mixing:
  rms(total) = 0.16943E-03    rms(broyden)= 0.16943E-03
  rms(prec ) = 0.22767E-03
  weight for this iteration     100.00

 eigenvalues of (default mixing * dielectric matrix)
  average eigenvalue GAMMA=   2.2631
  8.4818  5.2420  3.1523  2.5902  1.9036  1.9036  1.4141  1.1608  1.1608  1.0249
  1.0249  0.9099  0.9099  0.8046

 Free energy of the ion-electron system (eV)
  ---------------------------------------------------
  alpha Z        PSCENC =         0.04463725
  Ewald energy   TEWEN  =      1529.45039652
  -Hartree energ DENC   =     -2403.42520499
  -exchange      EXHF   =         0.00000000
  -V(xc)+E(xc)   XCENC  =        73.81065936
  PAW double counting   =      1049.64568797    -1039.27580560
  entropy T*S    EENTRO =        -0.00000000
  eigenvalues    EBANDS =      -316.09165498
  atomic energy  EATOM  =      1053.67706829
  Solvation  Ediel_sol  =         0.00000000
  ---------------------------------------------------
  free energy    TOTEN  =       -52.16421619 eV

  energy without entropy =      -52.16421619  energy(sigma->0) =      -52.16421619


--------------------------------------------------------------------------------------------------------




----------------------------------------- Iteration    1(  20)  ---------------------------------------


    POTLOK:  cpu time   12.9237: real time   12.9551
    SETDIJ:  cpu time    0.1385: real time    0.1389
     EDDAV:  cpu time   10.3906: real time   10.4194
       DOS:  cpu time    0.0008: real time    0.0008
    CHARGE:  cpu time    1.9741: real time    1.9789
    MIXING:  cpu time    0.5055: real time    0.5067
    --------------------------------------------
      LOOP:  cpu time   25.9358: real time   26.0053

 eigenvalue-minimisations  :    54
 total energy-change (2. order) :-0.2639275E-03  (-0.4906379E-06)
 number of electron      24.0000000 magnetization 
 augmentation part        0.2267817 magnetization 

 Broyden mixing:
  rms(total) = 0.10772E-03    rms(broyden)= 0.10772E-03
  rms(prec ) = 0.13064E-03
  weight for this iteration     100.00

 eigenvalues of (default mixing * dielectric matrix)
  average eigenvalue GAMMA=   2.2650
  8.7319  5.6406  3.5433  2.4642  2.4111  1.7929  1.4429  1.1453  1.1453  1.0576
  1.0576  0.9298  0.9298  0.8417  0.8417

 Free energy of the ion-electron system (eV)
  ---------------------------------------------------
  alpha Z        PSCENC =         0.04463725
  Ewald energy   TEWEN  =      1529.45039652
  -Hartree energ DENC   =     -2403.42671042
  -exchange      EXHF   =         0.00000000
  -V(xc)+E(xc)   XCENC  =        73.81012883
  PAW double counting   =      1049.66130404    -1039.29139338
  entropy T*S    EENTRO =        -0.00000000
  eigenvalues    EBANDS =      -316.08991124
  atomic energy  EATOM  =      1053.67706829
  Solvation  Ediel_sol  =         0.00000000
  ---------------------------------------------------
  free energy    TOTEN  =       -52.16448011 eV

  energy without entropy =      -52.16448011  energy(sigma->0) =      -52.16448011


--------------------------------------------------------------------------------------------------------




----------------------------------------- Iteration    1(  21)  ---------------------------------------


    POTLOK:  cpu time   12.7626: real time   12.7936
    SETDIJ:  cpu time    0.1379: real time    0.1382
     EDDAV:  cpu time   13.0673: real time   13.1035
       DOS:  cpu time    0.0017: real time    0.0017
    CHARGE:  cpu time    1.9703: real time    1.9751
    MIXING:  cpu time    0.5212: real time    0.5225
    --------------------------------------------
      LOOP:  cpu time   28.4637: real time   28.5406

 eigenvalue-minimisations  :    72
 total energy-change (2. order) :-0.7067124E-04  (-0.6293019E-07)
 number of electron      24.0000000 magnetization 
 augmentation part        0.2267867 magnetization 

 Broyden mixing:
  rms(total) = 0.68183E-04    rms(broyden)= 0.68183E-04
  rms(prec ) = 0.83831E-04
  weight for this iteration     100.00

 eigenvalues of (default mixing * dielectric matrix)
  average eigenvalue GAMMA=   2.3129
  8.9170  6.0460  3.9242  2.7478  2.4128  1.7668  1.7668  1.3697  1.1883  1.1883
  1.0697  0.9803  0.9803  0.9214  0.9214  0.8061

 Free energy of the ion-electron system (eV)
  ---------------------------------------------------
  alpha Z        PSCENC =         0.04463725
  Ewald energy   TEWEN  =      1529.45039652
  -Hartree energ DENC   =     -2403.43130515
  -exchange      EXHF   =         0.00000000
  -V(xc)+E(xc)   XCENC  =        73.81016779
  PAW double counting   =      1049.64116774    -1039.27122586
  entropy T*S    EENTRO =        -0.00000000
  eigenvalues    EBANDS =      -316.08545734
  atomic energy  EATOM  =      1053.67706829
  Solvation  Ediel_sol  =         0.00000000
  ---------------------------------------------------
  free energy    TOTEN  =       -52.16455078 eV

  energy without entropy =      -52.16455078  energy(sigma->0) =      -52.16455078


--------------------------------------------------------------------------------------------------------




----------------------------------------- Iteration    1(  22)  ---------------------------------------


    POTLOK:  cpu time   12.9541: real time   12.9856
    SETDIJ:  cpu time    0.1389: real time    0.1393
     EDDAV:  cpu time    9.5071: real time    9.5335
       DOS:  cpu time    0.0011: real time    0.0011
    CHARGE:  cpu time    1.9687: real time    1.9735
    MIXING:  cpu time    0.5453: real time    0.5466
    --------------------------------------------
      LOOP:  cpu time   25.1178: real time   25.1854

 eigenvalue-minimisations  :    48
 total energy-change (2. order) :-0.6115484E-04  (-0.3560574E-07)
 number of electron      24.0000000 magnetization 
 augmentation part        0.2267891 magnetization 

 Broyden mixing:
  rms(total) = 0.38712E-04    rms(broyden)= 0.38712E-04
  rms(prec ) = 0.46309E-04
  weight for this iteration     100.00

 eigenvalues of (default mixing * dielectric matrix)
  average eigenvalue GAMMA=   2.3053
  9.0697  6.3107  4.1945  2.9024  2.4053  2.2462  1.5595  1.5595  1.1526  1.1526
  1.0804  1.0804  0.9420  0.9420  0.9238  0.8889  0.7798

 Free energy of the ion-electron system (eV)
  ---------------------------------------------------
  alpha Z        PSCENC =         0.04463725
  Ewald energy   TEWEN  =      1529.45039652
  -Hartree energ DENC   =     -2403.43321477
  -exchange      EXHF   =         0.00000000
  -V(xc)+E(xc)   XCENC  =        73.81006308
  PAW double counting   =      1049.63674807    -1039.26681176
  entropy T*S    EENTRO =        -0.00000000
  eigenvalues    EBANDS =      -316.08349861
  atomic energy  EATOM  =      1053.67706829
  Solvation  Ediel_sol  =         0.00000000
  ---------------------------------------------------
  free energy    TOTEN  =       -52.16461194 eV

  energy without entropy =      -52.16461194  energy(sigma->0) =      -52.16461194


--------------------------------------------------------------------------------------------------------




----------------------------------------- Iteration    1(  23)  ---------------------------------------


    POTLOK:  cpu time   12.7144: real time   12.7454
    SETDIJ:  cpu time    0.1387: real time    0.1391
     EDDAV:  cpu time    7.7016: real time    7.7229
       DOS:  cpu time    0.0007: real time    0.0007
    CHARGE:  cpu time    1.9757: real time    1.9805
    MIXING:  cpu time    0.5660: real time    0.5674
    --------------------------------------------
      LOOP:  cpu time   23.0997: real time   23.1616

 eigenvalue-minimisations  :    36
 total energy-change (2. order) :-0.1859640E-04  (-0.5004280E-08)
 number of electron      24.0000000 magnetization 
 augmentation part        0.2267910 magnetization 

 Broyden mixing:
  rms(total) = 0.30720E-04    rms(broyden)= 0.30720E-04
  rms(prec ) = 0.34971E-04
  weight for this iteration     100.00

 eigenvalues of (default mixing * dielectric matrix)
  average eigenvalue GAMMA=   2.3297
  9.1635  6.5644  4.5330  3.0947  2.6369  2.3119  1.7584  1.3939  1.2697  1.2697
  1.1687  1.1687  1.0374  1.0374  0.9374  0.9374  0.8551  0.7964

 Free energy of the ion-electron system (eV)
  ---------------------------------------------------
  alpha Z        PSCENC =         0.04463725
  Ewald energy   TEWEN  =      1529.45039652
  -Hartree energ DENC   =     -2403.43404071
  -exchange      EXHF   =         0.00000000
  -V(xc)+E(xc)   XCENC  =        73.81002209
  PAW double counting   =      1049.64228185    -1039.27234926
  entropy T*S    EENTRO =        -0.00000000
  eigenvalues    EBANDS =      -316.08264656
  atomic energy  EATOM  =      1053.67706829
  Solvation  Ediel_sol  =         0.00000000
  ---------------------------------------------------
  free energy    TOTEN  =       -52.16463054 eV

  energy without entropy =      -52.16463054  energy(sigma->0) =      -52.16463054


--------------------------------------------------------------------------------------------------------




----------------------------------------- Iteration    1(  24)  ---------------------------------------


    POTLOK:  cpu time   12.7061: real time   12.7369
    SETDIJ:  cpu time    0.1379: real time    0.1382
     EDDAV:  cpu time    5.9753: real time    5.9920
       DOS:  cpu time    0.0004: real time    0.0004
    CHARGE:  cpu time    2.0251: real time    2.0300
    MIXING:  cpu time    0.5871: real time    0.5885
    --------------------------------------------
      LOOP:  cpu time   21.4345: real time   21.4913

 eigenvalue-minimisations  :    24
 total energy-change (2. order) :-0.1382882E-04  (-0.7096487E-08)
 number of electron      24.0000000 magnetization 
 augmentation part        0.2267894 magnetization 

 Broyden mixing:
  rms(total) = 0.21538E-04    rms(broyden)= 0.21538E-04
  rms(prec ) = 0.23625E-04
  weight for this iteration     100.00

 eigenvalues of (default mixing * dielectric matrix)
  average eigenvalue GAMMA=   2.2904
  9.2711  6.7153  4.8007  3.2621  2.6544  2.3699  1.8503  1.3847  1.3847  1.1740
  1.1740  1.1778  1.0462  1.0462  0.9242  0.9242  0.8443  0.7563  0.7563

 Free energy of the ion-electron system (eV)
  ---------------------------------------------------
  alpha Z        PSCENC =         0.04463725
  Ewald energy   TEWEN  =      1529.45039652
  -Hartree energ DENC   =     -2403.43609539
  -exchange      EXHF   =         0.00000000
  -V(xc)+E(xc)   XCENC  =        73.81007019
  PAW double counting   =      1049.64866369    -1039.27874202
  entropy T*S    EENTRO =        -0.00000000
  eigenvalues    EBANDS =      -316.08064288
  atomic energy  EATOM  =      1053.67706829
  Solvation  Ediel_sol  =         0.00000000
  ---------------------------------------------------
  free energy    TOTEN  =       -52.16464436 eV

  energy without entropy =      -52.16464436  energy(sigma->0) =      -52.16464436


--------------------------------------------------------------------------------------------------------




----------------------------------------- Iteration    1(  25)  ---------------------------------------


    POTLOK:  cpu time   13.3550: real time   13.3875
    SETDIJ:  cpu time    0.1449: real time    0.1452
     EDDAV:  cpu time    7.8573: real time    7.8787
       DOS:  cpu time    0.0005: real time    0.0006
    CHARGE:  cpu time    1.9880: real time    1.9928
    MIXING:  cpu time    0.6152: real time    0.6167
    --------------------------------------------
      LOOP:  cpu time   23.9636: real time   24.0273

 eigenvalue-minimisations  :    36
 total energy-change (2. order) :-0.3497723E-05  (-0.3429173E-08)
 number of electron      24.0000000 magnetization 
 augmentation part        0.2267901 magnetization 

 Broyden mixing:
  rms(total) = 0.17903E-04    rms(broyden)= 0.17903E-04
  rms(prec ) = 0.19418E-04
  weight for this iteration     100.00

 eigenvalues of (default mixing * dielectric matrix)
  average eigenvalue GAMMA=   2.2631
  9.3508  6.7603  4.9639  3.2834  2.5529  2.4389  2.1525  1.3771  1.3771  1.1729
  1.1729  1.2448  1.2448  0.9731  0.9731  1.0053  0.9070  0.9070  0.8005  0.6032

 Free energy of the ion-electron system (eV)
  ---------------------------------------------------
  alpha Z        PSCENC =         0.04463725
  Ewald energy   TEWEN  =      1529.45039652
  -Hartree energ DENC   =     -2403.43661549
  -exchange      EXHF   =         0.00000000
  -V(xc)+E(xc)   XCENC  =        73.81008184
  PAW double counting   =      1049.64869693    -1039.27877546
  entropy T*S    EENTRO =        -0.00000000
  eigenvalues    EBANDS =      -316.08013774
  atomic energy  EATOM  =      1053.67706829
  Solvation  Ediel_sol  =         0.00000000
  ---------------------------------------------------
  free energy    TOTEN  =       -52.16464786 eV

  energy without entropy =      -52.16464786  energy(sigma->0) =      -52.16464786


--------------------------------------------------------------------------------------------------------




----------------------------------------- Iteration    1(  26)  ---------------------------------------


    POTLOK:  cpu time   12.7600: real time   12.7910
    SETDIJ:  cpu time    0.1392: real time    0.1395
     EDDAV:  cpu time    5.9196: real time    5.9359
       DOS:  cpu time    0.0001: real time    0.0001
    CHARGE:  cpu time    1.9821: real time    1.9869
    MIXING:  cpu time    0.6389: real time    0.6404
    --------------------------------------------
      LOOP:  cpu time   21.4425: real time   21.5000

 eigenvalue-minimisations  :    24
 total energy-change (2. order) :-0.3101282E-05  (-0.2420933E-08)
 number of electron      24.0000000 magnetization 
 augmentation part        0.2267886 magnetization 

 Broyden mixing:
  rms(total) = 0.87942E-05    rms(broyden)= 0.87941E-05
  rms(prec ) = 0.10075E-04
  weight for this iteration     100.00

 eigenvalues of (default mixing * dielectric matrix)
  average eigenvalue GAMMA=   2.2816
  9.3416  7.0405  5.1210  3.6296  2.5697  2.5108  1.7739  1.7739  1.7042  1.7042
  1.1785  1.1785  1.2062  1.0661  1.0661  0.9482  0.9482  0.9160  0.8978  0.7945
  0.5444

 Free energy of the ion-electron system (eV)
  ---------------------------------------------------
  alpha Z        PSCENC =         0.04463725
  Ewald energy   TEWEN  =      1529.45039652
  -Hartree energ DENC   =     -2403.43702741
  -exchange      EXHF   =         0.00000000
  -V(xc)+E(xc)   XCENC  =        73.81009191
  PAW double counting   =      1049.64729486    -1039.27737360
  entropy T*S    EENTRO =        -0.00000000
  eigenvalues    EBANDS =      -316.07973877
  atomic energy  EATOM  =      1053.67706829
  Solvation  Ediel_sol  =         0.00000000
  ---------------------------------------------------
  free energy    TOTEN  =       -52.16465096 eV

  energy without entropy =      -52.16465096  energy(sigma->0) =      -52.16465096


--------------------------------------------------------------------------------------------------------




----------------------------------------- Iteration    1(  27)  ---------------------------------------


    POTLOK:  cpu time   13.0340: real time   13.0658
    SETDIJ:  cpu time    0.1389: real time    0.1393
     EDDAV:  cpu time    7.7909: real time    7.8121
       DOS:  cpu time    0.0003: real time    0.0003
    CHARGE:  cpu time    2.0236: real time    2.0285
    MIXING:  cpu time    0.6624: real time    0.6640
    --------------------------------------------
      LOOP:  cpu time   23.6527: real time   23.7162

[...]
  average eigenvalue GAMMA=   2.2748
  9.5175  7.6749  5.9211  4.5041  3.3232  2.6888  2.3789  1.9008  1.9008  1.7098
  1.7098  1.3843  1.1790  1.1790  1.2253  1.0104  1.0104  0.9495  0.9495  0.9149
  0.9149  0.8841  0.7953  0.7336  0.5092

 Free energy of the ion-electron system (eV)
  ---------------------------------------------------
  alpha Z        PSCENC =         0.04463725
  Ewald energy   TEWEN  =      1529.45039652
  -Hartree energ DENC   =     -2403.43675283
  -exchange      EXHF   =         0.00000000
  -V(xc)+E(xc)   XCENC  =        73.81006585
  PAW double counting   =      1049.64661832    -1039.27669138
  entropy T*S    EENTRO =        -0.00000000
  eigenvalues    EBANDS =      -316.07999755
  atomic energy  EATOM  =      1053.67706829
  Solvation  Ediel_sol  =         0.00000000
  ---------------------------------------------------
  free energy    TOTEN  =       -52.16465553 eV

  energy without entropy =      -52.16465553  energy(sigma->0) =      -52.16465553


--------------------------------------------------------------------------------------------------------




----------------------------------------- Iteration    1(  31)  ---------------------------------------


    POTLOK:  cpu time   12.6880: real time   12.7189
    SETDIJ:  cpu time    0.1406: real time    0.1409
     EDDAV:  cpu time    7.7113: real time    7.7327
       DOS:  cpu time    0.0003: real time    0.0003
    CHARGE:  cpu time    1.9845: real time    1.9894
    MIXING:  cpu time    0.7818: real time    0.7837
    --------------------------------------------
      LOOP:  cpu time   23.3092: real time   23.3719

 eigenvalue-minimisations  :    36
 total energy-change (2. order) :-0.1660792E-06  (-0.6697913E-09)
 number of electron      24.0000000 magnetization 
 augmentation part        0.2267892 magnetization 

 Broyden mixing:
  rms(total) = 0.82401E-06    rms(broyden)= 0.82399E-06
  rms(prec ) = 0.95650E-06
  weight for this iteration     100.00

 eigenvalues of (default mixing * dielectric matrix)
  average eigenvalue GAMMA=   2.2667
  9.5301  7.8409  6.0777  4.7256  3.4895  2.6557  2.4616  2.2919  1.9197  1.6762
  1.6762  1.4774  1.2871  1.1929  1.1929  1.0727  1.0727  0.9594  0.9594  0.9304
  0.8690  0.8690  0.8060  0.7844  0.6076  0.5075

 Free energy of the ion-electron system (eV)
  ---------------------------------------------------
  alpha Z        PSCENC =         0.04463725
  Ewald energy   TEWEN  =      1529.45039652
  -Hartree energ DENC   =     -2403.43675687
  -exchange      EXHF   =         0.00000000
  -V(xc)+E(xc)   XCENC  =        73.81006455
  PAW double counting   =      1049.64690594    -1039.27697903
  entropy T*S    EENTRO =        -0.00000000
  eigenvalues    EBANDS =      -316.07999233
  atomic energy  EATOM  =      1053.67706829
  Solvation  Ediel_sol  =         0.00000000
  ---------------------------------------------------
  free energy    TOTEN  =       -52.16465570 eV

  energy without entropy =      -52.16465570  energy(sigma->0) =      -52.16465570


--------------------------------------------------------------------------------------------------------




----------------------------------------- Iteration    1(  32)  ---------------------------------------


    POTLOK:  cpu time   13.6359: real time   13.6691
    SETDIJ:  cpu time    0.1388: real time    0.1392
     EDDAV:  cpu time    6.8733: real time    6.8924
       DOS:  cpu time    0.0003: real time    0.0003
    --------------------------------------------
      LOOP:  cpu time   20.6509: real time   20.7069

 eigenvalue-minimisations  :    30
 total energy-change (2. order) :-0.9175415E-07  (-0.5787193E-09)
 number of electron      24.0000000 magnetization 
 augmentation part        0.2267892 magnetization 

 Free energy of the ion-electron system (eV)
  ---------------------------------------------------
  alpha Z        PSCENC =         0.04463725
  Ewald energy   TEWEN  =      1529.45039652
  -Hartree energ DENC   =     -2403.43675145
  -exchange      EXHF   =         0.00000000
  -V(xc)+E(xc)   XCENC  =        73.81006364
  PAW double counting   =      1049.64725577    -1039.27732886
  entropy T*S    EENTRO =        -0.00000000
  eigenvalues    EBANDS =      -316.07999694
  atomic energy  EATOM  =      1053.67706829
  Solvation  Ediel_sol  =         0.00000000
  ---------------------------------------------------
  free energy    TOTEN  =       -52.16465579 eV

  energy without entropy =      -52.16465579  energy(sigma->0) =      -52.16465579


--------------------------------------------------------------------------------------------------------




 average (electrostatic) potential at core
  the test charge radii are     0.5553  0.5586  0.5531  0.5412
  (the norm of the test charge is              1.0000)
       1-111.2810       2-111.3493       3 -43.3802       4 -43.7422       5 -41.1938
       6 -41.2923       7 -41.1756       8-115.7766       9-113.3841
 
 
 
 E-fermi :  -5.5637     XC(G=0):  -0.0402     alpha+bet : -0.0119


 k-point     1 :       0.0000    0.0000    0.0000
  band No.  band energies     occupation 
      1     -25.6076      2.00000
      2     -22.7704      2.00000
      3     -18.3736      2.00000
      4     -14.8045      2.00000
      5     -13.5809      2.00000
      6     -11.5124      2.00000
      7     -11.0088      2.00000
      8      -9.8497      2.00000
      9      -9.4971      2.00000
     10      -8.9084      2.00000
     11      -6.5138      2.00000
     12      -5.6128      2.00000
     13      -0.9111      0.00000
     14      -0.5884      0.00000
     15      -0.1196      0.00000
     16       0.0016      0.00000
     17       0.0769      0.00000
     18       0.1034      0.00000


--------------------------------------------------------------------------------------------------------


 soft charge-density along one line, spin component           1
         0         1         2         3         4         5         6         7         8         9
 total charge-density along one line
 
 pseudopotential strength for first ion, spin component:           1
 12.913  27.405 -21.382  -0.003  -0.000   0.001   0.004   0.001
 27.405  57.990 -51.223  -0.007  -0.001   0.002   0.005   0.001
-21.382 -51.223  93.130   0.002   0.000  -0.001   0.008   0.001
 -0.003  -0.007   0.002  -8.842  -0.001   0.000   8.111   0.007
 -0.000  -0.001   0.000  -0.001  -8.835  -0.000   0.007   8.063
  0.001   0.002  -0.001   0.000  -0.000  -8.841  -0.001   0.001
  0.004   0.005   0.008   8.111   0.007  -0.001  59.141  -0.013
  0.001   0.001   0.001   0.007   8.063   0.001  -0.013  59.227
 -0.004  -0.007   0.001  -0.001   0.001   8.109   0.001  -0.002
  0.003   0.008  -0.018   4.179  -0.009   0.001 *******   0.011
  0.000   0.001  -0.002  -0.009   4.238  -0.001   0.011 *******
  0.003   0.005   0.001   0.001  -0.001   4.180  -0.000   0.001
  0.000   0.000  -0.000   0.005   0.001   0.000  -0.025  -0.003
  0.002   0.003  -0.000  -0.000  -0.001   0.001   0.000   0.000
 -0.007  -0.012   0.002   0.000  -0.000  -0.000   0.001   0.000
  0.000   0.000  -0.000   0.001   0.001  -0.000  -0.003  -0.004
  0.000   0.000  -0.001   0.002   0.000  -0.004  -0.005  -0.000
 -0.000  -0.000   0.000  -0.013  -0.002  -0.002   0.040   0.005
 -0.002  -0.004   0.002   0.000   0.003  -0.002  -0.000   0.003
  0.008   0.016  -0.007  -0.000   0.001   0.000  -0.002  -0.000
 -0.000  -0.001   0.000  -0.002  -0.002  -0.000   0.005   0.006
 -0.001  -0.001   0.001  -0.005  -0.000   0.010   0.006   0.001
 total augmentation occupancy for first ion, spin component:           1
  1.760  -0.050   0.003   0.021   0.003  -0.008   0.002   0.000  -0.002   0.001   0.000  -0.000  -0.004   0.018  -0.066   0.002
 -0.050   0.002  -0.000   0.001   0.000  -0.001  -0.000  -0.000   0.000  -0.000  -0.000   0.000   0.000  -0.001   0.003  -0.000
  0.003  -0.000   0.000   0.000   0.000  -0.000   0.000   0.000  -0.000   0.000   0.000  -0.000  -0.000   0.000  -0.000  -0.000
  0.021   0.001   0.000   1.374  -0.031  -0.002   0.056   0.005  -0.001   0.015   0.001  -0.000  -0.093   0.000  -0.001  -0.012
  0.003   0.000   0.000  -0.031   1.575  -0.005   0.005   0.025   0.000   0.001   0.006   0.000  -0.013   0.019   0.005  -0.016
 -0.008  -0.001  -0.000  -0.002  -0.005   1.354  -0.001   0.000   0.054  -0.000   0.000   0.015  -0.021  -0.014   0.000  -0.001
  0.002  -0.000   0.000   0.056   0.005  -0.001   0.003   0.000  -0.000   0.001   0.000  -0.000  -0.004   0.000  -0.000  -0.001
  0.000  -0.000   0.000   0.005   0.025   0.000   0.000   0.001   0.000   0.000   0.000   0.000  -0.001   0.001   0.000  -0.000
 -0.002   0.000  -0.000  -0.001   0.000   0.054  -0.000   0.000   0.002  -0.000   0.000   0.001  -0.000  -0.001   0.000   0.000
  0.001  -0.000   0.000   0.015   0.001  -0.000   0.001   0.000  -0.000   0.000   0.000  -0.000  -0.001   0.000  -0.000  -0.000
  0.000  -0.000   0.000   0.001   0.006   0.000   0.000   0.000   0.000   0.000   0.000   0.000  -0.000   0.000   0.000  -0.000
 -0.000   0.000  -0.000  -0.000   0.000   0.015  -0.000   0.000   0.001  -0.000   0.000   0.000  -0.000  -0.000   0.000   0.000
 -0.004   0.000  -0.000  -0.093  -0.013  -0.021  -0.004  -0.001  -0.000  -0.001  -0.000  -0.000   0.009   0.000   0.000   0.001
  0.018  -0.001   0.000   0.000   0.019  -0.014   0.000   0.001  -0.001   0.000   0.000  -0.000   0.000   0.002  -0.000  -0.001
 -0.066   0.003  -0.000  -0.001   0.005   0.000  -0.000   0.000   0.000  -0.000   0.000   0.000   0.000  -0.000   0.003  -0.000
  0.002  -0.000  -0.000  -0.012  -0.016  -0.001  -0.001  -0.000   0.000  -0.000  -0.000   0.000   0.001  -0.001  -0.000   0.001
 -0.004   0.000  -0.000  -0.030   0.000   0.086  -0.002  -0.000   0.003  -0.000  -0.000   0.001  -0.001  -0.001   0.000  -0.000
 -0.001   0.000  -0.000  -0.024  -0.003  -0.005  -0.001  -0.000  -0.000  -0.000  -0.000  -0.000   0.002   0.000   0.000   0.000
  0.005  -0.000   0.000   0.000   0.005  -0.004   0.000   0.000  -0.000   0.000   0.000  -0.000   0.000   0.001  -0.000  -0.000
 -0.017   0.001  -0.000  -0.000   0.001   0.000  -0.000   0.000   0.000  -0.000   0.000   0.000   0.000  -0.000   0.001  -0.000
  0.000  -0.000  -0.000  -0.003  -0.004  -0.000  -0.000  -0.000   0.000  -0.000  -0.000   0.000   0.000  -0.000  -0.000   0.000
 -0.001   0.000  -0.000  -0.008   0.000   0.022  -0.000  -0.000   0.001  -0.000  -0.000   0.000  -0.000  -0.000   0.000  -0.000


------------------------ aborting loop because EDIFF is reached ----------------------------------------


    CHARGE:  cpu time    2.0152: real time    2.0201
    FORLOC:  cpu time    1.5393: real time    1.5431
    FORNL :  cpu time    1.6155: real time    1.6194
    STRESS:  cpu time   10.9000: real time   10.9267
    FORCOR:  cpu time   13.0444: real time   13.0761
    FORHAR:  cpu time    4.3478: real time    4.3584
    MIXING:  cpu time    0.8060: real time    0.8080
    OFIELD:  cpu time    0.0001: real time    0.0001

  FORCE on cell =-STRESS in cart. coord.  units (eV):
  Direction    XX          YY          ZZ          XY          YZ          ZX
  --------------------------------------------------------------------------------------
  Alpha Z     0.04464     0.04464     0.04464
  Ewald     735.25991   786.08024     8.11000    33.05149   120.62571    17.40231
  Hartree   953.13704   948.60705   501.69270     0.11301    68.86021     7.47853
  E(xc)    -101.43523  -101.16546  -102.82971     0.23173     0.26185     0.06091
  Local   -2012.27377 -2041.21719  -861.54221   -19.02399  -182.21730   -22.17888
  n-local   -69.18323   -67.31594   -67.22877     1.39492     0.01572     0.17495
  augment     3.67263     3.32068     3.72115    -0.30733    -0.06772    -0.04765
  Kinetic   491.48245   473.17799   518.48585   -15.65085    -7.31427    -2.91389
  Fock        0.00000     0.00000     0.00000     0.00000     0.00000     0.00000
  -------------------------------------------------------------------------------------
  Total       0.70443     1.53201     0.45365    -0.19103     0.16421    -0.02371
  in kB       0.02632     0.05725     0.01695    -0.00714     0.00614    -0.00089
  external pressure =        0.03 kB  Pullay stress =        0.00 kB


 VOLUME and BASIS-vectors are now :
 -----------------------------------------------------------------------------
  energy-cutoff  :     2000.00
  volume of cell :    42875.00
      direct lattice vectors                 reciprocal lattice vectors
    35.000000000  0.000000000  0.000000000     0.028571429  0.000000000  0.000000000
     0.000000000 35.000000000  0.000000000     0.000000000  0.028571429  0.000000000
     0.000000000  0.000000000 35.000000000     0.000000000  0.000000000  0.028571429

  length of vectors
    35.000000000 35.000000000 35.000000000     0.028571429  0.028571429  0.028571429


 FORCES acting on ions
    electron-ion (+dipol)            ewald-force                    non-local-force                 convergence-correction
 -----------------------------------------------------------------------------------------------
   -.977E+02 0.198E+03 0.284E+02   0.988E+02 -.197E+03 -.283E+02   -.447E+00 -.125E+01 -.109E+00   0.585E-06 0.120E-06 0.351E-06
   -.176E+03 -.276E+03 -.447E+02   0.206E+03 0.326E+03 0.527E+02   -.298E+02 -.500E+02 -.804E+01   0.562E-05 -.479E-05 -.637E-06
   -.889E+02 0.281E+02 0.251E+01   0.960E+02 -.286E+02 -.245E+01   -.735E+01 0.600E+00 -.553E-01   -.226E-05 0.192E-07 -.113E-07
   0.338E+02 0.857E+02 0.136E+02   -.384E+02 -.924E+02 -.146E+02   0.445E+01 0.626E+01 0.102E+01   0.158E-05 0.194E-05 0.322E-06
   0.425E+02 -.227E+02 -.579E+02   -.444E+02 0.248E+02 0.632E+02   0.179E+01 -.204E+01 -.502E+01   -.321E-06 0.132E-06 0.272E-06
   0.507E+02 0.527E+02 0.111E+02   -.534E+02 -.580E+02 -.121E+02   0.251E+01 0.496E+01 0.987E+00   0.344E-06 0.351E-06 0.302E-07
   0.410E+02 -.425E+02 0.468E+02   -.427E+02 0.464E+02 -.510E+02   0.164E+01 -.376E+01 0.398E+01   -.317E-06 0.209E-06 -.265E-06
   0.600E+02 0.334E+02 0.650E+01   -.638E+02 -.288E+02 -.586E+01   0.398E+01 -.309E+01 -.396E+00   0.609E-06 -.134E-04 -.213E-05
   0.157E+03 -.725E+01 0.144E+01   -.158E+03 0.773E+01 -.147E+01   0.929E+00 -.673E+00 -.711E-02   -.197E-05 -.156E-05 -.482E-06
 -----------------------------------------------------------------------------------------------
   0.223E+02 0.490E+02 0.764E+01   -.568E-13 0.142E-13 0.311E-14   -.223E+02 -.490E+02 -.764E+01   0.387E-05 -.170E-04 -.255E-05
 
 
 POSITION                                       TOTAL-FORCE (eV/Angst)
 -----------------------------------------------------------------------------------
     34.32942      0.00389     34.68572         0.645778     -0.580123     -0.076069
     34.42872      2.24202      0.02562        -0.054778     -0.426343     -0.065131
      0.34385     34.90944     34.69167        -0.254747      0.060210      0.003674
     33.75579     34.19368     34.55332        -0.102617     -0.449912     -0.069468
     31.92202      1.64661      0.80450        -0.112299      0.104943      0.272621
     31.79788      0.30287     34.65379        -0.251826     -0.291953     -0.058028
     31.95001      1.97549     34.08140        -0.101390      0.197775     -0.216626
     33.76727      1.21164     34.85838         0.164566      1.581214      0.242720
     32.26176      1.26676     34.84411         0.067314     -0.195812     -0.033691
 -----------------------------------------------------------------------------------
    total drift:                               -0.000086      0.000004      0.000079


--------------------------------------------------------------------------------------------------------



  FREE ENERGIE OF THE ION-ELECTRON SYSTEM (eV)
  ---------------------------------------------------
  free  energy   TOTEN  =       -52.16465579 eV

  energy  without entropy=      -52.16465579  energy(sigma->0) =      -52.16465579
 


--------------------------------------------------------------------------------------------------------


    POTLOK:  cpu time   12.8437: real time   12.8749


--------------------------------------------------------------------------------------------------------


 writing wavefunctions
     LOOP+:  cpu time 1508.1916: real time 1512.1593
    4ORBIT:  cpu time    0.0000: real time    0.0000

 total amount of memory used by VASP on root node  3970605. kBytes
========================================================================

   base      :      30000. kBytes
   nonl-proj :     461512. kBytes
   fftplans  :    1117866. kBytes
   grid      :    2335080. kBytes
   one-center:         23. kBytes
   wavefun   :      26124. kBytes
 
  
  
 General timing and accounting informations for this job:
 ========================================================
  
                  Total CPU time used (sec):     2414.615
                            User time (sec):     2163.091
                          System time (sec):      251.524
                         Elapsed time (sec):     2421.585
  
                   Maximum memory used (kb):     4951688.
                   Average memory used (kb):           0.
  
                          Minor page faults:       333348
                          Major page faults:            4
                 Voluntary context switches:        15015
 
 PROFILE, used timers:      14
 =============================
 
 index                 routine                    time                            calls level
----------------------------------------------------------------------------------------------
    1    total_time                         2421.585719                                1   1
    2      w1_copy                               2.410210                           1095   2
    3      fftwav_mpi                          113.372236                            423   2
    4      fftext_mpi                            0.521832                              3   2
    5      overl                                 0.001375                            633   2
    6      orth1                                 3.206886                            754   2
    7      lincom                                0.162400                             33   2
    8      eccp                                  3.860961                             96   2
    9      hamiltmu                            146.632555                            251   2
   10        vhamil                               23.958232                          364   3
   11        overl1                                0.000961                          364   3
   12        kinhamil                             59.835869                          364   3
   13          fftext_mpi                           59.095572                        364   4
   14      pdssyex_zheevx                        0.070986                             32   2
 
 Flat profile
 ============
 
             routine name                   CPU           calls
 ---------------------------------------------------------------
 total_time                           2151.346278           1
 fftwav_mpi                            113.372236         423
 hamiltmu                               62.837492         251
 fftext_mpi                             59.617404         367
 vhamil                                 23.958232         364
 eccp                                    3.860961          96
 orth1                                   3.206886         754
 w1_copy                                 2.410210        1095
 kinhamil                                0.740297         364
 lincom                                  0.162400          33
 pdssyex_zheevx                          0.070986          32
 overl                                   0.001375         633
 overl1                                  0.000961         364
 ---------------------------------------------------------------
  summed up times    2421.58571887016     
 
Profiling took   0.006151  0.004105  0.003298  0.003288 seconds
Profiling took   0.002363 seconds
