 vasp.5.4.1 24Jun15 (build Jan 02 2020 16:21:29) gamma-only                     
  
 executed on           IFC15_impi date 2020.04.13  14:41:09
 running on   12 total cores
 distrk:  each k-point on   12 cores,    1 groups
 distr:  one band on NCORES_PER_BAND=  12 cores,    1 groups


--------------------------------------------------------------------------------------------------------


 INCAR:
 POTCAR:    PAW_PBE C_h_GW 23May2013              
 POTCAR:    PAW_PBE H_h_GW 21Apr2008              

 ----------------------------------------------------------------------------- 
|                                                                             |
|           W    W    AA    RRRRR   N    N  II  N    N   GGGG   !!!           |
|           W    W   A  A   R    R  NN   N  II  NN   N  G    G  !!!           |
|           W    W  A    A  R    R  N N  N  II  N N  N  G       !!!           |
|           W WW W  AAAAAA  RRRRR   N  N N  II  N  N N  G  GGG   !            |
|           WW  WW  A    A  R   R   N   NN  II  N   NN  G    G                |
|           W    W  A    A  R    R  N    N  II  N    N   GGGG   !!!           |
|                                                                             |
|      For optimal performance we recommend to set                            |
|        NCORE= 4 - approx SQRT( number of cores)                             |
|      NCORE specifies how many cores store one orbital (NPAR=cpu/NCORE).     |
|      This setting can  greatly improve the performance of VASP for DFT.     |
|      The default, NPAR=number of cores might be grossly inefficient         |
|      on modern multi-core architectures or massively parallel machines.     |
|      Do your own testing !!!!                                               |
|      Unfortunately you need to use the default for GW and RPA calculations. |
|      (for HF NCORE is supported but not extensively tested yet)             |
|                                                                             |
 ----------------------------------------------------------------------------- 

 POTCAR:    PAW_PBE C_h_GW 23May2013              
   VRHFIN =C: s2p2                                                              
   LEXCH  = PE                                                                  
   EATOM  =   147.1560 eV,   10.8157 Ry                                         
                                                                                
   TITEL  = PAW_PBE C_h_GW 23May2013                                            
   LULTRA =        F    use ultrasoft PP ?                                      
   IUNSCR =        1    unscreen: 0-lin 1-nonlin 2-no                           
   RPACOR =    0.800    partial core radius                                     
   POMASS =   12.011; ZVAL   =    4.000    mass and valenz                      
   RCORE  =    1.100    outmost cutoff radius                                   
   RWIGS  =    1.200; RWIGS  =    0.635    wigner-seitz radius (au A)           
   ENMAX  =  741.689; ENMIN  =  556.267 eV                                      
   RCLOC  =    0.804    cutoff for local pot                                    
   LCOR   =        T    correct aug charges                                     
   LPAW   =        T    paw PP                                                  
   EAUG   = 1782.225                                                            
   DEXC   =    0.000                                                            
   RMAX   =    1.128    core radius for proj-oper                               
   RAUG   =    1.300    factor for augmentation sphere                          
   RDEP   =    1.162    radius for radial grids                                 
   RDEPT  =    1.000    core radius for aug-charge                              
                                                                                
   Atomic configuration                                                         
    5 entries                                                                   
     n  l   j            E        occ.                                          
     1  0  0.50      -273.3789   2.0000                                         
     2  0  0.50       -13.7508   2.0000                                         
     2  1  0.50        -5.2854   2.0000                                         
     3  2  1.50        -5.4423   0.0000                                         
     4  3  2.50        -5.4423   0.0000                                         
   Description                                                                  
     l       E           TYP  RCUT    TYP  RCUT                                 
     0    -13.7508457     23  1.000                                             
     0     81.6349560     23  1.000                                             
     0    204.0873900     23  1.000                                             
     1     -5.2854382     23  1.100                                             
     1    204.0873900     23  1.100                                             
     1    380.9631280     23  1.100                                             
     2     81.6349560     23  1.100                                             
     2    204.0873900     23  1.100                                             
  local pseudopotential read in
  partial core-charges read in
  partial kinetic energy density read in
  kinetic energy density of atom read in
  atomic valenz-charges read in
  non local Contribution for L=           0  read in
    real space projection operators read in
  non local Contribution for L=           0  read in
    real space projection operators read in
  non local Contribution for L=           0  read in
    real space projection operators read in
  non local Contribution for L=           1  read in
    real space projection operators read in
  non local Contribution for L=           1  read in
    real space projection operators read in
  non local Contribution for L=           1  read in
    real space projection operators read in
  non local Contribution for L=           2  read in
    real space projection operators read in
  non local Contribution for L=           2  read in
    real space projection operators read in
    PAW grid and wavefunctions read in
 
   number of l-projection  operators is LMAX  =           8
   number of lm-projection operators is LMMAX =          22
 
 POTCAR:    PAW_PBE H_h_GW 21Apr2008              
   VRHFIN =H: ultrasoft test                                                    
   LEXCH  = PE                                                                  
   EATOM  =    12.4884 eV,    0.9179 Ry                                         
                                                                                
   TITEL  = PAW_PBE H_h_GW 21Apr2008                                            
   LULTRA =        F    use ultrasoft PP ?                                      
   IUNSCR =        0    unscreen: 0-lin 1-nonlin 2-no                           
   RPACOR =    0.000    partial core radius                                     
   POMASS =    1.000; ZVAL   =    1.000    mass and valenz                      
   RCORE  =    0.800    outmost cutoff radius                                   
   RWIGS  =    1.100; RWIGS  =    0.582    wigner-seitz radius (au A)           
   ENMAX  =  700.000; ENMIN  =  350.000 eV                                      
   RCLOC  =    0.701    cutoff for local pot                                    
   LCOR   =        T    correct aug charges                                     
   LPAW   =        T    paw PP                                                  
   EAUG   = 1000.000                                                            
   RMAX   =    0.819    core radius for proj-oper                               
   RAUG   =    1.000    factor for augmentation sphere                          
   RDEP   =    0.817    radius for radial grids                                 
   RDEPT  =    1.000    core radius for aug-charge                              
                                                                                
   Atomic configuration                                                         
    3 entries                                                                   
     n  l   j            E        occ.                                          
     1  0  0.50        -6.4927   1.0000                                         
     2  1  0.50        -3.4015   0.0000                                         
     3  2  1.50        13.6058   0.0000                                         
   Description                                                                  
     l       E           TYP  RCUT    TYP  RCUT                                 
     0     -6.4927495     23  0.800                                             
     0      6.8029130     23  0.800                                             
     1     -4.0817478     23  0.800                                             
     1    108.8466080     23  0.800                                             
     2     81.6349560     23  0.800                                             
  local pseudopotential read in
  kinetic energy density of atom read in
  atomic valenz-charges read in
  non local Contribution for L=           0  read in
    real space projection operators read in
  non local Contribution for L=           0  read in
    real space projection operators read in
  non local Contribution for L=           1  read in
    real space projection operators read in
  non local Contribution for L=           1  read in
    real space projection operators read in
  non local Contribution for L=           2  read in
    real space projection operators read in
    PAW grid and wavefunctions read in
 
   number of l-projection  operators is LMAX  =           5
   number of lm-projection operators is LMMAX =          13
 
  PAW_PBE C_h_GW 23May2013              :
 energy of atom  1       EATOM= -147.1560
 kinetic energy error for atom=    0.0004 (will be added to EATOM!!)
  PAW_PBE H_h_GW 21Apr2008              :
 energy of atom  2       EATOM=  -12.4884
 kinetic energy error for atom=    0.0001 (will be added to EATOM!!)
 
 
 POSCAR: C H                                     
  positions in cartesian coordinates
  No initial velocities read in
 exchange correlation table for  LEXCH =        8
   RHO(1)=    0.500       N(1)  =     2000
   RHO(2)=  100.500       N(2)  =     4000
 


--------------------------------------------------------------------------------------------------------


 ion  position               nearest neighbor table
   1  0.019  0.005  0.012-   3 1.08   4 1.08   2 1.33
   2  0.981  0.005  0.012-   6 1.08   5 1.08   1 1.33
   3  0.035  0.991  0.034-   1 1.08
   4  0.035  0.020  0.990-   1 1.08
   5  0.965  0.991  0.034-   2 1.08
   6  0.965  0.020  0.990-   2 1.08
 
  LATTYP: Found a simple cubic cell.
 ALAT       =    35.0000000000
  
  Lattice vectors:
  
 A1 = (  35.0000000000,   0.0000000000,   0.0000000000)
 A2 = (   0.0000000000,  35.0000000000,   0.0000000000)
 A3 = (   0.0000000000,   0.0000000000,  35.0000000000)


Analysis of symmetry for initial positions (statically):
=====================================================================
 Subroutine PRICEL returns:
 Original cell was already a primitive cell.
 

 Routine SETGRP: Setting up the symmetry group for a 
 simple cubic supercell.


 Subroutine GETGRP returns: Found  1 space group operations
 (whereof  1 operations were pure point group operations)
 out of a pool of 48 trial point group operations.


The static configuration has the point symmetry C_1 .


Analysis of symmetry for dynamics (positions and initial velocities):
=====================================================================
 Subroutine PRICEL returns:
 Original cell was already a primitive cell.
 

 Routine SETGRP: Setting up the symmetry group for a 
 simple cubic supercell.


 Subroutine GETGRP returns: Found  1 space group operations
 (whereof  1 operations were pure point group operations)
 out of a pool of 48 trial point group operations.


The dynamic configuration has the point symmetry C_1 .
 
 
 KPOINTS: automatic mesh                          

Automatic generation of k-mesh.
Space group operators:
 irot       det(A)        alpha          n_x          n_y          n_z        tau_x        tau_y        tau_z
    1     1.000000     0.000000     1.000000     0.000000     0.000000     0.000000     0.000000     0.000000
 
 Subroutine IBZKPT returns following result:
 ===========================================
 
 Found      1 irreducible k-points:
 
 Following reciprocal coordinates:
            Coordinates               Weight
  0.000000  0.000000  0.000000      1.000000
 
 Following cartesian coordinates:
            Coordinates               Weight
  0.000000  0.000000  0.000000      1.000000
 


--------------------------------------------------------------------------------------------------------




 Dimension of arrays:
   k-points           NKPTS =      1   k-points in BZ     NKDIM =      1   number of bands    NBANDS=     10
   number of dos      NEDOS =    301   number of ions     NIONS =      6
   non local maximal  LDIM  =      8   non local SUM 2l+1 LMDIM =     22
   total plane-waves  NPLWV = ******
   max r-space proj   IRMAX =      1   max aug-charges    IRDMAX=  18497
   dimension x,y,z NGX =   512 NGY =  512 NGZ =  512
   dimension x,y,z NGXF=  1024 NGYF= 1024 NGZF= 1024
   support grid    NGXF=  1024 NGYF= 1024 NGZF= 1024
   ions per type =               2   4
 NGX,Y,Z   is equivalent  to a cutoff of  24.32, 24.32, 24.32 a.u.
 NGXF,Y,Z  is equivalent  to a cutoff of  48.64, 48.64, 48.64 a.u.


 I would recommend the setting:
   dimension x,y,z NGX =   511 NGY =  511 NGZ =  511
 SYSTEM =  C                                       
 POSCAR =  C H                                     

 Startparameter for this run:
   NWRITE =      2    write-flag & timer
   PREC   = acc       normal or accurate (medium, high low for compatibility)
   ISTART =      0    job   : 0-new  1-cont  2-samecut
   ICHARG =      2    charge: 1-file 2-atom 10-const
   ISPIN  =      1    spin polarized calculation?
   LNONCOLLINEAR =      F non collinear calculations
   LSORBIT =      F    spin-orbit coupling
   INIWAV =      1    electr: 0-lowe 1-rand  2-diag
   LASPH  =      T    aspherical Exc in radial PAW
   METAGGA=      F    non-selfconsistent MetaGGA calc.

 Electronic Relaxation 1
   ENCUT  = 2000.0 eV 147.00 Ry   12.12 a.u. 127.63127.63127.63*2*pi/ulx,y,z
   ENINI  = 2000.0     initial cutoff
   ENAUG  = 1782.2 eV  augmentation charge cutoff
   NELM   =     60;   NELMIN=  2; NELMDL= -5     # of ELM steps 
   EDIFF  = 0.1E-06   stopping-criterion for ELM
   LREAL  =      F    real-space projection
   NLSPLINE    = F    spline interpolate recip. space projectors
   LCOMPAT=      F    compatible to vasp.4.4
   GGA_COMPAT  = T    GGA compatible to vasp.4.4-vasp.4.6
   LMAXPAW     = -100 max onsite density
   LMAXMIX     =    2 max onsite mixed and CHGCAR
   VOSKOWN=      0    Vosko Wilk Nusair interpolation
   ROPT   =    0.00000   0.00000
 Ionic relaxation
   EDIFFG = 0.1E-05   stopping-criterion for IOM
   NSW    =      0    number of steps for IOM
   NBLOCK =      1;   KBLOCK =      1    inner block; outer block 
   IBRION =     -1    ionic relax: 0-MD 1-quasi-New 2-CG
   NFREE  =      0    steps in history (QN), initial steepest desc. (CG)
   ISIF   =      2    stress and relaxation
   IWAVPR =     10    prediction:  0-non 1-charg 2-wave 3-comb
   ISYM   =      2    0-nonsym 1-usesym 2-fastsym
   LCORR  =      T    Harris-Foulkes like correction to forces

   POTIM  = 0.5000    time-step for ionic-motion
   TEIN   =    0.0    initial temperature
   TEBEG  =    0.0;   TEEND  =   0.0 temperature during run
   SMASS  =  -3.00    Nose mass-parameter (am)
   estimated Nose-frequenzy (Omega)   =  0.10E-29 period in steps =****** mass=  -0.280E-25a.u.
   SCALEE = 1.0000    scale energy and forces
   NPACO  =    256;   APACO  = 16.0  distance and # of slots for P.C.
   PSTRESS=    0.0 pullay stress

  Mass of Ions in am
   POMASS =  12.01  1.00
  Ionic Valenz
   ZVAL   =   4.00  1.00
  Atomic Wigner-Seitz radii
   RWIGS  =  -1.00 -1.00
  virtual crystal weights 
   VCA    =   1.00  1.00
   NELECT =      12.0000    total number of electrons
   NUPDOWN=      -1.0000    fix difference up-down

 DOS related values:
   EMIN   =  10.00;   EMAX   =-10.00  energy-range for DOS
   EFERMI =   0.00
   ISMEAR =     0;   SIGMA  =   0.01  broadening in eV -4-tet -1-fermi 0-gaus

 Electronic relaxation 2 (details)
   IALGO  =     38    algorithm
   LDIAG  =      T    sub-space diagonalisation (order eigenvalues)
   LSUBROT=      F    optimize rotation matrix (better conditioning)
   TURBO    =      0    0=normal 1=particle mesh
   IRESTART =      0    0=no restart 2=restart with 2 vectors
   NREBOOT  =      0    no. of reboots
   NMIN     =      0    reboot dimension
   EREF     =   0.00    reference energy to select bands
   IMIX   =      4    mixing-type and parameters
     AMIX     =   0.40;   BMIX     =  1.00
     AMIX_MAG =   1.60;   BMIX_MAG =  1.00
     AMIN     =   0.10
     WC   =   100.;   INIMIX=   1;  MIXPRE=   1;  MAXMIX= -45

 Intra band minimization:
   WEIMIN = 0.0000     energy-eigenvalue tresh-hold
   EBREAK =  0.25E-08  absolut break condition
   DEPER  =   0.30     relativ break condition  

   TIME   =   0.40     timestep for ELM

  volume/ion in A,a.u.               =    7145.83     48222.46
  Fermi-wavevector in a.u.,A,eV,Ry     =   0.107086  0.202364  0.156024  0.011467
  Thomas-Fermi vector in A             =   0.697784
 
 Write flags
   LWAVE  =      T    write WAVECAR
   LCHARG =      T    write CHGCAR
   LVTOT  =      F    write LOCPOT, total local potential
   LVHAR  =      F    write LOCPOT, Hartree potential only
   LELF   =      F    write electronic localiz. function (ELF)
   LORBIT =      0    0 simple, 1 ext, 2 COOP (PROOUT)


 Dipole corrections
   LMONO  =      F    monopole corrections only (constant potential shift)
   LDIPOL =      F    correct potential (dipole corrections)
   IDIPOL =      0    1-x, 2-y, 3-z, 4-all directions 
   EPSILON=  1.0000000 bulk dielectric constant

 Exchange correlation treatment:
   GGA     =    --    GGA type
   LEXCH   =     8    internal setting for exchange type
   VOSKOWN=      0    Vosko Wilk Nusair interpolation
   LHFCALC =     F    Hartree Fock is set to
   LHFONE  =     F    Hartree Fock one center treatment
   AEXX    =    0.0000 exact exchange contribution

 Linear response parameters
   LEPSILON=     F    determine dielectric tensor
   LRPA    =     F    only Hartree local field effects (RPA)
   LNABLA  =     F    use nabla operator in PAW spheres
   LVEL    =     F    velocity operator in full k-point grid
   LINTERFAST=   F  fast interpolation
   KINTER  =     0    interpolate to denser k-point grid
   CSHIFT  =0.1000    complex shift for real part using Kramers Kronig
   OMEGAMAX=  -1.0    maximum frequency
   DEG_THRESHOLD= 0.2000000E-02 threshold for treating states as degnerate
   RTIME   =    0.100 relaxation time in fs

 Orbital magnetization related:
   ORBITALMAG=     F  switch on orbital magnetization
   LCHIMAG   =     F  perturbation theory with respect to B field
   DQ        =  0.001000  dq finite difference perturbation B field



--------------------------------------------------------------------------------------------------------


 Static calculation
 charge density and potential will be updated during run
 non-spin polarized calculation
 Variant of blocked Davidson
 Davidson routine will perform the subspace rotation
 perform sub-space diagonalisation
    after iterative eigenvector-optimisation
 modified Broyden-mixing scheme, WC =      100.0
 initial mixing is a Kerker type mixing with AMIX =  0.4000 and BMIX =      1.0000
 Hartree-type preconditioning will be used
 using additional bands            4
 reciprocal scheme for non local part
 use partial core corrections
 calculate Harris-corrections to forces 
   (improved forces if not selfconsistent)
 use gradient corrections 
 use of overlap-Matrix (Vanderbilt PP)
 Gauss-broadening in eV      SIGMA  =   0.01


--------------------------------------------------------------------------------------------------------


  energy-cutoff  :     2000.00
  volume of cell :    42875.00
      direct lattice vectors                 reciprocal lattice vectors
    35.000000000  0.000000000  0.000000000     0.028571429  0.000000000  0.000000000
     0.000000000 35.000000000  0.000000000     0.000000000  0.028571429  0.000000000
     0.000000000  0.000000000 35.000000000     0.000000000  0.000000000  0.028571429

  length of vectors
    35.000000000 35.000000000 35.000000000     0.028571429  0.028571429  0.028571429


 
 k-points in units of 2pi/SCALE and weight: automatic mesh                          
   0.00000000  0.00000000  0.00000000       1.000
 
 k-points in reciprocal lattice and weights: automatic mesh                          
   0.00000000  0.00000000  0.00000000       1.000
 
 position of ions in fractional coordinates (direct lattice) 
   0.01904001  0.00525174  0.01199248
   0.98097218  0.00522781  0.01198891
   0.03511091  0.99057477  0.03389313
   0.03508673  0.01992023  0.99006829
   0.96491652  0.99052860  0.03388867
   0.96490902  0.01987559  0.99006434
 
 position of ions in cartesian coordinates  (Angst):
   0.66640038  0.18381078  0.41973683
  34.33402642  0.18297343  0.41961191
   1.22888182 34.67011699  1.18625971
   1.22803556  0.69720813 34.65239011
  33.77207829 34.66850110  1.18610334
  33.77181573  0.69564575 34.65225192
 


--------------------------------------------------------------------------------------------------------


 use parallel FFT for wavefunctions z direction half grid
 k-point  1 :   0.0000 0.0000 0.0000  plane waves: 4353902

 maximum and minimum number of plane-waves per node :    362837   362811

 maximum number of plane-waves:   4353902
 maximum index in each direction: 
   IXMAX=  127   IYMAX=  127   IZMAX=  127
   IXMIN= -127   IYMIN= -127   IZMIN=    0

 NGX is ok and might be reduce to 510
 NGY is ok and might be reduce to 510
 NGZ is ok and might be reduce to 510

 parallel 3D FFT for wavefunctions:
    minimum data exchange during FFTs selected (reduces bandwidth)
 parallel 3D FFT for charge:
    minimum data exchange during FFTs selected (reduces bandwidth)


 total amount of memory used by VASP on root node  9014689. kBytes
========================================================================

   base      :      30000. kBytes
   nonl-proj :     162539. kBytes
   fftplans  :    3255861. kBytes
   grid      :    5508227. kBytes
   one-center:         11. kBytes
   wavefun   :      58051. kBytes
 
     INWAV:  cpu time    0.0000: real time    0.0000
 Broyden mixing: mesh for mixing (old mesh)
   NGX =255   NGY =255   NGZ =255
  (NGX  =***   NGY  =***   NGZ  =***)
  gives a total of ****** points

 initial charge density was supplied:
 charge density of overlapping atoms calculated
 number of electron      12.0000000 magnetization 
 keeping initial charge density in first step


--------------------------------------------------------------------------------------------------------


 Maximum index for augmentation-charges         1568 (set IRDMAX)


--------------------------------------------------------------------------------------------------------


 First call to EWALD:  gamma=   0.051
 Maximum number of real-space cells 3x 3x 3
 Maximum number of reciprocal cells 3x 3x 3

 FEWALD executed in parallel
    FEWALD:  cpu time    0.0013: real time    0.0013


----------------------------------------- Iteration    1(   1)  ---------------------------------------


    POTLOK:  cpu time   42.6987: real time   42.8155
    SETDIJ:  cpu time    0.1309: real time    0.1313
     EDDAV:  cpu time   14.5256: real time   14.5658
       DOS:  cpu time    0.0000: real time    0.0000
    --------------------------------------------
      LOOP:  cpu time   57.3574: real time   57.5168

 eigenvalue-minimisations  :    20
 total energy-change (2. order) : 0.1273615E+03  (-0.1779394E+03)
 number of electron      12.0000000 magnetization 
 augmentation part       12.0000000 magnetization 

 Free energy of the ion-electron system (eV)
  ---------------------------------------------------
  alpha Z        PSCENC =         0.01012803
  Ewald energy   TEWEN  =       448.21027640
  -Hartree energ DENC   =      -660.65351190
  -exchange      EXHF   =         0.00000000
  -V(xc)+E(xc)   XCENC  =        22.64027261
  PAW double counting   =       231.91448388     -221.34423721
  entropy T*S    EENTRO =        -0.00000000
  eigenvalues    EBANDS =       -37.68043794
  atomic energy  EATOM  =       344.26450629
  Solvation  Ediel_sol  =         0.00000000
  ---------------------------------------------------
  free energy    TOTEN  =       127.36148018 eV

  energy without entropy =      127.36148018  energy(sigma->0) =      127.36148018


--------------------------------------------------------------------------------------------------------




----------------------------------------- Iteration    1(   2)  ---------------------------------------


     EDDAV:  cpu time   24.0448: real time   24.1107
       DOS:  cpu time    0.0000: real time    0.0000
    --------------------------------------------
      LOOP:  cpu time   24.0478: real time   24.1170

 eigenvalue-minimisations  :    40
 total energy-change (2. order) :-0.8046426E+02  (-0.8023244E+02)
 number of electron      12.0000000 magnetization 
 augmentation part       12.0000000 magnetization 

 Free energy of the ion-electron system (eV)
  ---------------------------------------------------
  alpha Z        PSCENC =         0.01012803
  Ewald energy   TEWEN  =       448.21027640
  -Hartree energ DENC   =      -660.65351190
  -exchange      EXHF   =         0.00000000
  -V(xc)+E(xc)   XCENC  =        22.64027261
  PAW double counting   =       231.91448388     -221.34423721
  entropy T*S    EENTRO =        -0.00000000
  eigenvalues    EBANDS =      -118.14469545
  atomic energy  EATOM  =       344.26450629
  Solvation  Ediel_sol  =         0.00000000
  ---------------------------------------------------
  free energy    TOTEN  =        46.89722266 eV

  energy without entropy =       46.89722266  energy(sigma->0) =       46.89722266


--------------------------------------------------------------------------------------------------------




----------------------------------------- Iteration    1(   3)  ---------------------------------------


     EDDAV:  cpu time   16.2385: real time   16.2833
       DOS:  cpu time    0.0000: real time    0.0000
    --------------------------------------------
      LOOP:  cpu time   16.2416: real time   16.6322

 eigenvalue-minimisations  :    24
 total energy-change (2. order) :-0.6520669E+02  (-0.6517289E+02)
 number of electron      12.0000000 magnetization 
 augmentation part       12.0000000 magnetization 

 Free energy of the ion-electron system (eV)
  ---------------------------------------------------
  alpha Z        PSCENC =         0.01012803
  Ewald energy   TEWEN  =       448.21027640
  -Hartree energ DENC   =      -660.65351190
  -exchange      EXHF   =         0.00000000
  -V(xc)+E(xc)   XCENC  =        22.64027261
  PAW double counting   =       231.91448388     -221.34423721
  entropy T*S    EENTRO =        -0.00000000
  eigenvalues    EBANDS =      -183.35138507
  atomic energy  EATOM  =       344.26450629
  Solvation  Ediel_sol  =         0.00000000
  ---------------------------------------------------
  free energy    TOTEN  =       -18.30946695 eV

  energy without entropy =      -18.30946695  energy(sigma->0) =      -18.30946695


--------------------------------------------------------------------------------------------------------




----------------------------------------- Iteration    1(   4)  ---------------------------------------


     EDDAV:  cpu time   20.1365: real time   20.1917
       DOS:  cpu time    0.0000: real time    0.0000
    --------------------------------------------
      LOOP:  cpu time   20.1396: real time   20.1977

 eigenvalue-minimisations  :    32
 total energy-change (2. order) :-0.1734945E+02  (-0.1734340E+02)
 number of electron      12.0000000 magnetization 
 augmentation part       12.0000000 magnetization 

 Free energy of the ion-electron system (eV)
  ---------------------------------------------------
  alpha Z        PSCENC =         0.01012803
  Ewald energy   TEWEN  =       448.21027640
  -Hartree energ DENC   =      -660.65351190
  -exchange      EXHF   =         0.00000000
  -V(xc)+E(xc)   XCENC  =        22.64027261
  PAW double counting   =       231.91448388     -221.34423721
  entropy T*S    EENTRO =        -0.00000000
  eigenvalues    EBANDS =      -200.70083538
  atomic energy  EATOM  =       344.26450629
  Solvation  Ediel_sol  =         0.00000000
  ---------------------------------------------------
  free energy    TOTEN  =       -35.65891727 eV

  energy without entropy =      -35.65891727  energy(sigma->0) =      -35.65891727


--------------------------------------------------------------------------------------------------------




----------------------------------------- Iteration    1(   5)  ---------------------------------------


     EDDAV:  cpu time   24.0397: real time   24.1057
       DOS:  cpu time    0.0000: real time    0.0000
    CHARGE:  cpu time    4.6018: real time    4.6146
    MIXING:  cpu time    1.1702: real time    1.1733
    --------------------------------------------
      LOOP:  cpu time   29.8148: real time   29.8995

 eigenvalue-minimisations  :    40
 total energy-change (2. order) :-0.5884821E+00  (-0.5884263E+00)
 number of electron      12.0000000 magnetization 
 augmentation part        0.0687470 magnetization 

 Broyden mixing:
  rms(total) = 0.96469E+00    rms(broyden)= 0.96469E+00
  rms(prec ) = 0.10019E+01
  weight for this iteration     100.00

 Free energy of the ion-electron system (eV)
  ---------------------------------------------------
  alpha Z        PSCENC =         0.01012803
  Ewald energy   TEWEN  =       448.21027640
  -Hartree energ DENC   =      -660.65351190
  -exchange      EXHF   =         0.00000000
  -V(xc)+E(xc)   XCENC  =        22.64027261
  PAW double counting   =       231.91448388     -221.34423721
  entropy T*S    EENTRO =        -0.00000000
  eigenvalues    EBANDS =      -201.28931748
  atomic energy  EATOM  =       344.26450629
  Solvation  Ediel_sol  =         0.00000000
  ---------------------------------------------------
  free energy    TOTEN  =       -36.24739936 eV

  energy without entropy =      -36.24739936  energy(sigma->0) =      -36.24739936


--------------------------------------------------------------------------------------------------------




----------------------------------------- Iteration    1(   6)  ---------------------------------------


    POTLOK:  cpu time   42.5722: real time   42.6890
    SETDIJ:  cpu time    0.1333: real time    0.1339
     EDDAV:  cpu time   22.0997: real time   22.1602
       DOS:  cpu time    0.0000: real time    0.0000
    CHARGE:  cpu time    4.4722: real time    4.4843
    MIXING:  cpu time    1.2152: real time    1.2185
    --------------------------------------------
      LOOP:  cpu time   70.4947: real time   70.6910

 eigenvalue-minimisations  :    36
 total energy-change (2. order) : 0.3349850E+01  (-0.6630488E+00)
 number of electron      12.0000000 magnetization 
 augmentation part        0.0538780 magnetization 

 Broyden mixing:
  rms(total) = 0.46944E+00    rms(broyden)= 0.46944E+00
  rms(prec ) = 0.48457E+00
  weight for this iteration     100.00

 eigenvalues of (default mixing * dielectric matrix)
  average eigenvalue GAMMA=   1.5412
  1.5412

 Free energy of the ion-electron system (eV)
  ---------------------------------------------------
  alpha Z        PSCENC =         0.01012803
  Ewald energy   TEWEN  =       448.21027640
  -Hartree energ DENC   =      -688.12207068
  -exchange      EXHF   =         0.00000000
  -V(xc)+E(xc)   XCENC  =        24.09506635
  PAW double counting   =       307.37962143     -296.99647652
  entropy T*S    EENTRO =        -0.00000000
  eigenvalues    EBANDS =      -171.73860052
  atomic energy  EATOM  =       344.26450629
  Solvation  Ediel_sol  =         0.00000000
  ---------------------------------------------------
  free energy    TOTEN  =       -32.89754921 eV

  energy without entropy =      -32.89754921  energy(sigma->0) =      -32.89754921


--------------------------------------------------------------------------------------------------------




----------------------------------------- Iteration    1(   7)  ---------------------------------------


    POTLOK:  cpu time   42.6551: real time   42.7717
    SETDIJ:  cpu time    0.1329: real time    0.1332
     EDDAV:  cpu time   24.0261: real time   24.0919
       DOS:  cpu time    0.0000: real time    0.0000
    CHARGE:  cpu time    4.4709: real time    4.4833
    MIXING:  cpu time    1.2497: real time    1.2530
    --------------------------------------------
      LOOP:  cpu time   72.5366: real time   72.7381

 eigenvalue-minimisations  :    40
 total energy-change (2. order) : 0.7856252E+00  (-0.1912436E+00)
 number of electron      12.0000000 magnetization 
 augmentation part        0.0484718 magnetization 

 Broyden mixing:
  rms(total) = 0.17731E+00    rms(broyden)= 0.17731E+00
  rms(prec ) = 0.18234E+00
  weight for this iteration     100.00

 eigenvalues of (default mixing * dielectric matrix)
  average eigenvalue GAMMA=   1.7821
  1.4740  2.0901

 Free energy of the ion-electron system (eV)
  ---------------------------------------------------
  alpha Z        PSCENC =         0.01012803
  Ewald energy   TEWEN  =       448.21027640
  -Hartree energ DENC   =      -707.87670286
  -exchange      EXHF   =         0.00000000
  -V(xc)+E(xc)   XCENC  =        25.36228421
  PAW double counting   =       331.31135935     -320.95879345
  entropy T*S    EENTRO =        -0.00000000
  eigenvalues    EBANDS =      -152.43498199
  atomic energy  EATOM  =       344.26450629
  Solvation  Ediel_sol  =         0.00000000
  ---------------------------------------------------
  free energy    TOTEN  =       -32.11192401 eV

  energy without entropy =      -32.11192401  energy(sigma->0) =      -32.11192401


--------------------------------------------------------------------------------------------------------




----------------------------------------- Iteration    1(   8)  ---------------------------------------


    POTLOK:  cpu time   42.7104: real time   42.8272
    SETDIJ:  cpu time    0.1320: real time    0.1324
     EDDAV:  cpu time   23.0551: real time   23.1182
       DOS:  cpu time    0.0000: real time    0.0000
    CHARGE:  cpu time    4.4713: real time    4.4837
    MIXING:  cpu time    1.2932: real time    1.2966
    --------------------------------------------
      LOOP:  cpu time   71.6641: real time   71.8632

 eigenvalue-minimisations  :    38
 total energy-change (2. order) : 0.1158366E+00  (-0.1416890E-01)
 number of electron      12.0000000 magnetization 
 augmentation part        0.0504039 magnetization 

 Broyden mixing:
  rms(total) = 0.28471E-01    rms(broyden)= 0.28471E-01
  rms(prec ) = 0.32808E-01
  weight for this iteration     100.00

 eigenvalues of (default mixing * dielectric matrix)
  average eigenvalue GAMMA=   1.6645
  1.1263  2.2980  1.5692

 Free energy of the ion-electron system (eV)
  ---------------------------------------------------
  alpha Z        PSCENC =         0.01012803
  Ewald energy   TEWEN  =       448.21027640
  -Hartree energ DENC   =      -714.32971760
  -exchange      EXHF   =         0.00000000
  -V(xc)+E(xc)   XCENC  =        25.88565895
  PAW double counting   =       316.75564297     -306.35142501
  entropy T*S    EENTRO =        -0.00000000
  eigenvalues    EBANDS =      -146.44115743
  atomic energy  EATOM  =       344.26450629
  Solvation  Ediel_sol  =         0.00000000
  ---------------------------------------------------
  free energy    TOTEN  =       -31.99608740 eV

  energy without entropy =      -31.99608740  energy(sigma->0) =      -31.99608740


--------------------------------------------------------------------------------------------------------




----------------------------------------- Iteration    1(   9)  ---------------------------------------


    POTLOK:  cpu time   42.7670: real time   42.8838
    SETDIJ:  cpu time    0.1320: real time    0.1323
     EDDAV:  cpu time   20.1311: real time   20.1859
       DOS:  cpu time    0.0000: real time    0.0000
    CHARGE:  cpu time    4.4809: real time    4.4933
    MIXING:  cpu time    1.3363: real time    1.3398
    --------------------------------------------
      LOOP:  cpu time   68.8495: real time   69.0404

 eigenvalue-minimisations  :    32
 total energy-change (2. order) : 0.1002602E-01  (-0.7604593E-03)
 number of electron      12.0000000 magnetization 
 augmentation part        0.0510535 magnetization 

 Broyden mixing:
  rms(total) = 0.16087E-01    rms(broyden)= 0.16087E-01
  rms(prec ) = 0.19690E-01
  weight for this iteration     100.00

 eigenvalues of (default mixing * dielectric matrix)
  average eigenvalue GAMMA=   1.8514
  2.8268  2.2498  0.9188  1.4102

 Free energy of the ion-electron system (eV)
  ---------------------------------------------------
  alpha Z        PSCENC =         0.01012803
  Ewald energy   TEWEN  =       448.21027640
  -Hartree energ DENC   =      -716.46470482
  -exchange      EXHF   =         0.00000000
  -V(xc)+E(xc)   XCENC  =        25.99541078
  PAW double counting   =       318.20157672     -307.79197172
  entropy T*S    EENTRO =        -0.00000000
  eigenvalues    EBANDS =      -144.41128307
  atomic energy  EATOM  =       344.26450629
  Solvation  Ediel_sol  =         0.00000000
  ---------------------------------------------------
  free energy    TOTEN  =       -31.98606138 eV

  energy without entropy =      -31.98606138  energy(sigma->0) =      -31.98606138


--------------------------------------------------------------------------------------------------------




----------------------------------------- Iteration    1(  10)  ---------------------------------------


    POTLOK:  cpu time   42.8385: real time   42.9556
    SETDIJ:  cpu time    0.1323: real time    0.1326
     EDDAV:  cpu time   18.1947: real time   18.2445
       DOS:  cpu time    0.0000: real time    0.0000
    CHARGE:  cpu time    4.4735: real time    4.4859
    MIXING:  cpu time    1.3906: real time    1.3942
    --------------------------------------------
      LOOP:  cpu time   67.0317: real time   67.2176

 eigenvalue-minimisations  :    28
 total energy-change (2. order) : 0.6094316E-02  (-0.5390118E-03)
 number of electron      12.0000000 magnetization 
 augmentation part        0.0513799 magnetization 

 Broyden mixing:
  rms(total) = 0.65884E-02    rms(broyden)= 0.65884E-02
  rms(prec ) = 0.90686E-02
  weight for this iteration     100.00

 eigenvalues of (default mixing * dielectric matrix)
  average eigenvalue GAMMA=   1.7879
  3.1262  2.3748  1.3772  0.9712  1.0900

 Free energy of the ion-electron system (eV)
  ---------------------------------------------------
  alpha Z        PSCENC =         0.01012803
  Ewald energy   TEWEN  =       448.21027640
  -Hartree energ DENC   =      -718.71918654
  -exchange      EXHF   =         0.00000000
  -V(xc)+E(xc)   XCENC  =        26.06689975
  PAW double counting   =       323.64968590     -313.24076956
  entropy T*S    EENTRO =        -0.00000000
  eigenvalues    EBANDS =      -142.22150735
  atomic energy  EATOM  =       344.26450629
  Solvation  Ediel_sol  =         0.00000000
  ---------------------------------------------------
  free energy    TOTEN  =       -31.97996707 eV

  energy without entropy =      -31.97996707  energy(sigma->0) =      -31.97996707


--------------------------------------------------------------------------------------------------------




----------------------------------------- Iteration    1(  11)  ---------------------------------------


    POTLOK:  cpu time   42.8703: real time   42.9874
    SETDIJ:  cpu time    0.1320: real time    0.1323
     EDDAV:  cpu time   16.2460: real time   16.2907
       DOS:  cpu time    0.0000: real time    0.0000
    CHARGE:  cpu time    4.4721: real time    4.4842
    MIXING:  cpu time    1.4475: real time    1.4516
    --------------------------------------------
      LOOP:  cpu time   65.1700: real time   65.3517

 eigenvalue-minimisations  :    24
 total energy-change (2. order) :-0.6768001E-03  (-0.5976291E-04)
 number of electron      12.0000000 magnetization 
 augmentation part        0.0514879 magnetization 

 Broyden mixing:
  rms(total) = 0.44409E-02    rms(broyden)= 0.44409E-02
  rms(prec ) = 0.64174E-02
  weight for this iteration     100.00

 eigenvalues of (default mixing * dielectric matrix)
  average eigenvalue GAMMA=   1.9526
  3.6245  2.5398  2.1532  1.4269  0.9857  0.9857

 Free energy of the ion-electron system (eV)
  ---------------------------------------------------
  alpha Z        PSCENC =         0.01012803
  Ewald energy   TEWEN  =       448.21027640
  -Hartree energ DENC   =      -719.31884897
  -exchange      EXHF   =         0.00000000
  -V(xc)+E(xc)   XCENC  =        26.07569523
  PAW double counting   =       324.88486497     -314.47644202
  entropy T*S    EENTRO =        -0.00000000
  eigenvalues    EBANDS =      -141.63082380
  atomic energy  EATOM  =       344.26450629
  Solvation  Ediel_sol  =         0.00000000
  ---------------------------------------------------
  free energy    TOTEN  =       -31.98064387 eV

  energy without entropy =      -31.98064387  energy(sigma->0) =      -31.98064387


--------------------------------------------------------------------------------------------------------




----------------------------------------- Iteration    1(  12)  ---------------------------------------


    POTLOK:  cpu time   42.8984: real time   43.0156
    SETDIJ:  cpu time    0.1324: real time    0.1328
     EDDAV:  cpu time   15.2800: real time   15.3218
       DOS:  cpu time    0.0000: real time    0.0000
    CHARGE:  cpu time    4.4714: real time    4.4838
    MIXING:  cpu time    1.5127: real time    1.5167
    --------------------------------------------
      LOOP:  cpu time   64.2971: real time   64.4757

 eigenvalue-minimisations  :    22
 total energy-change (2. order) :-0.4766959E-02  (-0.1160556E-03)
 number of electron      12.0000000 magnetization 
 augmentation part        0.0515766 magnetization 

 Broyden mixing:
  rms(total) = 0.20750E-02    rms(broyden)= 0.20750E-02
  rms(prec ) = 0.31719E-02
  weight for this iteration     100.00

 eigenvalues of (default mixing * dielectric matrix)
  average eigenvalue GAMMA=   2.0754
  4.9041  2.8204  2.2634  1.3983  0.9396  1.1008  1.1008

 Free energy of the ion-electron system (eV)
  ---------------------------------------------------
  alpha Z        PSCENC =         0.01012803
  Ewald energy   TEWEN  =       448.21027640
  -Hartree energ DENC   =      -720.23628625
  -exchange      EXHF   =         0.00000000
  -V(xc)+E(xc)   XCENC  =        26.09265763
  PAW double counting   =       325.82693646     -315.41891874
  entropy T*S    EENTRO =        -0.00000000
  eigenvalues    EBANDS =      -140.73471064
  atomic energy  EATOM  =       344.26450629
  Solvation  Ediel_sol  =         0.00000000
  ---------------------------------------------------
  free energy    TOTEN  =       -31.98541082 eV

  energy without entropy =      -31.98541082  energy(sigma->0) =      -31.98541082


--------------------------------------------------------------------------------------------------------




----------------------------------------- Iteration    1(  13)  ---------------------------------------


    POTLOK:  cpu time   42.9157: real time   43.0329
    SETDIJ:  cpu time    0.1337: real time    0.1340
     EDDAV:  cpu time   16.2423: real time   16.2871
       DOS:  cpu time    0.0000: real time    0.0000
    CHARGE:  cpu time    4.4700: real time    4.4821
    MIXING:  cpu time    1.5681: real time    1.5725
    --------------------------------------------
      LOOP:  cpu time   65.3318: real time   65.5134

 eigenvalue-minimisations  :    24
 total energy-change (2. order) :-0.3461217E-02  (-0.5014923E-04)
 number of electron      12.0000000 magnetization 
 augmentation part        0.0516290 magnetization 

 Broyden mixing:
  rms(total) = 0.15241E-02    rms(broyden)= 0.15241E-02
  rms(prec ) = 0.21241E-02
  weight for this iteration     100.00

 eigenvalues of (default mixing * dielectric matrix)
  average eigenvalue GAMMA=   2.2219
  5.5225  3.0917  2.3539  2.3539  1.3471  0.9380  1.1130  1.0550

 Free energy of the ion-electron system (eV)
  ---------------------------------------------------
  alpha Z        PSCENC =         0.01012803
  Ewald energy   TEWEN  =       448.21027640
  -Hartree energ DENC   =      -720.62093934
  -exchange      EXHF   =         0.00000000
  -V(xc)+E(xc)   XCENC  =        26.09669888
  PAW double counting   =       326.01518140     -315.60732371
  entropy T*S    EENTRO =        -0.00000000
  eigenvalues    EBANDS =      -140.35740000
  atomic energy  EATOM  =       344.26450629
  Solvation  Ediel_sol  =         0.00000000
  ---------------------------------------------------
  free energy    TOTEN  =       -31.98887204 eV

  energy without entropy =      -31.98887204  energy(sigma->0) =      -31.98887204


--------------------------------------------------------------------------------------------------------




----------------------------------------- Iteration    1(  14)  ---------------------------------------


    POTLOK:  cpu time   42.9376: real time   43.0548
    SETDIJ:  cpu time    0.1319: real time    0.1322
     EDDAV:  cpu time   14.2941: real time   14.3332
       DOS:  cpu time    0.0000: real time    0.0000
    CHARGE:  cpu time    4.4689: real time    4.4813
    MIXING:  cpu time    1.6301: real time    1.6343
    --------------------------------------------
      LOOP:  cpu time   63.4647: real time   63.6412

 eigenvalue-minimisations  :    20
 total energy-change (2. order) :-0.4168036E-02  (-0.6115351E-04)
 number of electron      12.0000000 magnetization 
 augmentation part        0.0516680 magnetization 

 Broyden mixing:
  rms(total) = 0.93766E-03    rms(broyden)= 0.93766E-03
  rms(prec ) = 0.11910E-02
  weight for this iteration     100.00

 eigenvalues of (default mixing * dielectric matrix)
  average eigenvalue GAMMA=   2.2536
  6.1221  3.8563  2.4353  2.2199  1.4485  0.9543  0.9543  1.1458  1.1458

 Free energy of the ion-electron system (eV)
  ---------------------------------------------------
  alpha Z        PSCENC =         0.01012803
  Ewald energy   TEWEN  =       448.21027640
  -Hartree energ DENC   =      -720.71564053
  -exchange      EXHF   =         0.00000000
  -V(xc)+E(xc)   XCENC  =        26.09059382
  PAW double counting   =       325.62349892     -315.21485310
  entropy T*S    EENTRO =        -0.00000000
  eigenvalues    EBANDS =      -140.26154992
  atomic energy  EATOM  =       344.26450629
  Solvation  Ediel_sol  =         0.00000000
  ---------------------------------------------------
  free energy    TOTEN  =       -31.99304008 eV

  energy without entropy =      -31.99304008  energy(sigma->0) =      -31.99304008


--------------------------------------------------------------------------------------------------------




----------------------------------------- Iteration    1(  15)  ---------------------------------------


    POTLOK:  cpu time   42.9516: real time   43.0729
    SETDIJ:  cpu time    0.1319: real time    0.1322
     EDDAV:  cpu time   20.1352: real time   20.1907
       DOS:  cpu time    0.0000: real time    0.0000
    CHARGE:  cpu time    4.4770: real time    4.4891
    MIXING:  cpu time    1.7105: real time    1.7152
    --------------------------------------------
      LOOP:  cpu time   69.4084: real time   69.6059

 eigenvalue-minimisations  :    32
 total energy-change (2. order) :-0.1126967E-02  (-0.1711355E-04)
 number of electron      12.0000000 magnetization 
 augmentation part        0.0517694 magnetization 

 Broyden mixing:
  rms(total) = 0.63386E-03    rms(broyden)= 0.63386E-03
  rms(prec ) = 0.79604E-03
  weight for this iteration     100.00

 eigenvalues of (default mixing * dielectric matrix)
  average eigenvalue GAMMA=   2.2497
  6.7324  3.9822  2.3764  2.3764  1.8362  1.3124  1.2168  0.9665  0.9665  0.7313

 Free energy of the ion-electron system (eV)
  ---------------------------------------------------
  alpha Z        PSCENC =         0.01012803
  Ewald energy   TEWEN  =       448.21027640
  -Hartree energ DENC   =      -720.78840976
  -exchange      EXHF   =         0.00000000
  -V(xc)+E(xc)   XCENC  =        26.09046184
  PAW double counting   =       325.79763443     -315.38934236
  entropy T*S    EENTRO =        -0.00000000
  eigenvalues    EBANDS =      -140.18942192
  atomic energy  EATOM  =       344.26450629
  Solvation  Ediel_sol  =         0.00000000
  ---------------------------------------------------
  free energy    TOTEN  =       -31.99416704 eV

  energy without entropy =      -31.99416704  energy(sigma->0) =      -31.99416704


--------------------------------------------------------------------------------------------------------




----------------------------------------- Iteration    1(  16)  ---------------------------------------


    POTLOK:  cpu time   42.9964: real time   43.1138
    SETDIJ:  cpu time    0.1320: real time    0.1323
     EDDAV:  cpu time   18.2139: real time   18.2637
       DOS:  cpu time    0.0000: real time    0.0000
    CHARGE:  cpu time    4.4721: real time    4.4845
    MIXING:  cpu time    1.7865: real time    1.7914
    --------------------------------------------
      LOOP:  cpu time   67.6030: real time   67.7913

 eigenvalue-minimisations  :    28
 total energy-change (2. order) :-0.8562066E-03  (-0.4635360E-05)
 number of electron      12.0000000 magnetization 
 augmentation part        0.0517733 magnetization 

 Broyden mixing:
  rms(total) = 0.28856E-03    rms(broyden)= 0.28856E-03
  rms(prec ) = 0.39785E-03
  weight for this iteration     100.00

 eigenvalues of (default mixing * dielectric matrix)
  average eigenvalue GAMMA=   2.3455
  7.5520  4.6345  2.7909  2.3074  2.0931  1.4051  1.1302  1.1302  0.9391  0.9391
  0.8793

 Free energy of the ion-electron system (eV)
  ---------------------------------------------------
  alpha Z        PSCENC =         0.01012803
  Ewald energy   TEWEN  =       448.21027640
  -Hartree energ DENC   =      -720.79997804
  -exchange      EXHF   =         0.00000000
  -V(xc)+E(xc)   XCENC  =        26.08824628
  PAW double counting   =       326.42817442     -316.02023483
  entropy T*S    EENTRO =        -0.00000000
  eigenvalues    EBANDS =      -140.17614181
  atomic energy  EATOM  =       344.26450629
  Solvation  Ediel_sol  =         0.00000000
  ---------------------------------------------------
  free energy    TOTEN  =       -31.99502325 eV

  energy without entropy =      -31.99502325  energy(sigma->0) =      -31.99502325


--------------------------------------------------------------------------------------------------------




----------------------------------------- Iteration    1(  17)  ---------------------------------------


    POTLOK:  cpu time   42.9933: real time   43.1108
    SETDIJ:  cpu time    0.1321: real time    0.1324
     EDDAV:  cpu time   24.0398: real time   24.1057
       DOS:  cpu time    0.0000: real time    0.0000
    CHARGE:  cpu time    4.4705: real time    4.4829
    MIXING:  cpu time    1.8699: real time    1.8748
    --------------------------------------------
      LOOP:  cpu time   73.5079: real time   73.7114

 eigenvalue-minimisations  :    40
 total energy-change (2. order) :-0.4214424E-03  (-0.2069912E-05)
 number of electron      12.0000000 magnetization 
 augmentation part        0.0517858 magnetization 

 Broyden mixing:
  rms(total) = 0.18346E-03    rms(broyden)= 0.18346E-03
  rms(prec ) = 0.24621E-03
  weight for this iteration     100.00

 eigenvalues of (default mixing * dielectric matrix)
  average eigenvalue GAMMA=   2.4533
  8.1439  5.0071  3.2741  2.3212  2.3212  2.0406  1.4129  1.1085  1.0438  1.0142
  0.8994  0.8523

 Free energy of the ion-electron system (eV)
  ---------------------------------------------------
  alpha Z        PSCENC =         0.01012803
  Ewald energy   TEWEN  =       448.21027640
  -Hartree energ DENC   =      -720.80615400
  -exchange      EXHF   =         0.00000000
  -V(xc)+E(xc)   XCENC  =        26.08745900
  PAW double counting   =       326.64984388     -316.24196117
  entropy T*S    EENTRO =        -0.00000000
  eigenvalues    EBANDS =      -140.16954312
  atomic energy  EATOM  =       344.26450629
  Solvation  Ediel_sol  =         0.00000000
  ---------------------------------------------------
  free energy    TOTEN  =       -31.99544469 eV

  energy without entropy =      -31.99544469  energy(sigma->0) =      -31.99544469


--------------------------------------------------------------------------------------------------------




----------------------------------------- Iteration    1(  18)  ---------------------------------------


    POTLOK:  cpu time   42.9377: real time   43.0552
    SETDIJ:  cpu time    0.1364: real time    0.1371
     EDDAV:  cpu time   18.2107: real time   18.2606
       DOS:  cpu time    0.0000: real time    0.0000
    CHARGE:  cpu time    4.4750: real time    4.4871
    MIXING:  cpu time    1.9498: real time    1.9552
    --------------------------------------------
      LOOP:  cpu time   67.7118: real time   67.9002

 eigenvalue-minimisations  :    28
 total energy-change (2. order) :-0.3031447E-03  (-0.7198574E-06)
 number of electron      12.0000000 magnetization 
 augmentation part        0.0517832 magnetization 

 Broyden mixing:
  rms(total) = 0.88486E-04    rms(broyden)= 0.88486E-04
  rms(prec ) = 0.11339E-03
  weight for this iteration     100.00

 eigenvalues of (default mixing * dielectric matrix)
  average eigenvalue GAMMA=   2.4528
  8.3796  5.5143  3.6004  2.6575  2.2894  1.9996  1.3241  1.3241  1.0370  1.0370
  0.9834  0.9124  0.8271

 Free energy of the ion-electron system (eV)
  ---------------------------------------------------
  alpha Z        PSCENC =         0.01012803
  Ewald energy   TEWEN  =       448.21027640
  -Hartree energ DENC   =      -720.82116980
  -exchange      EXHF   =         0.00000000
  -V(xc)+E(xc)   XCENC  =        26.08731586
  PAW double counting   =       326.75299963     -316.34518981
  entropy T*S    EENTRO =        -0.00000000
  eigenvalues    EBANDS =      -140.15461443
  atomic energy  EATOM  =       344.26450629
  Solvation  Ediel_sol  =         0.00000000
  ---------------------------------------------------
  free energy    TOTEN  =       -31.99574784 eV

  energy without entropy =      -31.99574784  energy(sigma->0) =      -31.99574784


--------------------------------------------------------------------------------------------------------




----------------------------------------- Iteration    1(  19)  ---------------------------------------


    POTLOK:  cpu time   42.9096: real time   43.0274
    SETDIJ:  cpu time    0.1321: real time    0.1325
     EDDAV:  cpu time   16.2553: real time   16.3000
       DOS:  cpu time    0.0000: real time    0.0000
    CHARGE:  cpu time    4.4730: real time    4.4851
    MIXING:  cpu time    2.0380: real time    2.0436
    --------------------------------------------
      LOOP:  cpu time   65.8102: real time   65.9936

 eigenvalue-minimisations  :    24
 total energy-change (2. order) :-0.6826547E-04  (-0.5423255E-07)
 number of electron      12.0000000 magnetization 
 augmentation part        0.0517848 magnetization 

 Broyden mixing:
  rms(total) = 0.53822E-04    rms(broyden)= 0.53822E-04
  rms(prec ) = 0.70880E-04
  weight for this iteration     100.00

 eigenvalues of (default mixing * dielectric matrix)
  average eigenvalue GAMMA=   2.5644
  8.9381  5.8814  4.1665  2.9597  2.2645  2.1588  2.1588  1.3883  1.2088  1.0262
  1.0262  0.9637  0.9194  0.8411

 Free energy of the ion-electron system (eV)
  ---------------------------------------------------
  alpha Z        PSCENC =         0.01012803
  Ewald energy   TEWEN  =       448.21027640
  -Hartree energ DENC   =      -720.82178870
  -exchange      EXHF   =         0.00000000
  -V(xc)+E(xc)   XCENC  =        26.08719561
  PAW double counting   =       326.70722879     -316.29937898
  entropy T*S    EENTRO =        -0.00000000
  eigenvalues    EBANDS =      -140.15398356
  atomic energy  EATOM  =       344.26450629
  Solvation  Ediel_sol  =         0.00000000
  ---------------------------------------------------
  free energy    TOTEN  =       -31.99581610 eV

  energy without entropy =      -31.99581610  energy(sigma->0) =      -31.99581610


--------------------------------------------------------------------------------------------------------




----------------------------------------- Iteration    1(  20)  ---------------------------------------


    POTLOK:  cpu time   42.7554: real time   42.8722
    SETDIJ:  cpu time    0.1331: real time    0.1334
     EDDAV:  cpu time   22.1078: real time   22.1686
       DOS:  cpu time    0.0000: real time    0.0000
    CHARGE:  cpu time    4.4727: real time    4.4851
    MIXING:  cpu time    2.1359: real time    2.1417
    --------------------------------------------
      LOOP:  cpu time   71.6071: real time   71.8061

 eigenvalue-minimisations  :    36
 total energy-change (2. order) :-0.6418939E-04  (-0.3466334E-07)
 number of electron      12.0000000 magnetization 
 augmentation part        0.0517926 magnetization 

 Broyden mixing:
  rms(total) = 0.27655E-04    rms(broyden)= 0.27655E-04
  rms(prec ) = 0.33907E-04
  weight for this iteration     100.00

 eigenvalues of (default mixing * dielectric matrix)
  average eigenvalue GAMMA=   2.5148
  9.0304  6.0594  4.3932  2.7477  2.7477  2.3008  1.9517  1.3362  1.3362  1.0340
  1.0340  0.9954  0.9954  0.9156  0.8437

 Free energy of the ion-electron system (eV)
  ---------------------------------------------------
  alpha Z        PSCENC =         0.01012803
  Ewald energy   TEWEN  =       448.21027640
  -Hartree energ DENC   =      -720.82662072
  -exchange      EXHF   =         0.00000000
  -V(xc)+E(xc)   XCENC  =        26.08723780
  PAW double counting   =       326.62184901     -316.21394969
  entropy T*S    EENTRO =        -0.00000000
  eigenvalues    EBANDS =      -140.14930741
  atomic energy  EATOM  =       344.26450629
  Solvation  Ediel_sol  =         0.00000000
  ---------------------------------------------------
  free energy    TOTEN  =       -31.99588029 eV

  energy without entropy =      -31.99588029  energy(sigma->0) =      -31.99588029


--------------------------------------------------------------------------------------------------------




----------------------------------------- Iteration    1(  21)  ---------------------------------------


    POTLOK:  cpu time   42.7454: real time   42.8622
    SETDIJ:  cpu time    0.1329: real time    0.1332
     EDDAV:  cpu time   24.0465: real time   24.1123
       DOS:  cpu time    0.0000: real time    0.0000
    CHARGE:  cpu time    4.4722: real time    4.4846
    MIXING:  cpu time    2.2332: real time    2.2393
    --------------------------------------------
      LOOP:  cpu time   73.6323: real time   73.8368

 eigenvalue-minimisations  :    40
 total energy-change (2. order) :-0.1258239E-04  (-0.3422906E-08)
 number of electron      12.0000000 magnetization 
 augmentation part        0.0517925 magnetization 

 Broyden mixing:
  rms(total) = 0.16243E-04    rms(broyden)= 0.16243E-04
  rms(prec ) = 0.21109E-04
  weight for this iteration     100.00

 eigenvalues of (default mixing * dielectric matrix)
  average eigenvalue GAMMA=   2.5713
  9.3097  6.3549  4.7603  3.3859  2.5643  2.2987  2.0501  2.0501  1.3461  1.2860
  1.0382  1.0382  0.8352  0.9453  0.9453  0.9335

 Free energy of the ion-electron system (eV)
  ---------------------------------------------------
  alpha Z        PSCENC =         0.01012803
  Ewald energy   TEWEN  =       448.21027640
  -Hartree energ DENC   =      -720.82835762
  -exchange      EXHF   =         0.00000000
  -V(xc)+E(xc)   XCENC  =        26.08727434
  PAW double counting   =       326.64049543     -316.23261030
  entropy T*S    EENTRO =        -0.00000000
  eigenvalues    EBANDS =      -140.14760545
  atomic energy  EATOM  =       344.26450629
  Solvation  Ediel_sol  =         0.00000000
  ---------------------------------------------------
  free energy    TOTEN  =       -31.99589288 eV

  energy without entropy =      -31.99589288  energy(sigma->0) =      -31.99589288


--------------------------------------------------------------------------------------------------------




----------------------------------------- Iteration    1(  22)  ---------------------------------------


    POTLOK:  cpu time   42.7571: real time   42.8739
    SETDIJ:  cpu time    0.1321: real time    0.1324
     EDDAV:  cpu time   14.3080: real time   14.3471
       DOS:  cpu time    0.0000: real time    0.0000
    CHARGE:  cpu time    4.4684: real time    4.4808
    MIXING:  cpu time    2.3362: real time    2.3425
    --------------------------------------------
      LOOP:  cpu time   64.0040: real time   64.1818

 eigenvalue-minimisations  :    20
 total energy-change (2. order) :-0.1186951E-04  (-0.3082947E-08)
 number of electron      12.0000000 magnetization 
 augmentation part        0.0517925 magnetization 

 Broyden mixing:
  rms(total) = 0.77307E-05    rms(broyden)= 0.77307E-05
  rms(prec ) = 0.10148E-04
  weight for this iteration     100.00

 eigenvalues of (default mixing * dielectric matrix)
  average eigenvalue GAMMA=   2.5771
  9.3648  6.7293  4.9937  3.7421  2.7995  2.3464  2.3464  1.9617  1.3925  1.1438
  1.1438  1.0743  1.0743  0.8427  0.9732  0.9732  0.9086

 Free energy of the ion-electron system (eV)
  ---------------------------------------------------
  alpha Z        PSCENC =         0.01012803
  Ewald energy   TEWEN  =       448.21027640
  -Hartree energ DENC   =      -720.82822407
  -exchange      EXHF   =         0.00000000
  -V(xc)+E(xc)   XCENC  =        26.08722665
  PAW double counting   =       326.66400118     -316.25612938
  entropy T*S    EENTRO =        -0.00000000
  eigenvalues    EBANDS =      -140.14768985
  atomic energy  EATOM  =       344.26450629
  Solvation  Ediel_sol  =         0.00000000
  ---------------------------------------------------
  free energy    TOTEN  =       -31.99590475 eV

  energy without entropy =      -31.99590475  energy(sigma->0) =      -31.99590475


--------------------------------------------------------------------------------------------------------




----------------------------------------- Iteration    1(  23)  ---------------------------------------


    POTLOK:  cpu time   42.7670: real time   42.8838
    SETDIJ:  cpu time    0.1319: real time    0.1322
     EDDAV:  cpu time   16.2449: real time   16.2894
       DOS:  cpu time    0.0000: real time    0.0000
    CHARGE:  cpu time    4.4732: real time    4.4856
    MIXING:  cpu time    2.4394: real time    2.4460
    --------------------------------------------
      LOOP:  cpu time   66.0586: real time   66.2419

 eigenvalue-minimisations  :    24
 total energy-change (2. order) :-0.4134159E-05  (-0.9704362E-09)
 number of electron      12.0000000 magnetization 
 augmentation part        0.0517923 magnetization 

 Broyden mixing:
  rms(total) = 0.52912E-05    rms(broyden)= 0.52912E-05
  rms(prec ) = 0.65805E-05
  weight for this iteration     100.00

 eigenvalues of (default mixing * dielectric matrix)
  average eigenvalue GAMMA=   2.6208
  9.4893  6.9646  5.2930  4.0158  2.9105  2.5541  2.3190  2.3190  1.9223  1.3506
  1.2846  1.0416  1.0416  0.8404  0.9010  0.9729  0.9729  0.9814

 Free energy of the ion-electron system (eV)
  ---------------------------------------------------
  alpha Z        PSCENC =         0.01012803
  Ewald energy   TEWEN  =       448.21027640
  -Hartree energ DENC   =      -720.82838028
  -exchange      EXHF   =         0.00000000
  -V(xc)+E(xc)   XCENC  =        26.08722215
  PAW double counting   =       326.67623577     -316.26837153
  entropy T*S    EENTRO =        -0.00000000
  eigenvalues    EBANDS =      -140.14752571
  atomic energy  EATOM  =       344.26450629
  Solvation  Ediel_sol  =         0.00000000
  ---------------------------------------------------
  free energy    TOTEN  =       -31.99590888 eV

  energy without entropy =      -31.99590888  energy(sigma->0) =      -31.99590888


--------------------------------------------------------------------------------------------------------




----------------------------------------- Iteration    1(  24)  ---------------------------------------


    POTLOK:  cpu time   42.8263: real time   42.9433
    SETDIJ:  cpu time    0.1320: real time    0.1323
     EDDAV:  cpu time   19.1548: real time   19.2076
       DOS:  cpu time    0.0000: real time    0.0000
    CHARGE:  cpu time    4.4756: real time    4.4877
    MIXING:  cpu time    2.5476: real time    2.5547
    --------------------------------------------
      LOOP:  cpu time   69.1385: real time   69.3305

 eigenvalue-minimisations  :    30
 total energy-change (2. order) :-0.2546115E-05  (-0.8579413E-09)
 number of electron      12.0000000 magnetization 
 augmentation part        0.0517924 magnetization 

 Broyden mixing:
  rms(total) = 0.26078E-05    rms(broyden)= 0.26078E-05
  rms(prec ) = 0.31858E-05
  weight for this iteration     100.00

 eigenvalues of (default mixing * dielectric matrix)
  average eigenvalue GAMMA=   2.6165
  9.5339  7.3234  5.4767  4.4039  3.1067  2.7651  2.3536  2.2607  1.9745  1.3733
  1.2373  1.1001  1.1001  1.0336  1.0336  0.8385  0.9409  0.9409  0.9157

 Free energy of the ion-electron system (eV)
  ---------------------------------------------------
  alpha Z        PSCENC =         0.01012803
  Ewald energy   TEWEN  =       448.21027640
  -Hartree energ DENC   =      -720.82816075
  -exchange      EXHF   =         0.00000000
  -V(xc)+E(xc)   XCENC  =        26.08720674
  PAW double counting   =       326.66784417     -316.25997337
  entropy T*S    EENTRO =        -0.00000000
  eigenvalues    EBANDS =      -140.14773894
  atomic energy  EATOM  =       344.26450629
  Solvation  Ediel_sol  =         0.00000000
  ---------------------------------------------------
  free energy    TOTEN  =       -31.99591143 eV

  energy without entropy =      -31.99591143  energy(sigma->0) =      -31.99591143


--------------------------------------------------------------------------------------------------------




----------------------------------------- Iteration    1(  25)  ---------------------------------------


    POTLOK:  cpu time   42.8851: real time   43.0024
    SETDIJ:  cpu time    0.1321: real time    0.1324
     EDDAV:  cpu time   16.2528: real time   16.2974
       DOS:  cpu time    0.0000: real time    0.0000
    CHARGE:  cpu time    4.4726: real time    4.4850
    MIXING:  cpu time    2.6736: real time    2.6807
    --------------------------------------------
      LOOP:  cpu time   66.4183: real time   66.6029

 eigenvalue-minimisations  :    24
 total energy-change (2. order) :-0.6236743E-06  (-0.4218119E-09)
 number of electron      12.0000000 magnetization 
 augmentation part        0.0517924 magnetization 

 Broyden mixing:
  rms(total) = 0.17150E-05    rms(broyden)= 0.17150E-05
  rms(prec ) = 0.20690E-05
  weight for this iteration     100.00

 eigenvalues of (default mixing * dielectric matrix)
  average eigenvalue GAMMA=   2.6643
  9.6165  7.5444  5.8137  4.5865  3.6241  2.5506  2.4431  2.4431  2.2731  1.9414
  1.3493  1.2921  1.0726  1.0726  0.8398  0.9848  0.9848  0.9955  0.9287  0.9287

 Free energy of the ion-electron system (eV)
  ---------------------------------------------------
  alpha Z        PSCENC =         0.01012803
  Ewald energy   TEWEN  =       448.21027640
  -Hartree energ DENC   =      -720.82819188
  -exchange      EXHF   =         0.00000000
  -V(xc)+E(xc)   XCENC  =        26.08720802
  PAW double counting   =       326.66715013     -316.25927898
  entropy T*S    EENTRO =        -0.00000000
  eigenvalues    EBANDS =      -140.14771006
  atomic energy  EATOM  =       344.26450629
  Solvation  Ediel_sol  =         0.00000000
  ---------------------------------------------------
  free energy    TOTEN  =       -31.99591205 eV

  energy without entropy =      -31.99591205  energy(sigma->0) =      -31.99591205


--------------------------------------------------------------------------------------------------------




----------------------------------------- Iteration    1(  26)  ---------------------------------------


    POTLOK:  cpu time   42.7443: real time   42.8611
    SETDIJ:  cpu time    0.1325: real time    0.1328
     EDDAV:  cpu time   18.2104: real time   18.2605
       DOS:  cpu time    0.0000: real time    0.0000
    CHARGE:  cpu time    4.4716: real time    4.4837
    MIXING:  cpu time    2.7834: real time    2.7911
    --------------------------------------------
      LOOP:  cpu time   68.3443: real time   68.5339

 eigenvalue-minimisations  :    28
 total energy-change (2. order) :-0.4712231E-06  (-0.3744773E-09)
 number of electron      12.0000000 magnetization 
 augmentation part        0.0517924 magnetization 

 Broyden mixing:
  rms(total) = 0.98113E-06    rms(broyden)= 0.98113E-06
  rms(prec ) = 0.11123E-05
  weight for this iteration     100.00

 eigenvalues of (default mixing * dielectric matrix)
  average eigenvalue GAMMA=   2.6531
  9.6491  7.7349  5.9341  4.8725  3.6385  2.9270  2.5281  2.3069  2.3069  1.9994
  1.3196  1.3196  1.1045  1.1045  1.1853  1.1255  0.8397  0.9798  0.9798  0.9171
  0.9414

 Free energy of the ion-electron system (eV)
  ---------------------------------------------------
  alpha Z        PSCENC =         0.01012803
  Ewald energy   TEWEN  =       448.21027640
  -Hartree energ DENC   =      -720.82833751
  -exchange      EXHF   =         0.00000000
  -V(xc)+E(xc)   XCENC  =        26.08721181
  PAW double counting   =       326.66922922     -316.26135985
  entropy T*S    EENTRO =        -0.00000000
  eigenvalues    EBANDS =      -140.14756691
  atomic energy  EATOM  =       344.26450629
  Solvation  Ediel_sol  =         0.00000000
  ---------------------------------------------------
  free energy    TOTEN  =       -31.99591252 eV

  energy without entropy =      -31.99591252  energy(sigma->0) =      -31.99591252


--------------------------------------------------------------------------------------------------------




----------------------------------------- Iteration    1(  27)  ---------------------------------------


    POTLOK:  cpu time   42.6470: real time   42.7637
    SETDIJ:  cpu time    0.1321: real time    0.1324
     EDDAV:  cpu time   14.3087: real time   14.3478
       DOS:  cpu time    0.0000: real time    0.0000
    CHARGE:  cpu time    4.4694: real time    4.4815
    MIXING:  cpu time    2.9106: real time    2.9183
    --------------------------------------------
      LOOP:  cpu time   64.4699: real time   64.6487

 eigenvalue-minimisations  :    20
 total energy-change (2. order) :-0.1449016E-06  (-0.2534506E-09)
 number of electron      12.0000000 magnetization 
 augmentation part        0.0517924 magnetization 

 Broyden mixing:
  rms(total) = 0.36970E-06    rms(broyden)= 0.36970E-06
  rms(prec ) = 0.47216E-06
  weight for this iteration     100.00

 eigenvalues of (default mixing * dielectric matrix)
  average eigenvalue GAMMA=   2.6666
  9.6746  7.9498  6.2150  5.0322  4.0572  3.0419  2.6390  2.2817  2.2817  1.9790
  1.9790  1.3368  1.3368  1.0671  1.0671  0.8395  1.0545  1.0053  1.0053  0.9171
  0.9527  0.9527

 Free energy of the ion-electron system (eV)
  ---------------------------------------------------
  alpha Z        PSCENC =         0.01012803
  Ewald energy   TEWEN  =       448.21027640
  -Hartree energ DENC   =      -720.82828602
  -exchange      EXHF   =         0.00000000
  -V(xc)+E(xc)   XCENC  =        26.08720969
  PAW double counting   =       326.66807879     -316.26020860
  entropy T*S    EENTRO =        -0.00000000
  eigenvalues    EBANDS =      -140.14761724
  atomic energy  EATOM  =       344.26450629
  Solvation  Ediel_sol  =         0.00000000
  ---------------------------------------------------
  free energy    TOTEN  =       -31.99591267 eV

  energy without entropy =      -31.99591267  energy(sigma->0) =      -31.99591267


--------------------------------------------------------------------------------------------------------




----------------------------------------- Iteration    1(  28)  ---------------------------------------


    POTLOK:  cpu time   42.5831: real time   42.6995
    SETDIJ:  cpu time    0.1321: real time    0.1324
     EDDAV:  cpu time   16.2422: real time   16.2866
       DOS:  cpu time    0.0000: real time    0.0000
    --------------------------------------------
      LOOP:  cpu time   58.9594: real time   59.1235

 eigenvalue-minimisations  :    24
 total energy-change (2. order) :-0.8293409E-07  (-0.1620606E-09)
 number of electron      12.0000000 magnetization 
 augmentation part        0.0517924 magnetization 

 Free energy of the ion-electron system (eV)
  ---------------------------------------------------
  alpha Z        PSCENC =         0.01012803
  Ewald energy   TEWEN  =       448.21027640
  -Hartree energ DENC   =      -720.82831981
  -exchange      EXHF   =         0.00000000
  -V(xc)+E(xc)   XCENC  =        26.08721084
  PAW double counting   =       326.66790769     -316.26003751
  entropy T*S    EENTRO =        -0.00000000
  eigenvalues    EBANDS =      -140.14758469
  atomic energy  EATOM  =       344.26450629
  Solvation  Ediel_sol  =         0.00000000
  ---------------------------------------------------
  free energy    TOTEN  =       -31.99591275 eV

  energy without entropy =      -31.99591275  energy(sigma->0) =      -31.99591275


--------------------------------------------------------------------------------------------------------




 average (electrostatic) potential at core
  the test charge radii are     0.5412  0.5531
  (the norm of the test charge is              1.0000)
       1-113.2712       2-113.2712       3 -41.0162       4 -41.0159       5 -41.0155
       6 -41.0164
 
 
 
 E-fermi :  -6.7075     XC(G=0):  -0.0300     alpha+bet : -0.0075


 k-point     1 :       0.0000    0.0000    0.0000
  band No.  band energies     occupation 
      1     -18.8206      2.00000
      2     -14.2622      2.00000
      3     -11.5221      2.00000
      4     -10.1588      2.00000
      5      -8.5559      2.00000
      6      -6.7541      2.00000
      7      -1.0802      0.00000
      8      -0.3219      0.00000
      9       0.0084      0.00000
     10       0.0716      0.00000


--------------------------------------------------------------------------------------------------------


 soft charge-density along one line, spin component           1
         0         1         2         3         4         5         6         7         8         9
 total charge-density along one line
 
 pseudopotential strength for first ion, spin component:           1
 10.599  -0.054   0.062   0.000   0.000   0.002  -0.000  -0.000
 -0.054  -0.072   0.661  -0.000  -0.000  -0.000  -0.000  -0.000
  0.062   0.661   0.207   0.000   0.000   0.000  -0.000  -0.000
  0.000  -0.000   0.000  -3.670  -0.004   0.000   0.085  -0.002
  0.000  -0.000   0.000  -0.004  -3.667   0.000  -0.002   0.087
  0.002  -0.000   0.000   0.000   0.000  -3.664   0.000   0.000
 -0.000  -0.000  -0.000   0.085  -0.002   0.000  26.402  -0.007
 -0.000  -0.000  -0.000  -0.002   0.087   0.000  -0.007  26.408
 -0.003  -0.002  -0.000   0.000   0.000   0.091   0.000   0.000
  0.000   0.000   0.000  -0.044  -0.001   0.000 -17.741   0.002
  0.000   0.000   0.000  -0.001  -0.044   0.000   0.002 -17.743
  0.000   0.001   0.000   0.000   0.000  -0.043  -0.000  -0.000
  0.000   0.000   0.000  -0.002  -0.002  -0.000   0.003  -0.005
 -0.007  -0.002   0.000  -0.000  -0.000  -0.002   0.000   0.000
 -0.001  -0.000  -0.000   0.000  -0.000   0.002   0.000  -0.000
  0.000   0.000   0.000  -0.002  -0.001  -0.000  -0.005   0.008
  0.007   0.002   0.000   0.000   0.000  -0.001  -0.000   0.000
 -0.000  -0.000  -0.000   0.000   0.002   0.000   0.001   0.004
  0.004   0.002   0.000   0.000   0.000   0.002   0.000   0.000
  0.000   0.000   0.000  -0.000   0.000  -0.002  -0.000   0.000
 -0.000  -0.000  -0.000   0.002  -0.001  -0.000   0.004  -0.002
 -0.004  -0.002  -0.000  -0.000  -0.000   0.002  -0.000  -0.000
 total augmentation occupancy for first ion, spin component:           1
  1.491   0.012   0.314  -0.000  -0.000  -0.044  -0.000  -0.000  -0.006  -0.000  -0.000  -0.003   0.000  -0.019  -0.004   0.000
  0.012   0.000   0.003  -0.000  -0.000  -0.004  -0.000  -0.000  -0.000  -0.000  -0.000  -0.000   0.000  -0.000  -0.000   0.000
  0.314   0.003   0.067  -0.000  -0.000  -0.024  -0.000  -0.000  -0.002  -0.000  -0.000  -0.001   0.000  -0.004  -0.001   0.000
 -0.000  -0.000  -0.000   0.957  -0.131   0.000   0.027  -0.011   0.000   0.013  -0.005   0.000  -0.004  -0.000   0.000  -0.026
 -0.000  -0.000  -0.000  -0.131   1.065   0.000  -0.011   0.036   0.000  -0.005   0.017   0.000  -0.026   0.000  -0.000   0.018
 -0.044  -0.004  -0.024   0.000   0.000   1.255   0.000   0.000   0.051   0.000   0.000   0.024  -0.000  -0.017   0.026   0.000
 -0.000  -0.000  -0.000   0.027  -0.011   0.000   0.001  -0.001   0.000   0.000  -0.000   0.000   0.000  -0.000   0.000  -0.001
 -0.000  -0.000  -0.000  -0.011   0.036   0.000  -0.001   0.001   0.000  -0.000   0.001   0.000  -0.001   0.000  -0.000   0.001
 -0.006  -0.000  -0.002   0.000   0.000   0.051   0.000   0.000   0.002   0.000   0.000   0.001  -0.000  -0.001   0.001   0.000
 -0.000  -0.000  -0.000   0.013  -0.005   0.000   0.000  -0.000   0.000   0.000  -0.000   0.000  -0.000  -0.000   0.000  -0.000
 -0.000  -0.000  -0.000  -0.005   0.017   0.000  -0.000   0.001   0.000  -0.000   0.000   0.000  -0.000   0.000  -0.000   0.000
 -0.003  -0.000  -0.001   0.000   0.000   0.024   0.000   0.000   0.001   0.000   0.000   0.001  -0.000  -0.000   0.001   0.000
  0.000   0.000   0.000  -0.004  -0.026  -0.000   0.000  -0.001  -0.000  -0.000  -0.000  -0.000   0.001   0.000  -0.000  -0.001
 -0.019  -0.000  -0.004  -0.000   0.000  -0.017  -0.000   0.000  -0.001  -0.000   0.000  -0.000   0.000   0.001  -0.000   0.000
 -0.004  -0.000  -0.001   0.000  -0.000   0.026   0.000  -0.000   0.001   0.000  -0.000   0.001  -0.000  -0.000   0.001  -0.000
  0.000   0.000   0.000  -0.026   0.018   0.000  -0.001   0.001   0.000  -0.000   0.000   0.000  -0.001   0.000  -0.000   0.002
  0.022   0.000   0.005  -0.000   0.000  -0.032  -0.000   0.000  -0.001  -0.000   0.000  -0.001   0.000   0.000  -0.001   0.000
 -0.000  -0.000  -0.000   0.003   0.021   0.000   0.000   0.001   0.000   0.000   0.000   0.000  -0.001  -0.000   0.000   0.001
  0.016   0.000   0.003   0.000  -0.000   0.014   0.000  -0.000   0.000   0.000  -0.000   0.000  -0.000  -0.000   0.000  -0.000
  0.003   0.000   0.001  -0.000   0.000  -0.021  -0.000   0.000  -0.001  -0.000   0.000  -0.000   0.000   0.000  -0.000   0.000
 -0.000  -0.000  -0.000   0.021  -0.013  -0.000   0.001  -0.000  -0.000   0.000  -0.000  -0.000   0.001  -0.000   0.000  -0.001
 -0.018  -0.000  -0.004   0.000  -0.000   0.025   0.000  -0.000   0.001   0.000  -0.000   0.001  -0.000  -0.000   0.001  -0.000


------------------------ aborting loop because EDIFF is reached ----------------------------------------


    CHARGE:  cpu time    4.4727: real time    4.4848
    FORLOC:  cpu time    3.5319: real time    3.5417
    FORNL :  cpu time    2.2488: real time    2.2549
    STRESS:  cpu time    9.9621: real time    9.9892
    FORCOR:  cpu time   41.9440: real time   42.0584
    FORHAR:  cpu time   12.9973: real time   13.0329
    MIXING:  cpu time    3.0458: real time    3.0542
    OFIELD:  cpu time    0.0000: real time    0.0000

  FORCE on cell =-STRESS in cart. coord.  units (eV):
  Direction    XX          YY          ZZ          XY          YZ          ZX
  --------------------------------------------------------------------------------------
  Alpha Z     0.01013     0.01013     0.01013
  Ewald     308.79886    32.46904   106.94211     0.17867   -90.33553     0.07920
  Hartree   320.31425   187.62559   212.88845     0.08635   -30.60959     0.02826
  E(xc)     -44.27232   -44.93249   -44.60101     0.00045    -0.40241     0.00028
  Local    -754.59704  -358.54609  -450.16074    -0.25714   111.08578    -0.09912
  n-local    -7.79238    -7.37774    -7.78289    -0.00031     0.49196    -0.00030
  augment     0.59040     0.67180     0.63129    -0.00005     0.04917    -0.00004
  Kinetic   177.48121   190.38061   182.74682    -0.00850     9.26718    -0.00694
  Fock        0.00000     0.00000     0.00000     0.00000     0.00000     0.00000
  -------------------------------------------------------------------------------------
  Total       0.53311     0.30086     0.67417    -0.00053    -0.45343     0.00134
  in kB       0.01992     0.01124     0.02519    -0.00002    -0.01694     0.00005
  external pressure =        0.02 kB  Pullay stress =        0.00 kB


 VOLUME and BASIS-vectors are now :
 -----------------------------------------------------------------------------
  energy-cutoff  :     2000.00
  volume of cell :    42875.00
      direct lattice vectors                 reciprocal lattice vectors
    35.000000000  0.000000000  0.000000000     0.028571429  0.000000000  0.000000000
     0.000000000 35.000000000  0.000000000     0.000000000  0.028571429  0.000000000
     0.000000000  0.000000000 35.000000000     0.000000000  0.000000000  0.028571429

  length of vectors
    35.000000000 35.000000000 35.000000000     0.028571429  0.028571429  0.028571429


 FORCES acting on ions
    electron-ion (+dipol)            ewald-force                    non-local-force                 convergence-correction
 -----------------------------------------------------------------------------------------------
   -.104E+03 -.121E+00 -.604E-01   0.102E+03 0.116E+00 0.577E-01   0.163E+01 0.278E-02 0.178E-03   -.323E-05 -.113E-05 0.818E-06
   0.104E+03 0.125E-01 -.447E-01   -.102E+03 -.155E-01 0.424E-01   -.163E+01 -.130E-02 0.313E-02   0.305E-05 -.142E-05 0.474E-06
   -.377E+02 0.265E+02 -.396E+02   0.409E+02 -.295E+02 0.440E+02   -.303E+01 0.280E+01 -.417E+01   -.915E-06 0.388E-06 -.679E-06
   -.376E+02 -.265E+02 0.396E+02   0.409E+02 0.295E+02 -.440E+02   -.303E+01 -.279E+01 0.418E+01   -.729E-06 -.579E-06 0.714E-06
   0.376E+02 0.266E+02 -.396E+02   -.409E+02 -.295E+02 0.440E+02   0.303E+01 0.280E+01 -.417E+01   0.827E-06 0.333E-06 -.741E-06
   0.377E+02 -.265E+02 0.396E+02   -.409E+02 0.294E+02 -.440E+02   0.303E+01 -.279E+01 0.418E+01   0.613E-06 -.598E-06 0.650E-06
 -----------------------------------------------------------------------------------------------
   0.995E-03 -.132E-01 -.150E-01   -.142E-13 -.355E-14 -.711E-14   -.991E-03 0.132E-01 0.151E-01   -.381E-06 -.301E-05 0.124E-05
 
 
 POSITION                                       TOTAL-FORCE (eV/Angst)
 -----------------------------------------------------------------------------------
      0.66640      0.18381      0.41974        -0.384541     -0.002668     -0.002554
     34.33403      0.18297      0.41961         0.383786     -0.004347      0.000861
      1.22888     34.67012      1.18626         0.213272     -0.146660      0.222139
      1.22804      0.69721     34.65239         0.213948      0.149564     -0.219922
     33.77208     34.66850      1.18610        -0.212032     -0.145708      0.220434
     33.77182      0.69565     34.65225        -0.214433      0.149819     -0.220958
 -----------------------------------------------------------------------------------
    total drift:                                0.000003      0.000019      0.000028


--------------------------------------------------------------------------------------------------------



  FREE ENERGIE OF THE ION-ELECTRON SYSTEM (eV)
  ---------------------------------------------------
  free  energy   TOTEN  =       -31.99591275 eV

  energy  without entropy=      -31.99591275  energy(sigma->0) =      -31.99591275
 


--------------------------------------------------------------------------------------------------------


    POTLOK:  cpu time   42.8686: real time   42.9868


--------------------------------------------------------------------------------------------------------


 writing wavefunctions
     LOOP+:  cpu time 2513.8214: real time 2521.0377
    4ORBIT:  cpu time    0.0000: real time    0.0000

 total amount of memory used by VASP on root node  9014689. kBytes
========================================================================

   base      :      30000. kBytes
   nonl-proj :     162539. kBytes
   fftplans  :    3255861. kBytes
   grid      :    5508227. kBytes
   one-center:         11. kBytes
   wavefun   :      58051. kBytes
 
  
  
 General timing and accounting informations for this job:
 ========================================================
  
                  Total CPU time used (sec):     3524.713
                            User time (sec):     3172.458
                          System time (sec):      352.255
                         Elapsed time (sec):     3535.020
  
                   Maximum memory used (kb):    14180284.
                   Average memory used (kb):           0.
  
                          Minor page faults:      7948077
                          Major page faults:            6
                 Voluntary context switches:          707
 
 PROFILE, used timers:      14
 =============================
 
 index                 routine                    time                            calls level
----------------------------------------------------------------------------------------------
    1    total_time                         3535.021526                                1   1
    2      w1_copy                               4.822278                           3304   2
    3      fftwav_mpi                          218.844680                           1252   2
    4      fftext_mpi                            1.121813                             10   2
    5      overl                                 0.002036                           1917   2
    6      orth1                                 5.817573                            676   2
    7      lincom                                0.305075                             29   2
    8      eccp                                  7.337375                            280   2
    9      hamiltmu                            252.585822                            225   2
   10        vhamil                               48.501628                         1098   3
   11        overl1                                0.001723                         1098   3
   12        kinhamil                            125.040829                         1098   3
   13          fftext_mpi                          123.525367                       1098   4
   14      pdssyex_zheevx                        0.028052                             28   2
 
 Flat profile
 ============
 
             routine name                   CPU           calls
 ---------------------------------------------------------------
 total_time                           3044.156822           1
 fftwav_mpi                            218.844680        1252
 fftext_mpi                            124.647181        1108
 hamiltmu                               79.041643         225
 vhamil                                 48.501628        1098
 eccp                                    7.337375         280
 orth1                                   5.817573         676
 w1_copy                                 4.822278        3304
 kinhamil                                1.515462        1098
 lincom                                  0.305075          29
 pdssyex_zheevx                          0.028052          28
 overl                                   0.002036        1917
 overl1                                  0.001723        1098
 ---------------------------------------------------------------
  summed up times    3535.02152609825     
 
Profiling took   0.007975  0.005249  0.003309  0.003298 seconds
Profiling took   0.005484 seconds
