 vasp.5.4.1 24Jun15 (build Jan 02 2020 16:21:29) gamma-only                     
  
 executed on           IFC15_impi date 2020.04.14  14:40:51
 running on   12 total cores
 distrk:  each k-point on   12 cores,    1 groups
 distr:  one band on NCORES_PER_BAND=  12 cores,    1 groups


--------------------------------------------------------------------------------------------------------


 INCAR:
 POTCAR:    PAW_PBE C_h_GW 23May2013              
 POTCAR:    PAW_PBE H_h_GW 21Apr2008              

 ----------------------------------------------------------------------------- 
|                                                                             |
|           W    W    AA    RRRRR   N    N  II  N    N   GGGG   !!!           |
|           W    W   A  A   R    R  NN   N  II  NN   N  G    G  !!!           |
|           W    W  A    A  R    R  N N  N  II  N N  N  G       !!!           |
|           W WW W  AAAAAA  RRRRR   N  N N  II  N  N N  G  GGG   !            |
|           WW  WW  A    A  R   R   N   NN  II  N   NN  G    G                |
|           W    W  A    A  R    R  N    N  II  N    N   GGGG   !!!           |
|                                                                             |
|      For optimal performance we recommend to set                            |
|        NCORE= 4 - approx SQRT( number of cores)                             |
|      NCORE specifies how many cores store one orbital (NPAR=cpu/NCORE).     |
|      This setting can  greatly improve the performance of VASP for DFT.     |
|      The default, NPAR=number of cores might be grossly inefficient         |
|      on modern multi-core architectures or massively parallel machines.     |
|      Do your own testing !!!!                                               |
|      Unfortunately you need to use the default for GW and RPA calculations. |
|      (for HF NCORE is supported but not extensively tested yet)             |
|                                                                             |
 ----------------------------------------------------------------------------- 

 POTCAR:    PAW_PBE C_h_GW 23May2013              
   VRHFIN =C: s2p2                                                              
   LEXCH  = PE                                                                  
   EATOM  =   147.1560 eV,   10.8157 Ry                                         
                                                                                
   TITEL  = PAW_PBE C_h_GW 23May2013                                            
   LULTRA =        F    use ultrasoft PP ?                                      
   IUNSCR =        1    unscreen: 0-lin 1-nonlin 2-no                           
   RPACOR =    0.800    partial core radius                                     
   POMASS =   12.011; ZVAL   =    4.000    mass and valenz                      
   RCORE  =    1.100    outmost cutoff radius                                   
   RWIGS  =    1.200; RWIGS  =    0.635    wigner-seitz radius (au A)           
   ENMAX  =  741.689; ENMIN  =  556.267 eV                                      
   RCLOC  =    0.804    cutoff for local pot                                    
   LCOR   =        T    correct aug charges                                     
   LPAW   =        T    paw PP                                                  
   EAUG   = 1782.225                                                            
   DEXC   =    0.000                                                            
   RMAX   =    1.128    core radius for proj-oper                               
   RAUG   =    1.300    factor for augmentation sphere                          
   RDEP   =    1.162    radius for radial grids                                 
   RDEPT  =    1.000    core radius for aug-charge                              
                                                                                
   Atomic configuration                                                         
    5 entries                                                                   
     n  l   j            E        occ.                                          
     1  0  0.50      -273.3789   2.0000                                         
     2  0  0.50       -13.7508   2.0000                                         
     2  1  0.50        -5.2854   2.0000                                         
     3  2  1.50        -5.4423   0.0000                                         
     4  3  2.50        -5.4423   0.0000                                         
   Description                                                                  
     l       E           TYP  RCUT    TYP  RCUT                                 
     0    -13.7508457     23  1.000                                             
     0     81.6349560     23  1.000                                             
     0    204.0873900     23  1.000                                             
     1     -5.2854382     23  1.100                                             
     1    204.0873900     23  1.100                                             
     1    380.9631280     23  1.100                                             
     2     81.6349560     23  1.100                                             
     2    204.0873900     23  1.100                                             
  local pseudopotential read in
  partial core-charges read in
  partial kinetic energy density read in
  kinetic energy density of atom read in
  atomic valenz-charges read in
  non local Contribution for L=           0  read in
    real space projection operators read in
  non local Contribution for L=           0  read in
    real space projection operators read in
  non local Contribution for L=           0  read in
    real space projection operators read in
  non local Contribution for L=           1  read in
    real space projection operators read in
  non local Contribution for L=           1  read in
    real space projection operators read in
  non local Contribution for L=           1  read in
    real space projection operators read in
  non local Contribution for L=           2  read in
    real space projection operators read in
  non local Contribution for L=           2  read in
    real space projection operators read in
    PAW grid and wavefunctions read in
 
   number of l-projection  operators is LMAX  =           8
   number of lm-projection operators is LMMAX =          22
 
 POTCAR:    PAW_PBE H_h_GW 21Apr2008              
   VRHFIN =H: ultrasoft test                                                    
   LEXCH  = PE                                                                  
   EATOM  =    12.4884 eV,    0.9179 Ry                                         
                                                                                
   TITEL  = PAW_PBE H_h_GW 21Apr2008                                            
   LULTRA =        F    use ultrasoft PP ?                                      
   IUNSCR =        0    unscreen: 0-lin 1-nonlin 2-no                           
   RPACOR =    0.000    partial core radius                                     
   POMASS =    1.000; ZVAL   =    1.000    mass and valenz                      
   RCORE  =    0.800    outmost cutoff radius                                   
   RWIGS  =    1.100; RWIGS  =    0.582    wigner-seitz radius (au A)           
   ENMAX  =  700.000; ENMIN  =  350.000 eV                                      
   RCLOC  =    0.701    cutoff for local pot                                    
   LCOR   =        T    correct aug charges                                     
   LPAW   =        T    paw PP                                                  
   EAUG   = 1000.000                                                            
   RMAX   =    0.819    core radius for proj-oper                               
   RAUG   =    1.000    factor for augmentation sphere                          
   RDEP   =    0.817    radius for radial grids                                 
   RDEPT  =    1.000    core radius for aug-charge                              
                                                                                
   Atomic configuration                                                         
    3 entries                                                                   
     n  l   j            E        occ.                                          
     1  0  0.50        -6.4927   1.0000                                         
     2  1  0.50        -3.4015   0.0000                                         
     3  2  1.50        13.6058   0.0000                                         
   Description                                                                  
     l       E           TYP  RCUT    TYP  RCUT                                 
     0     -6.4927495     23  0.800                                             
     0      6.8029130     23  0.800                                             
     1     -4.0817478     23  0.800                                             
     1    108.8466080     23  0.800                                             
     2     81.6349560     23  0.800                                             
  local pseudopotential read in
  kinetic energy density of atom read in
  atomic valenz-charges read in
  non local Contribution for L=           0  read in
    real space projection operators read in
  non local Contribution for L=           0  read in
    real space projection operators read in
  non local Contribution for L=           1  read in
    real space projection operators read in
  non local Contribution for L=           1  read in
    real space projection operators read in
  non local Contribution for L=           2  read in
    real space projection operators read in
    PAW grid and wavefunctions read in
 
   number of l-projection  operators is LMAX  =           5
   number of lm-projection operators is LMMAX =          13
 
  PAW_PBE C_h_GW 23May2013              :
 energy of atom  1       EATOM= -147.1560
 kinetic energy error for atom=    0.0004 (will be added to EATOM!!)
  PAW_PBE H_h_GW 21Apr2008              :
 energy of atom  2       EATOM=  -12.4884
 kinetic energy error for atom=    0.0001 (will be added to EATOM!!)
 
 
 POSCAR: C H                                     
  positions in cartesian coordinates
  No initial velocities read in
 exchange correlation table for  LEXCH =        8
   RHO(1)=    0.500       N(1)  =     2000
   RHO(2)=  100.500       N(2)  =     4000
 


--------------------------------------------------------------------------------------------------------


 ion  position               nearest neighbor table
   1  0.971  0.999  0.999-   3 1.07   2 1.21
   2  0.937  0.000  0.000-   4 1.06   1 1.21
   3  0.002  0.998  0.999-   1 1.07
   4  0.906  0.001  0.001-   2 1.06
 
  LATTYP: Found a simple cubic cell.
 ALAT       =    35.0000000000
  
  Lattice vectors:
  
 A1 = (  35.0000000000,   0.0000000000,   0.0000000000)
 A2 = (   0.0000000000,  35.0000000000,   0.0000000000)
 A3 = (   0.0000000000,   0.0000000000,  35.0000000000)


Analysis of symmetry for initial positions (statically):
=====================================================================
 Subroutine PRICEL returns:
 Original cell was already a primitive cell.
 

 Routine SETGRP: Setting up the symmetry group for a 
 simple cubic supercell.


 Subroutine GETGRP returns: Found  1 space group operations
 (whereof  1 operations were pure point group operations)
 out of a pool of 48 trial point group operations.


The static configuration has the point symmetry C_1 .


Analysis of symmetry for dynamics (positions and initial velocities):
=====================================================================
 Subroutine PRICEL returns:
 Original cell was already a primitive cell.
 

 Routine SETGRP: Setting up the symmetry group for a 
 simple cubic supercell.


 Subroutine GETGRP returns: Found  1 space group operations
 (whereof  1 operations were pure point group operations)
 out of a pool of 48 trial point group operations.


The dynamic configuration has the point symmetry C_1 .
 
 
 KPOINTS: automatic mesh                          

Automatic generation of k-mesh.
Space group operators:
 irot       det(A)        alpha          n_x          n_y          n_z        tau_x        tau_y        tau_z
    1     1.000000     0.000000     1.000000     0.000000     0.000000     0.000000     0.000000     0.000000
 
 Subroutine IBZKPT returns following result:
 ===========================================
 
 Found      1 irreducible k-points:
 
 Following reciprocal coordinates:
            Coordinates               Weight
  0.000000  0.000000  0.000000      1.000000
 
 Following cartesian coordinates:
            Coordinates               Weight
  0.000000  0.000000  0.000000      1.000000
 


--------------------------------------------------------------------------------------------------------




 Dimension of arrays:
   k-points           NKPTS =      1   k-points in BZ     NKDIM =      1   number of bands    NBANDS=      9
   number of dos      NEDOS =    301   number of ions     NIONS =      4
   non local maximal  LDIM  =      8   non local SUM 2l+1 LMDIM =     22
   total plane-waves  NPLWV = ******
   max r-space proj   IRMAX =      1   max aug-charges    IRDMAX=  18497
   dimension x,y,z NGX =   512 NGY =  512 NGZ =  512
   dimension x,y,z NGXF=  1024 NGYF= 1024 NGZF= 1024
   support grid    NGXF=  1024 NGYF= 1024 NGZF= 1024
   ions per type =               2   2
 NGX,Y,Z   is equivalent  to a cutoff of  24.32, 24.32, 24.32 a.u.
 NGXF,Y,Z  is equivalent  to a cutoff of  48.64, 48.64, 48.64 a.u.


 I would recommend the setting:
   dimension x,y,z NGX =   511 NGY =  511 NGZ =  511
 SYSTEM =  C                                       
 POSCAR =  C H                                     

 Startparameter for this run:
   NWRITE =      2    write-flag & timer
   PREC   = acc       normal or accurate (medium, high low for compatibility)
   ISTART =      0    job   : 0-new  1-cont  2-samecut
   ICHARG =      2    charge: 1-file 2-atom 10-const
   ISPIN  =      1    spin polarized calculation?
   LNONCOLLINEAR =      F non collinear calculations
   LSORBIT =      F    spin-orbit coupling
   INIWAV =      1    electr: 0-lowe 1-rand  2-diag
   LASPH  =      T    aspherical Exc in radial PAW
   METAGGA=      F    non-selfconsistent MetaGGA calc.

 Electronic Relaxation 1
   ENCUT  = 2000.0 eV 147.00 Ry   12.12 a.u. 127.63127.63127.63*2*pi/ulx,y,z
   ENINI  = 2000.0     initial cutoff
   ENAUG  = 1782.2 eV  augmentation charge cutoff
   NELM   =     60;   NELMIN=  2; NELMDL= -5     # of ELM steps 
   EDIFF  = 0.1E-06   stopping-criterion for ELM
   LREAL  =      F    real-space projection
   NLSPLINE    = F    spline interpolate recip. space projectors
   LCOMPAT=      F    compatible to vasp.4.4
   GGA_COMPAT  = T    GGA compatible to vasp.4.4-vasp.4.6
   LMAXPAW     = -100 max onsite density
   LMAXMIX     =    2 max onsite mixed and CHGCAR
   VOSKOWN=      0    Vosko Wilk Nusair interpolation
   ROPT   =    0.00000   0.00000
 Ionic relaxation
   EDIFFG = 0.1E-05   stopping-criterion for IOM
   NSW    =      0    number of steps for IOM
   NBLOCK =      1;   KBLOCK =      1    inner block; outer block 
   IBRION =     -1    ionic relax: 0-MD 1-quasi-New 2-CG
   NFREE  =      0    steps in history (QN), initial steepest desc. (CG)
   ISIF   =      2    stress and relaxation
   IWAVPR =     10    prediction:  0-non 1-charg 2-wave 3-comb
   ISYM   =      2    0-nonsym 1-usesym 2-fastsym
   LCORR  =      T    Harris-Foulkes like correction to forces

   POTIM  = 0.5000    time-step for ionic-motion
   TEIN   =    0.0    initial temperature
   TEBEG  =    0.0;   TEEND  =   0.0 temperature during run
   SMASS  =  -3.00    Nose mass-parameter (am)
   estimated Nose-frequenzy (Omega)   =  0.10E-29 period in steps =****** mass=  -0.280E-25a.u.
   SCALEE = 1.0000    scale energy and forces
   NPACO  =    256;   APACO  = 16.0  distance and # of slots for P.C.
   PSTRESS=    0.0 pullay stress

  Mass of Ions in am
   POMASS =  12.01  1.00
  Ionic Valenz
   ZVAL   =   4.00  1.00
  Atomic Wigner-Seitz radii
   RWIGS  =  -1.00 -1.00
  virtual crystal weights 
   VCA    =   1.00  1.00
   NELECT =      10.0000    total number of electrons
   NUPDOWN=      -1.0000    fix difference up-down

 DOS related values:
   EMIN   =  10.00;   EMAX   =-10.00  energy-range for DOS
   EFERMI =   0.00
   ISMEAR =     0;   SIGMA  =   0.01  broadening in eV -4-tet -1-fermi 0-gaus

 Electronic relaxation 2 (details)
   IALGO  =     38    algorithm
   LDIAG  =      T    sub-space diagonalisation (order eigenvalues)
   LSUBROT=      F    optimize rotation matrix (better conditioning)
   TURBO    =      0    0=normal 1=particle mesh
   IRESTART =      0    0=no restart 2=restart with 2 vectors
   NREBOOT  =      0    no. of reboots
   NMIN     =      0    reboot dimension
   EREF     =   0.00    reference energy to select bands
   IMIX   =      4    mixing-type and parameters
     AMIX     =   0.40;   BMIX     =  1.00
     AMIX_MAG =   1.60;   BMIX_MAG =  1.00
     AMIN     =   0.10
     WC   =   100.;   INIMIX=   1;  MIXPRE=   1;  MAXMIX= -45

 Intra band minimization:
   WEIMIN = 0.0000     energy-eigenvalue tresh-hold
   EBREAK =  0.28E-08  absolut break condition
   DEPER  =   0.30     relativ break condition  

   TIME   =   0.40     timestep for ELM

  volume/ion in A,a.u.               =   10718.75     72333.69
  Fermi-wavevector in a.u.,A,eV,Ry     =   0.100772  0.190432  0.138167  0.010155
  Thomas-Fermi vector in A             =   0.676899
 
 Write flags
   LWAVE  =      T    write WAVECAR
   LCHARG =      T    write CHGCAR
   LVTOT  =      F    write LOCPOT, total local potential
   LVHAR  =      F    write LOCPOT, Hartree potential only
   LELF   =      F    write electronic localiz. function (ELF)
   LORBIT =      0    0 simple, 1 ext, 2 COOP (PROOUT)


 Dipole corrections
   LMONO  =      F    monopole corrections only (constant potential shift)
   LDIPOL =      F    correct potential (dipole corrections)
   IDIPOL =      0    1-x, 2-y, 3-z, 4-all directions 
   EPSILON=  1.0000000 bulk dielectric constant

 Exchange correlation treatment:
   GGA     =    --    GGA type
   LEXCH   =     8    internal setting for exchange type
   VOSKOWN=      0    Vosko Wilk Nusair interpolation
   LHFCALC =     F    Hartree Fock is set to
   LHFONE  =     F    Hartree Fock one center treatment
   AEXX    =    0.0000 exact exchange contribution

 Linear response parameters
   LEPSILON=     F    determine dielectric tensor
   LRPA    =     F    only Hartree local field effects (RPA)
   LNABLA  =     F    use nabla operator in PAW spheres
   LVEL    =     F    velocity operator in full k-point grid
   LINTERFAST=   F  fast interpolation
   KINTER  =     0    interpolate to denser k-point grid
   CSHIFT  =0.1000    complex shift for real part using Kramers Kronig
   OMEGAMAX=  -1.0    maximum frequency
   DEG_THRESHOLD= 0.2000000E-02 threshold for treating states as degnerate
   RTIME   =    0.100 relaxation time in fs

 Orbital magnetization related:
   ORBITALMAG=     F  switch on orbital magnetization
   LCHIMAG   =     F  perturbation theory with respect to B field
   DQ        =  0.001000  dq finite difference perturbation B field



--------------------------------------------------------------------------------------------------------


 Static calculation
 charge density and potential will be updated during run
 non-spin polarized calculation
 Variant of blocked Davidson
 Davidson routine will perform the subspace rotation
 perform sub-space diagonalisation
    after iterative eigenvector-optimisation
 modified Broyden-mixing scheme, WC =      100.0
 initial mixing is a Kerker type mixing with AMIX =  0.4000 and BMIX =      1.0000
 Hartree-type preconditioning will be used
 using additional bands            4
 reciprocal scheme for non local part
 use partial core corrections
 calculate Harris-corrections to forces 
   (improved forces if not selfconsistent)
 use gradient corrections 
 use of overlap-Matrix (Vanderbilt PP)
 Gauss-broadening in eV      SIGMA  =   0.01


--------------------------------------------------------------------------------------------------------


  energy-cutoff  :     2000.00
  volume of cell :    42875.00
      direct lattice vectors                 reciprocal lattice vectors
    35.000000000  0.000000000  0.000000000     0.028571429  0.000000000  0.000000000
     0.000000000 35.000000000  0.000000000     0.000000000  0.028571429  0.000000000
     0.000000000  0.000000000 35.000000000     0.000000000  0.000000000  0.028571429

  length of vectors
    35.000000000 35.000000000 35.000000000     0.028571429  0.028571429  0.028571429


 
 k-points in units of 2pi/SCALE and weight: automatic mesh                          
   0.00000000  0.00000000  0.00000000       1.000
 
 k-points in reciprocal lattice and weights: automatic mesh                          
   0.00000000  0.00000000  0.00000000       1.000
 
 position of ions in fractional coordinates (direct lattice) 
   0.97123237  0.99912662  0.99929220
   0.93660732  0.00009067  0.00007426
   0.00168581  0.99825886  0.99858955
   0.90630636  0.00095785  0.00077716
 
 position of ions in cartesian coordinates  (Angst):
  33.99313278 34.96943179 34.97522715
  32.78125620  0.00317347  0.00259920
   0.05900333 34.93906026 34.95063438
  31.72072270  0.03352491  0.02720048
 


--------------------------------------------------------------------------------------------------------


 use parallel FFT for wavefunctions z direction half grid
 k-point  1 :   0.0000 0.0000 0.0000  plane waves: 4353902

 maximum and minimum number of plane-waves per node :    362837   362811

 maximum number of plane-waves:   4353902
 maximum index in each direction: 
   IXMAX=  127   IYMAX=  127   IZMAX=  127
   IXMIN= -127   IYMIN= -127   IZMIN=    0

 NGX is ok and might be reduce to 510
 NGY is ok and might be reduce to 510
 NGZ is ok and might be reduce to 510

 parallel 3D FFT for wavefunctions:
    minimum data exchange during FFTs selected (reduces bandwidth)
 parallel 3D FFT for charge:
    minimum data exchange during FFTs selected (reduces bandwidth)


 total amount of memory used by VASP on root node  8997274. kBytes
========================================================================

   base      :      30000. kBytes
   nonl-proj :     150929. kBytes
   fftplans  :    3255861. kBytes
   grid      :    5508227. kBytes
   one-center:         11. kBytes
   wavefun   :      52246. kBytes
 
     INWAV:  cpu time    0.0001: real time    0.0004
 Broyden mixing: mesh for mixing (old mesh)
   NGX =255   NGY =255   NGZ =255
  (NGX  =***   NGY  =***   NGZ  =***)
  gives a total of ****** points

 initial charge density was supplied:
 charge density of overlapping atoms calculated
 number of electron      10.0000000 magnetization 
 keeping initial charge density in first step


--------------------------------------------------------------------------------------------------------


 Maximum index for augmentation-charges         2016 (set IRDMAX)


--------------------------------------------------------------------------------------------------------


 First call to EWALD:  gamma=   0.051
 Maximum number of real-space cells 3x 3x 3
 Maximum number of reciprocal cells 3x 3x 3

 FEWALD executed in parallel
    FEWALD:  cpu time    0.0013: real time    0.0013


----------------------------------------- Iteration    1(   1)  ---------------------------------------


    POTLOK:  cpu time   42.6909: real time   42.7949
    SETDIJ:  cpu time    0.1365: real time    0.1369
     EDDAV:  cpu time   12.2861: real time   12.3162
       DOS:  cpu time    0.0000: real time    0.0000
    --------------------------------------------
      LOOP:  cpu time   55.1157: real time   55.2520

 eigenvalue-minimisations  :    18
 total energy-change (2. order) : 0.9396323E+02  (-0.1557714E+03)
 number of electron      10.0000000 magnetization 
 augmentation part       10.0000000 magnetization 

 Free energy of the ion-electron system (eV)
  ---------------------------------------------------
  alpha Z        PSCENC =         0.00730783
  Ewald energy   TEWEN  =       294.87760154
  -Hartree energ DENC   =      -503.53931139
  -exchange      EXHF   =         0.00000000
  -V(xc)+E(xc)   XCENC  =        17.14466461
  PAW double counting   =       230.34478268     -219.76357057
  entropy T*S    EENTRO =        -0.00000000
  eigenvalues    EBANDS =       -44.39605565
  atomic energy  EATOM  =       319.28781218
  Solvation  Ediel_sol  =         0.00000000
  ---------------------------------------------------
  free energy    TOTEN  =        93.96323122 eV

  energy without entropy =       93.96323122  energy(sigma->0) =       93.96323122


--------------------------------------------------------------------------------------------------------




----------------------------------------- Iteration    1(   2)  ---------------------------------------


     EDDAV:  cpu time   19.7180: real time   19.7663
       DOS:  cpu time    0.0000: real time    0.0000
    --------------------------------------------
      LOOP:  cpu time   19.7209: real time   19.7724

 eigenvalue-minimisations  :    35
 total energy-change (2. order) :-0.6784490E+02  (-0.6783888E+02)
 number of electron      10.0000000 magnetization 
 augmentation part       10.0000000 magnetization 

 Free energy of the ion-electron system (eV)
  ---------------------------------------------------
  alpha Z        PSCENC =         0.00730783
  Ewald energy   TEWEN  =       294.87760154
  -Hartree energ DENC   =      -503.53931139
  -exchange      EXHF   =         0.00000000
  -V(xc)+E(xc)   XCENC  =        17.14466461
  PAW double counting   =       230.34478268     -219.76357057
  entropy T*S    EENTRO =        -0.00000000
  eigenvalues    EBANDS =      -112.24095271
  atomic energy  EATOM  =       319.28781218
  Solvation  Ediel_sol  =         0.00000000
  ---------------------------------------------------
  free energy    TOTEN  =        26.11833416 eV

  energy without entropy =       26.11833416  energy(sigma->0) =       26.11833416


--------------------------------------------------------------------------------------------------------




----------------------------------------- Iteration    1(   3)  ---------------------------------------


     EDDAV:  cpu time   20.1554: real time   20.2047
       DOS:  cpu time    0.0000: real time    0.0000
    --------------------------------------------
      LOOP:  cpu time   20.1584: real time   20.2103

 eigenvalue-minimisations  :    36
 total energy-change (2. order) :-0.4769354E+02  (-0.4769299E+02)
 number of electron      10.0000000 magnetization 
 augmentation part       10.0000000 magnetization 

 Free energy of the ion-electron system (eV)
  ---------------------------------------------------
  alpha Z        PSCENC =         0.00730783
  Ewald energy   TEWEN  =       294.87760154
  -Hartree energ DENC   =      -503.53931139
  -exchange      EXHF   =         0.00000000
  -V(xc)+E(xc)   XCENC  =        17.14466461
  PAW double counting   =       230.34478268     -219.76357057
  entropy T*S    EENTRO =        -0.00000000
  eigenvalues    EBANDS =      -159.93449705
  atomic energy  EATOM  =       319.28781218
  Solvation  Ediel_sol  =         0.00000000
  ---------------------------------------------------
  free energy    TOTEN  =       -21.57521018 eV

  energy without entropy =      -21.57521018  energy(sigma->0) =      -21.57521018


--------------------------------------------------------------------------------------------------------




----------------------------------------- Iteration    1(   4)  ---------------------------------------


     EDDAV:  cpu time   12.9603: real time   12.9920
       DOS:  cpu time    0.0000: real time    0.0000
    --------------------------------------------
      LOOP:  cpu time   12.9635: real time   12.9982

 eigenvalue-minimisations  :    20
 total energy-change (2. order) :-0.4527252E+01  (-0.4527241E+01)
 number of electron      10.0000000 magnetization 
 augmentation part       10.0000000 magnetization 

 Free energy of the ion-electron system (eV)
  ---------------------------------------------------
  alpha Z        PSCENC =         0.00730783
  Ewald energy   TEWEN  =       294.87760154
  -Hartree energ DENC   =      -503.53931139
  -exchange      EXHF   =         0.00000000
  -V(xc)+E(xc)   XCENC  =        17.14466461
  PAW double counting   =       230.34478268     -219.76357057
  entropy T*S    EENTRO =        -0.00000000
  eigenvalues    EBANDS =      -164.46174894
  atomic energy  EATOM  =       319.28781218
  Solvation  Ediel_sol  =         0.00000000
  ---------------------------------------------------
  free energy    TOTEN  =       -26.10246207 eV

  energy without entropy =      -26.10246207  energy(sigma->0) =      -26.10246207


--------------------------------------------------------------------------------------------------------




----------------------------------------- Iteration    1(   5)  ---------------------------------------


     EDDAV:  cpu time   20.1562: real time   20.2055
       DOS:  cpu time    0.0000: real time    0.0000
    CHARGE:  cpu time    4.4252: real time    4.4360
    MIXING:  cpu time    1.1607: real time    1.1635
    --------------------------------------------
      LOOP:  cpu time   25.7452: real time   25.8112

 eigenvalue-minimisations  :    36
 total energy-change (2. order) :-0.3819031E+00  (-0.3818933E+00)
 number of electron      10.0000000 magnetization 
 augmentation part        0.0550649 magnetization 

 Broyden mixing:
  rms(total) = 0.87709E+00    rms(broyden)= 0.87709E+00
  rms(prec ) = 0.91013E+00
  weight for this iteration     100.00

 Free energy of the ion-electron system (eV)
  ---------------------------------------------------
  alpha Z        PSCENC =         0.00730783
  Ewald energy   TEWEN  =       294.87760154
  -Hartree energ DENC   =      -503.53931139
  -exchange      EXHF   =         0.00000000
  -V(xc)+E(xc)   XCENC  =        17.14466461
  PAW double counting   =       230.34478268     -219.76357057
  entropy T*S    EENTRO =        -0.00000000
  eigenvalues    EBANDS =      -164.84365208
  atomic energy  EATOM  =       319.28781218
  Solvation  Ediel_sol  =         0.00000000
  ---------------------------------------------------
  free energy    TOTEN  =       -26.48436521 eV

  energy without entropy =      -26.48436521  energy(sigma->0) =      -26.48436521


--------------------------------------------------------------------------------------------------------




----------------------------------------- Iteration    1(   6)  ---------------------------------------


    POTLOK:  cpu time   42.9019: real time   43.0065
    SETDIJ:  cpu time    0.1372: real time    0.1375
     EDDAV:  cpu time   20.1597: real time   20.2091
       DOS:  cpu time    0.0000: real time    0.0000
    CHARGE:  cpu time    4.2792: real time    4.2897
    MIXING:  cpu time    1.2133: real time    1.2162
    --------------------------------------------
      LOOP:  cpu time   68.6934: real time   68.8640

 eigenvalue-minimisations  :    36
 total energy-change (2. order) : 0.2871642E+01  (-0.6245883E+00)
 number of electron      10.0000000 magnetization 
 augmentation part        0.0397062 magnetization 

 Broyden mixing:
  rms(total) = 0.39962E+00    rms(broyden)= 0.39962E+00
  rms(prec ) = 0.41305E+00
  weight for this iteration     100.00

 eigenvalues of (default mixing * dielectric matrix)
  average eigenvalue GAMMA=   1.5813
  1.5813

 Free energy of the ion-electron system (eV)
  ---------------------------------------------------
  alpha Z        PSCENC =         0.00730783
  Ewald energy   TEWEN  =       294.87760154
  -Hartree energ DENC   =      -525.40120727
  -exchange      EXHF   =         0.00000000
  -V(xc)+E(xc)   XCENC  =        18.28847570
  PAW double counting   =       312.12188566     -301.72023744
  entropy T*S    EENTRO =        -0.00000000
  eigenvalues    EBANDS =      -141.07436132
  atomic energy  EATOM  =       319.28781218
  Solvation  Ediel_sol  =         0.00000000
  ---------------------------------------------------
  free energy    TOTEN  =       -23.61272313 eV

  energy without entropy =      -23.61272313  energy(sigma->0) =      -23.61272313


--------------------------------------------------------------------------------------------------------




----------------------------------------- Iteration    1(   7)  ---------------------------------------


    POTLOK:  cpu time   42.9660: real time   43.0706
    SETDIJ:  cpu time    0.1369: real time    0.1372
     EDDAV:  cpu time   16.5660: real time   16.6064
       DOS:  cpu time    0.0000: real time    0.0000
    CHARGE:  cpu time    4.2870: real time    4.2974
    MIXING:  cpu time    1.2528: real time    1.2559
    --------------------------------------------
      LOOP:  cpu time   65.2107: real time   65.3723

 eigenvalue-minimisations  :    28
 total energy-change (2. order) : 0.5934867E+00  (-0.2225028E+00)
 number of electron      10.0000000 magnetization 
 augmentation part        0.0336423 magnetization 

 Broyden mixing:
  rms(total) = 0.13588E+00    rms(broyden)= 0.13588E+00
  rms(prec ) = 0.13972E+00
  weight for this iteration     100.00

 eigenvalues of (default mixing * dielectric matrix)
  average eigenvalue GAMMA=   1.7489
  1.7489  1.7489

 Free energy of the ion-electron system (eV)
  ---------------------------------------------------
  alpha Z        PSCENC =         0.00730783
  Ewald energy   TEWEN  =       294.87760154
  -Hartree energ DENC   =      -541.34116783
  -exchange      EXHF   =         0.00000000
  -V(xc)+E(xc)   XCENC  =        19.23711274
  PAW double counting   =       333.73079991     -323.35774180
  entropy T*S    EENTRO =        -0.00000000
  eigenvalues    EBANDS =      -125.46096095
  atomic energy  EATOM  =       319.28781218
  Solvation  Ediel_sol  =         0.00000000
  ---------------------------------------------------
  free energy    TOTEN  =       -23.01923639 eV

  energy without entropy =      -23.01923639  energy(sigma->0) =      -23.01923639


--------------------------------------------------------------------------------------------------------




----------------------------------------- Iteration    1(   8)  ---------------------------------------


    POTLOK:  cpu time   43.1221: real time   43.2273
    SETDIJ:  cpu time    0.1371: real time    0.1374
     EDDAV:  cpu time   20.1598: real time   20.2091
       DOS:  cpu time    0.0000: real time    0.0000
    CHARGE:  cpu time    4.2842: real time    4.2947
    MIXING:  cpu time    1.2951: real time    1.2982
    --------------------------------------------
      LOOP:  cpu time   69.0003: real time   69.1719

 eigenvalue-minimisations  :    36
 total energy-change (2. order) : 0.4666952E-01  (-0.1110921E-01)
 number of electron      10.0000000 magnetization 
 augmentation part        0.0361906 magnetization 

 Broyden mixing:
  rms(total) = 0.32261E-01    rms(broyden)= 0.32261E-01
  rms(prec ) = 0.36172E-01
  weight for this iteration     100.00

 eigenvalues of (default mixing * dielectric matrix)
  average eigenvalue GAMMA=   1.5462
  2.2396  0.8546  1.5443

 Free energy of the ion-electron system (eV)
  ---------------------------------------------------
  alpha Z        PSCENC =         0.00730783
  Ewald energy   TEWEN  =       294.87760154
  -Hartree energ DENC   =      -543.91376064
  -exchange      EXHF   =         0.00000000
  -V(xc)+E(xc)   XCENC  =        19.44604352
  PAW double counting   =       309.16870564     -298.73771383
  entropy T*S    EENTRO =        -0.00000000
  eigenvalues    EBANDS =      -123.10856309
  atomic energy  EATOM  =       319.28781218
  Solvation  Ediel_sol  =         0.00000000
  ---------------------------------------------------
  free energy    TOTEN  =       -22.97256687 eV

  energy without entropy =      -22.97256687  energy(sigma->0) =      -22.97256687


--------------------------------------------------------------------------------------------------------




----------------------------------------- Iteration    1(   9)  ---------------------------------------


    POTLOK:  cpu time   43.1118: real time   43.2167
    SETDIJ:  cpu time    0.1372: real time    0.1376
     EDDAV:  cpu time   20.1592: real time   20.2083
       DOS:  cpu time    0.0000: real time    0.0000
    CHARGE:  cpu time    4.2789: real time    4.2894
    MIXING:  cpu time    1.3381: real time    1.3414
    --------------------------------------------
      LOOP:  cpu time   69.0273: real time   69.1986

 eigenvalue-minimisations  :    36
 total energy-change (2. order) : 0.1014359E-01  (-0.1463948E-02)
 number of electron      10.0000000 magnetization 
 augmentation part        0.0360770 magnetization 

 Broyden mixing:
  rms(total) = 0.14269E-01    rms(broyden)= 0.14269E-01
  rms(prec ) = 0.17992E-01
  weight for this iteration     100.00

 eigenvalues of (default mixing * dielectric matrix)
  average eigenvalue GAMMA=   1.6311
  2.4681  1.7727  1.4299  0.8539

 Free energy of the ion-electron system (eV)
  ---------------------------------------------------
  alpha Z        PSCENC =         0.00730783
  Ewald energy   TEWEN  =       294.87760154
  -Hartree energ DENC   =      -545.63266566
  -exchange      EXHF   =         0.00000000
  -V(xc)+E(xc)   XCENC  =        19.54022803
  PAW double counting   =       307.91142367     -297.47630165
  entropy T*S    EENTRO =        -0.00000000
  eigenvalues    EBANDS =      -121.47782922
  atomic energy  EATOM  =       319.28781218
  Solvation  Ediel_sol  =         0.00000000
  ---------------------------------------------------
  free energy    TOTEN  =       -22.96242328 eV

  energy without entropy =      -22.96242328  energy(sigma->0) =      -22.96242328


--------------------------------------------------------------------------------------------------------




----------------------------------------- Iteration    1(  10)  ---------------------------------------


    POTLOK:  cpu time   43.1607: real time   43.2657
    SETDIJ:  cpu time    0.1372: real time    0.1376
     EDDAV:  cpu time   20.1510: real time   20.2001
       DOS:  cpu time    0.0000: real time    0.0000
    CHARGE:  cpu time    4.2849: real time    4.2954
    MIXING:  cpu time    1.3902: real time    1.3936
    --------------------------------------------
      LOOP:  cpu time   69.1260: real time   69.2971

 eigenvalue-minimisations  :    36
 total energy-change (2. order) : 0.3208115E-02  (-0.5094231E-03)
 number of electron      10.0000000 magnetization 
 augmentation part        0.0359996 magnetization 

 Broyden mixing:
  rms(total) = 0.83721E-02    rms(broyden)= 0.83721E-02
  rms(prec ) = 0.10677E-01
  weight for this iteration     100.00

 eigenvalues of (default mixing * dielectric matrix)
  average eigenvalue GAMMA=   1.7289
  2.9946  2.2772  1.3942  0.9388  1.0395

 Free energy of the ion-electron system (eV)
  ---------------------------------------------------
  alpha Z        PSCENC =         0.00730783
  Ewald energy   TEWEN  =       294.87760154
  -Hartree energ DENC   =      -547.16027378
  -exchange      EXHF   =         0.00000000
  -V(xc)+E(xc)   XCENC  =        19.59564958
  PAW double counting   =       308.53817523     -298.10339701
  entropy T*S    EENTRO =        -0.00000000
  eigenvalues    EBANDS =      -120.00209073
  atomic energy  EATOM  =       319.28781218
  Solvation  Ediel_sol  =         0.00000000
  ---------------------------------------------------
  free energy    TOTEN  =       -22.95921517 eV

  energy without entropy =      -22.95921517  energy(sigma->0) =      -22.95921517


--------------------------------------------------------------------------------------------------------




----------------------------------------- Iteration    1(  11)  ---------------------------------------


    POTLOK:  cpu time   43.2560: real time   43.3614
    SETDIJ:  cpu time    0.1371: real time    0.1374
     EDDAV:  cpu time   20.1659: real time   20.2151
       DOS:  cpu time    0.0000: real time    0.0000
    CHARGE:  cpu time    4.2810: real time    4.2914
    MIXING:  cpu time    1.4464: real time    1.4499
    --------------------------------------------
      LOOP:  cpu time   69.2885: real time   69.4603

 eigenvalue-minimisations  :    36
 total energy-change (2. order) :-0.1553714E-02  (-0.1160850E-03)
 number of electron      10.0000000 magnetization 
 augmentation part        0.0359761 magnetization 

 Broyden mixing:
  rms(total) = 0.42633E-02    rms(broyden)= 0.42633E-02
  rms(prec ) = 0.59639E-02
  weight for this iteration     100.00

 eigenvalues of (default mixing * dielectric matrix)
  average eigenvalue GAMMA=   1.8698
  3.7317  2.4605  1.5785  1.5785  0.9349  0.9349

 Free energy of the ion-electron system (eV)
  ---------------------------------------------------
  alpha Z        PSCENC =         0.00730783
  Ewald energy   TEWEN  =       294.87760154
  -Hartree energ DENC   =      -547.86353250
  -exchange      EXHF   =         0.00000000
  -V(xc)+E(xc)   XCENC  =        19.60985589
  PAW double counting   =       308.39681476     -297.96162376
  entropy T*S    EENTRO =        -0.00000000
  eigenvalues    EBANDS =      -119.31500481
  atomic energy  EATOM  =       319.28781218
  Solvation  Ediel_sol  =         0.00000000
  ---------------------------------------------------
  free energy    TOTEN  =       -22.96076888 eV

  energy without entropy =      -22.96076888  energy(sigma->0) =      -22.96076888


--------------------------------------------------------------------------------------------------------




----------------------------------------- Iteration    1(  12)  ---------------------------------------


    POTLOK:  cpu time   43.2875: real time   43.3929
    SETDIJ:  cpu time    0.1371: real time    0.1374
     EDDAV:  cpu time   16.5611: real time   16.6015
       DOS:  cpu time    0.0000: real time    0.0000
    CHARGE:  cpu time    4.2866: real time    4.2970
    MIXING:  cpu time    1.5062: real time    1.5099
    --------------------------------------------
      LOOP:  cpu time   65.7806: real time   65.9439

 eigenvalue-minimisations  :    28
 total energy-change (2. order) :-0.4200544E-02  (-0.9065446E-04)
 number of electron      10.0000000 magnetization 
 augmentation part        0.0359878 magnetization 

 Broyden mixing:
  rms(total) = 0.26917E-02    rms(broyden)= 0.26917E-02
  rms(prec ) = 0.36493E-02
  weight for this iteration     100.00

 eigenvalues of (default mixing * dielectric matrix)
  average eigenvalue GAMMA=   1.9803
  4.4620  2.7751  2.2918  1.3847  1.0863  0.9310  0.9310

 Free energy of the ion-electron system (eV)
  ---------------------------------------------------
  alpha Z        PSCENC =         0.00730783
  Ewald energy   TEWEN  =       294.87760154
  -Hartree energ DENC   =      -548.36633822
  -exchange      EXHF   =         0.00000000
  -V(xc)+E(xc)   XCENC  =        19.61693910
  PAW double counting   =       307.78908427     -297.35324029
  entropy T*S    EENTRO =        -0.00000000
  eigenvalues    EBANDS =      -118.82413583
  atomic energy  EATOM  =       319.28781218
  Solvation  Ediel_sol  =         0.00000000
  ---------------------------------------------------
  free energy    TOTEN  =       -22.96496943 eV

  energy without entropy =      -22.96496943  energy(sigma->0) =      -22.96496943


--------------------------------------------------------------------------------------------------------




----------------------------------------- Iteration    1(  13)  ---------------------------------------


    POTLOK:  cpu time   43.2785: real time   43.3839
    SETDIJ:  cpu time    0.1371: real time    0.1374
     EDDAV:  cpu time   12.9713: real time   13.0030
       DOS:  cpu time    0.0000: real time    0.0000
    CHARGE:  cpu time    4.2796: real time    4.2901
    MIXING:  cpu time    1.5677: real time    1.5715
    --------------------------------------------
      LOOP:  cpu time   62.2364: real time   62.3907

 eigenvalue-minimisations  :    20
 total energy-change (2. order) :-0.3593304E-02  (-0.7050859E-04)
 number of electron      10.0000000 magnetization 
 augmentation part        0.0359516 magnetization 

 Broyden mixing:
  rms(total) = 0.14279E-02    rms(broyden)= 0.14279E-02
  rms(prec ) = 0.20313E-02
  weight for this iteration     100.00

 eigenvalues of (default mixing * dielectric matrix)
  average eigenvalue GAMMA=   2.0204
  5.1674  2.9534  2.2999  1.4845  1.4845  0.9181  0.9181  0.9373

 Free energy of the ion-electron system (eV)
  ---------------------------------------------------
  alpha Z        PSCENC =         0.00730783
  Ewald energy   TEWEN  =       294.87760154
  -Hartree energ DENC   =      -548.71154000
  -exchange      EXHF   =         0.00000000
  -V(xc)+E(xc)   XCENC  =        19.62335353
  PAW double counting   =       307.62884765     -297.19297328
  entropy T*S    EENTRO =        -0.00000000
  eigenvalues    EBANDS =      -118.48897217
  atomic energy  EATOM  =       319.28781218
  Solvation  Ediel_sol  =         0.00000000
  ---------------------------------------------------
  free energy    TOTEN  =       -22.96856273 eV

  energy without entropy =      -22.96856273  energy(sigma->0) =      -22.96856273


--------------------------------------------------------------------------------------------------------




----------------------------------------- Iteration    1(  14)  ---------------------------------------


    POTLOK:  cpu time   43.2998: real time   43.4052
    SETDIJ:  cpu time    0.1370: real time    0.1373
     EDDAV:  cpu time   20.1615: real time   20.2106
       DOS:  cpu time    0.0000: real time    0.0000
    CHARGE:  cpu time    4.2756: real time    4.2860
    MIXING:  cpu time    1.6344: real time    1.6384
    --------------------------------------------
      LOOP:  cpu time   69.5104: real time   69.6825

 eigenvalue-minimisations  :    36
 total energy-change (2. order) :-0.2660752E-02  (-0.3293343E-04)
 number of electron      10.0000000 magnetization 
 augmentation part        0.0358988 magnetization 

 Broyden mixing:
  rms(total) = 0.11441E-02    rms(broyden)= 0.11441E-02
  rms(prec ) = 0.14574E-02
  weight for this iteration     100.00

 eigenvalues of (default mixing * dielectric matrix)
  average eigenvalue GAMMA=   2.2186
  6.3666  3.6635  2.3687  2.3366  1.3648  1.0842  0.9294  0.9269  0.9269

 Free energy of the ion-electron system (eV)
  ---------------------------------------------------
  alpha Z        PSCENC =         0.00730783
  Ewald energy   TEWEN  =       294.87760154
  -Hartree energ DENC   =      -548.81507325
  -exchange      EXHF   =         0.00000000
  -V(xc)+E(xc)   XCENC  =        19.62111406
  PAW double counting   =       307.62604175     -297.19004639
  entropy T*S    EENTRO =        -0.00000000
  eigenvalues    EBANDS =      -118.38598119
  atomic energy  EATOM  =       319.28781218
  Solvation  Ediel_sol  =         0.00000000
  ---------------------------------------------------
  free energy    TOTEN  =       -22.97122348 eV

  energy without entropy =      -22.97122348  energy(sigma->0) =      -22.97122348


--------------------------------------------------------------------------------------------------------




----------------------------------------- Iteration    1(  15)  ---------------------------------------


    POTLOK:  cpu time   43.3238: real time   43.4293
    SETDIJ:  cpu time    0.1369: real time    0.1373
     EDDAV:  cpu time   12.9538: real time   12.9855
       DOS:  cpu time    0.0000: real time    0.0000
    CHARGE:  cpu time    4.2818: real time    4.2923
    MIXING:  cpu time    1.7098: real time    1.7139
    --------------------------------------------
      LOOP:  cpu time   62.4081: real time   62.5634

 eigenvalue-minimisations  :    20
 total energy-change (2. order) :-0.1974196E-02  (-0.2476316E-04)
 number of electron      10.0000000 magnetization 
 augmentation part        0.0359206 magnetization 

 Broyden mixing:
  rms(total) = 0.58509E-03    rms(broyden)= 0.58509E-03
  rms(prec ) = 0.73987E-03
  weight for this iteration     100.00

 eigenvalues of (default mixing * dielectric matrix)
  average eigenvalue GAMMA=   2.1890
  6.5413  4.0453  2.5969  2.2196  1.4327  1.2500  0.9832  0.9832  0.9189  0.9189

 Free energy of the ion-electron system (eV)
  ---------------------------------------------------
  alpha Z        PSCENC =         0.00730783
  Ewald energy   TEWEN  =       294.87760154
  -Hartree energ DENC   =      -548.82524910
  -exchange      EXHF   =         0.00000000
  -V(xc)+E(xc)   XCENC  =        19.61637663
  PAW double counting   =       307.44045198     -297.00401471
  entropy T*S    EENTRO =        -0.00000000
  eigenvalues    EBANDS =      -118.37348403
  atomic energy  EATOM  =       319.28781218
  Solvation  Ediel_sol  =         0.00000000
  ---------------------------------------------------
  free energy    TOTEN  =       -22.97319768 eV

  energy without entropy =      -22.97319768  energy(sigma->0) =      -22.97319768


--------------------------------------------------------------------------------------------------------




----------------------------------------- Iteration    1(  16)  ---------------------------------------


    POTLOK:  cpu time   43.3221: real time   43.4275
    SETDIJ:  cpu time    0.1369: real time    0.1373
     EDDAV:  cpu time   20.1666: real time   20.2157
       DOS:  cpu time    0.0000: real time    0.0000
    CHARGE:  cpu time    4.2792: real time    4.2897
    MIXING:  cpu time    1.7797: real time    1.7840
    --------------------------------------------
      LOOP:  cpu time   69.6866: real time   69.8593

 eigenvalue-minimisations  :    36
 total energy-change (2. order) :-0.5467068E-03  (-0.5256642E-05)
 number of electron      10.0000000 magnetization 
 augmentation part        0.0359138 magnetization 

 Broyden mixing:
  rms(total) = 0.37549E-03    rms(broyden)= 0.37549E-03
  rms(prec ) = 0.48780E-03
  weight for this iteration     100.00

 eigenvalues of (default mixing * dielectric matrix)
  average eigenvalue GAMMA=   2.2866
  7.3713  4.4219  2.8362  2.2849  2.2849  1.3850  1.0376  0.9009  0.9009  0.8646
  0.8646

 Free energy of the ion-electron system (eV)
  ---------------------------------------------------
  alpha Z        PSCENC =         0.00730783
  Ewald energy   TEWEN  =       294.87760154
  -Hartree energ DENC   =      -548.85622057
  -exchange      EXHF   =         0.00000000
  -V(xc)+E(xc)   XCENC  =        19.61671514
  PAW double counting   =       307.51668924     -297.08042646
  entropy T*S    EENTRO =        -0.00000000
  eigenvalues    EBANDS =      -118.34322328
  atomic energy  EATOM  =       319.28781218
  Solvation  Ediel_sol  =         0.00000000
  ---------------------------------------------------
  free energy    TOTEN  =       -22.97374439 eV

  energy without entropy =      -22.97374439  energy(sigma->0) =      -22.97374439


--------------------------------------------------------------------------------------------------------




----------------------------------------- Iteration    1(  17)  ---------------------------------------


    POTLOK:  cpu time   43.3278: real time   43.4334
    SETDIJ:  cpu time    0.1370: real time    0.1373
     EDDAV:  cpu time   16.5604: real time   16.6009
       DOS:  cpu time    0.0000: real time    0.0000
    CHARGE:  cpu time    4.2734: real time    4.2838
    MIXING:  cpu time    1.8641: real time    1.8686
    --------------------------------------------
      LOOP:  cpu time   66.1647: real time   66.3292

 eigenvalue-minimisations  :    28
 total energy-change (2. order) :-0.5741296E-03  (-0.3176865E-05)
 number of electron      10.0000000 magnetization 
 augmentation part        0.0359109 magnetization 

 Broyden mixing:
  rms(total) = 0.18268E-03    rms(broyden)= 0.18268E-03
  rms(prec ) = 0.23857E-03
  weight for this iteration     100.00

 eigenvalues of (default mixing * dielectric matrix)
  average eigenvalue GAMMA=   2.3390
  7.9542  4.9099  3.0885  2.5566  2.2011  1.4395  1.2921  1.0192  0.9132  0.9132
  0.8904  0.8904

 Free energy of the ion-electron system (eV)
  ---------------------------------------------------
  alpha Z        PSCENC =         0.00730783
  Ewald energy   TEWEN  =       294.87760154
  -Hartree energ DENC   =      -548.87140614
  -exchange      EXHF   =         0.00000000
  -V(xc)+E(xc)   XCENC  =        19.61597363
  PAW double counting   =       307.53216918     -297.09602340
  entropy T*S    EENTRO =        -0.00000000
  eigenvalues    EBANDS =      -118.32775334
  atomic energy  EATOM  =       319.28781218
  Solvation  Ediel_sol  =         0.00000000
  ---------------------------------------------------
  free energy    TOTEN  =       -22.97431852 eV

  energy without entropy =      -22.97431852  energy(sigma->0) =      -22.97431852


--------------------------------------------------------------------------------------------------------




----------------------------------------- Iteration    1(  18)  ---------------------------------------


    POTLOK:  cpu time   43.2967: real time   43.4054
    SETDIJ:  cpu time    0.1370: real time    0.1373
     EDDAV:  cpu time   20.1622: real time   20.2114
       DOS:  cpu time    0.0000: real time    0.0000
    CHARGE:  cpu time    4.2832: real time    4.2937
    MIXING:  cpu time    1.9563: real time    1.9611
    --------------------------------------------
      LOOP:  cpu time   69.8376: real time   70.0138

 eigenvalue-minimisations  :    36
 total energy-change (2. order) :-0.1930058E-03  (-0.5213686E-06)
 number of electron      10.0000000 magnetization 
 augmentation part        0.0359158 magnetization 

 Broyden mixing:
  rms(total) = 0.10290E-03    rms(broyden)= 0.10290E-03
  rms(prec ) = 0.13576E-03
  weight for this iteration     100.00

 eigenvalues of (default mixing * dielectric matrix)
  average eigenvalue GAMMA=   2.4215
  8.4832  5.3757  3.5609  2.5151  2.3823  2.1524  1.4047  0.9199  0.9199  0.9961
  0.9961  0.8863  0.8863

 Free energy of the ion-electron system (eV)
  ---------------------------------------------------
  alpha Z        PSCENC =         0.00730783
  Ewald energy   TEWEN  =       294.87760154
  -Hartree energ DENC   =      -548.86668558
  -exchange      EXHF   =         0.00000000
  -V(xc)+E(xc)   XCENC  =        19.61523342
  PAW double counting   =       307.51347456     -297.07729278
  entropy T*S    EENTRO =        -0.00000000
  eigenvalues    EBANDS =      -118.33196269
  atomic energy  EATOM  =       319.28781218
  Solvation  Ediel_sol  =         0.00000000
  ---------------------------------------------------
  free energy    TOTEN  =       -22.97451152 eV

  energy without entropy =      -22.97451152  energy(sigma->0) =      -22.97451152


--------------------------------------------------------------------------------------------------------




----------------------------------------- Iteration    1(  19)  ---------------------------------------


    POTLOK:  cpu time   43.2340: real time   43.3394
    SETDIJ:  cpu time    0.1371: real time    0.1375
     EDDAV:  cpu time   20.1737: real time   20.2230
       DOS:  cpu time    0.0000: real time    0.0000
    CHARGE:  cpu time    4.2767: real time    4.2872
    MIXING:  cpu time    2.0428: real time    2.0478
    --------------------------------------------
      LOOP:  cpu time   69.8664: real time   70.0396

 eigenvalue-minimisations  :    36
 total energy-change (2. order) :-0.1165283E-03  (-0.1312490E-06)
 number of electron      10.0000000 magnetization 
 augmentation part        0.0359163 magnetization 

 Broyden mixing:
  rms(total) = 0.48227E-04    rms(broyden)= 0.48227E-04
  rms(prec ) = 0.64967E-04
  weight for this iteration     100.00

 eigenvalues of (default mixing * dielectric matrix)
  average eigenvalue GAMMA=   2.4590
  8.7918  5.6992  3.9263  2.7962  2.3594  1.9607  1.9303  1.3960  0.9172  0.9172
  0.9875  0.9520  0.8960  0.8960

 Free energy of the ion-electron system (eV)
  ---------------------------------------------------
  alpha Z        PSCENC =         0.00730783
  Ewald energy   TEWEN  =       294.87760154
  -Hartree energ DENC   =      -548.87212912
  -exchange      EXHF   =         0.00000000
  -V(xc)+E(xc)   XCENC  =        19.61518397
  PAW double counting   =       307.52740214     -297.09121768
  entropy T*S    EENTRO =        -0.00000000
  eigenvalues    EBANDS =      -118.32658890
  atomic energy  EATOM  =       319.28781218
  Solvation  Ediel_sol  =         0.00000000
  ---------------------------------------------------
  free energy    TOTEN  =       -22.97462805 eV

  energy without entropy =      -22.97462805  energy(sigma->0) =      -22.97462805


--------------------------------------------------------------------------------------------------------




----------------------------------------- Iteration    1(  20)  ---------------------------------------


    POTLOK:  cpu time   43.1239: real time   43.2289
    SETDIJ:  cpu time    0.1370: real time    0.1374
     EDDAV:  cpu time   12.9530: real time   12.9846
       DOS:  cpu time    0.0000: real time    0.0000
    CHARGE:  cpu time    4.2773: real time    4.2878
    MIXING:  cpu time    2.1400: real time    2.1453
    --------------------------------------------
      LOOP:  cpu time   62.6334: real time   62.7889

 eigenvalue-minimisations  :    20
 total energy-change (2. order) :-0.4612614E-04  (-0.2022980E-07)
 number of electron      10.0000000 magnetization 
 augmentation part        0.0359164 magnetization 

 Broyden mixing:
  rms(total) = 0.30584E-04    rms(broyden)= 0.30584E-04
  rms(prec ) = 0.38465E-04
  weight for this iteration     100.00

 eigenvalues of (default mixing * dielectric matrix)
  average eigenvalue GAMMA=   2.5082
  9.1560  6.0973  4.3808  3.1002  2.5601  2.2819  1.9476  1.4100  0.9187  0.9187
  1.0878  1.0009  0.9809  0.8910  0.8910

 Free energy of the ion-electron system (eV)
  ---------------------------------------------------
  alpha Z        PSCENC =         0.00730783
  Ewald energy   TEWEN  =       294.87760154
  -Hartree energ DENC   =      -548.87480520
  -exchange      EXHF   =         0.00000000
  -V(xc)+E(xc)   XCENC  =        19.61519371
  PAW double counting   =       307.53573050     -297.09955129
  entropy T*S    EENTRO =        -0.00000000
  eigenvalues    EBANDS =      -118.32396344
  atomic energy  EATOM  =       319.28781218
  Solvation  Ediel_sol  =         0.00000000
  ---------------------------------------------------
  free energy    TOTEN  =       -22.97467418 eV

  energy without entropy =      -22.97467418  energy(sigma->0) =      -22.97467418


--------------------------------------------------------------------------------------------------------




----------------------------------------- Iteration    1(  21)  ---------------------------------------


    POTLOK:  cpu time   43.0820: real time   43.1869
    SETDIJ:  cpu time    0.1370: real time    0.1374
     EDDAV:  cpu time   20.1692: real time   20.2183
       DOS:  cpu time    0.0000: real time    0.0000
    CHARGE:  cpu time    4.2779: real time    4.2883
    MIXING:  cpu time    2.2333: real time    2.2388
    --------------------------------------------
      LOOP:  cpu time   69.9015: real time   70.0745

 eigenvalue-minimisations  :    36
 total energy-change (2. order) :-0.2057752E-04  (-0.9650009E-08)
 number of electron      10.0000000 magnetization 
 augmentation part        0.0359186 magnetization 

 Broyden mixing:
  rms(total) = 0.18851E-04    rms(broyden)= 0.18851E-04
  rms(prec ) = 0.22764E-04
  weight for this iteration     100.00

 eigenvalues of (default mixing * dielectric matrix)
  average eigenvalue GAMMA=   2.5541
  9.2845  6.3897  4.6730  3.1894  2.8642  2.2428  2.2174  1.9837  1.4056  0.9190
  0.9190  1.0122  1.0122  0.9766  0.8879  0.8879

 Free energy of the ion-electron system (eV)
  ---------------------------------------------------
  alpha Z        PSCENC =         0.00730783
  Ewald energy   TEWEN  =       294.87760154
  -Hartree energ DENC   =      -548.87464495
  -exchange      EXHF   =         0.00000000
  -V(xc)+E(xc)   XCENC  =        19.61513476
  PAW double counting   =       307.53403316     -297.09784276
  entropy T*S    EENTRO =        -0.00000000
  eigenvalues    EBANDS =      -118.32409651
  atomic energy  EATOM  =       319.28781218
  Solvation  Ediel_sol  =         0.00000000
  ---------------------------------------------------
  free energy    TOTEN  =       -22.97469475 eV

  energy without entropy =      -22.97469475  energy(sigma->0) =      -22.97469475


--------------------------------------------------------------------------------------------------------




----------------------------------------- Iteration    1(  22)  ---------------------------------------


    POTLOK:  cpu time   43.1091: real time   43.2140
    SETDIJ:  cpu time    0.1371: real time    0.1375
     EDDAV:  cpu time   12.9623: real time   12.9939
       DOS:  cpu time    0.0000: real time    0.0000
    CHARGE:  cpu time    4.2809: real time    4.2913
    MIXING:  cpu time    2.3354: real time    2.3411
    --------------------------------------------
      LOOP:  cpu time   62.8270: real time   62.9827

 eigenvalue-minimisations  :    20
 total energy-change (2. order) :-0.1134339E-04  (-0.3661889E-08)
 number of electron      10.0000000 magnetization 
 augmentation part        0.0359186 magnetization 

 Broyden mixing:
  rms(total) = 0.63473E-05    rms(broyden)= 0.63473E-05
  rms(prec ) = 0.85726E-05
  weight for this iteration     100.00

 eigenvalues of (default mixing * dielectric matrix)
  average eigenvalue GAMMA=   2.5365
  9.4207  6.6673  5.0041  3.6226  2.8135  2.4795  2.2383  1.9297  1.4057  0.9185
  0.9185  1.0573  0.9877  0.9877  0.8906  0.8906  0.8876

 Free energy of the ion-electron system (eV)
  ---------------------------------------------------
  alpha Z        PSCENC =         0.00730783
  Ewald energy   TEWEN  =       294.87760154
  -Hartree energ DENC   =      -548.87569265
  -exchange      EXHF   =         0.00000000
  -V(xc)+E(xc)   XCENC  =        19.61516839
  PAW double counting   =       307.54156320     -297.10538415
  entropy T*S    EENTRO =        -0.00000000
  eigenvalues    EBANDS =      -118.32308242
  atomic energy  EATOM  =       319.28781218
  Solvation  Ediel_sol  =         0.00000000
  ---------------------------------------------------
  free energy    TOTEN  =       -22.97470610 eV

  energy without entropy =      -22.97470610  energy(sigma->0) =      -22.97470610


--------------------------------------------------------------------------------------------------------




----------------------------------------- Iteration    1(  23)  ---------------------------------------


    POTLOK:  cpu time   43.1139: real time   43.2189
    SETDIJ:  cpu time    0.1371: real time    0.1375
     EDDAV:  cpu time   20.1594: real time   20.2087
       DOS:  cpu time    0.0000: real time    0.0000
    CHARGE:  cpu time    4.2895: real time    4.2999
    MIXING:  cpu time    2.4439: real time    2.4499
    --------------------------------------------
      LOOP:  cpu time   70.1458: real time   70.3198

 eigenvalue-minimisations  :    36
 total energy-change (2. order) :-0.2448482E-05  (-0.7643841E-09)
 number of electron      10.0000000 magnetization 
 augmentation part        0.0359186 magnetization 

 Broyden mixing:
  rms(total) = 0.62839E-05    rms(broyden)= 0.62839E-05
  rms(prec ) = 0.75078E-05
  weight for this iteration     100.00

 eigenvalues of (default mixing * dielectric matrix)
  average eigenvalue GAMMA=   2.5512
  9.5411  6.8262  5.2396  3.8620  2.9698  2.5981  2.2726  1.7891  1.7891  1.4022
  0.9199  0.9199  0.8852  0.8852  1.0267  1.0267  0.9843  0.9843

 Free energy of the ion-electron system (eV)
  ---------------------------------------------------
  alpha Z        PSCENC =         0.00730783
  Ewald energy   TEWEN  =       294.87760154
  -Hartree energ DENC   =      -548.87567689
  -exchange      EXHF   =         0.00000000
  -V(xc)+E(xc)   XCENC  =        19.61516289
  PAW double counting   =       307.54215278     -297.10597454
  entropy T*S    EENTRO =        -0.00000000
  eigenvalues    EBANDS =      -118.32309433
  atomic energy  EATOM  =       319.28781218
  Solvation  Ediel_sol  =         0.00000000
  ---------------------------------------------------
  free energy    TOTEN  =       -22.97470855 eV

  energy without entropy =      -22.97470855  energy(sigma->0) =      -22.97470855


--------------------------------------------------------------------------------------------------------




----------------------------------------- Iteration    1(  24)  ---------------------------------------


    POTLOK:  cpu time   43.0993: real time   43.2047
    SETDIJ:  cpu time    0.1366: real time    0.1370
     EDDAV:  cpu time   12.9546: real time   12.9863
       DOS:  cpu time    0.0000: real time    0.0000
    CHARGE:  cpu time    4.2791: real time    4.2896
    MIXING:  cpu time    2.5524: real time    2.5587
    --------------------------------------------
      LOOP:  cpu time   63.0243: real time   63.1813

 eigenvalue-minimisations  :    20
 total energy-change (2. order) :-0.2362246E-05  (-0.7226024E-09)
 number of electron      10.0000000 magnetization 
 augmentation part        0.0359187 magnetization 

 Broyden mixing:
  rms(total) = 0.26563E-05    rms(broyden)= 0.26563E-05
  rms(prec ) = 0.33295E-05
  weight for this iteration     100.00

 eigenvalues of (default mixing * dielectric matrix)
  average eigenvalue GAMMA=   2.5587
  9.5888  7.2087  5.4101  4.2842  3.0659  2.6822  2.3728  2.1798  1.9705  1.4039
  0.9190  0.9190  1.0332  0.9803  0.9803  0.8887  0.8887  0.9191  0.9191

 Free energy of the ion-electron system (eV)
  ---------------------------------------------------
  alpha Z        PSCENC =         0.00730783
  Ewald energy   TEWEN  =       294.87760154
  -Hartree energ DENC   =      -548.87552180
  -exchange      EXHF   =         0.00000000
  -V(xc)+E(xc)   XCENC  =        19.61515233
  PAW double counting   =       307.54142580     -297.10524538
  entropy T*S    EENTRO =        -0.00000000
  eigenvalues    EBANDS =      -118.32324339
  atomic energy  EATOM  =       319.28781218
  Solvation  Ediel_sol  =         0.00000000
  ---------------------------------------------------
  free energy    TOTEN  =       -22.97471091 eV

  energy without entropy =      -22.97471091  energy(sigma->0) =      -22.97471091


--------------------------------------------------------------------------------------------------------




----------------------------------------- Iteration    1(  25)  ---------------------------------------


    POTLOK:  cpu time   43.0967: real time   43.2016
    SETDIJ:  cpu time    0.1371: real time    0.1375
     EDDAV:  cpu time   16.5574: real time   16.5978
       DOS:  cpu time    0.0000: real time    0.0000
    CHARGE:  cpu time    4.2787: real time    4.2892
    MIXING:  cpu time    2.6726: real time    2.6791
    --------------------------------------------
      LOOP:  cpu time   66.7446: real time   66.9101

 eigenvalue-minimisations  :    28
 total energy-change (2. order) :-0.7443657E-06  (-0.2777778E-09)
 number of electron      10.0000000 magnetization 
 augmentation part        0.0359189 magnetization 

 Broyden mixing:
  rms(total) = 0.30687E-05    rms(broyden)= 0.30687E-05
  rms(prec ) = 0.33685E-05
  weight for this iteration     100.00

 eigenvalues of (default mixing * dielectric matrix)
  average eigenvalue GAMMA=   2.5892
  9.6186  7.4485  5.6007  4.4751  3.3768  2.7759  2.5106  2.2699  1.9272  1.6473
  1.4137  0.9198  0.9198  1.1066  1.1066  0.9859  0.9859  0.8848  0.8848  0.9250

 Free energy of the ion-electron system (eV)
  ---------------------------------------------------
  alpha Z        PSCENC =         0.00730783
  Ewald energy   TEWEN  =       294.87760154
  -Hartree energ DENC   =      -548.87542797
  -exchange      EXHF   =         0.00000000
  -V(xc)+E(xc)   XCENC  =        19.61514638
  PAW double counting   =       307.54101470     -297.10483327
  entropy T*S    EENTRO =        -0.00000000
  eigenvalues    EBANDS =      -118.32333304
  atomic energy  EATOM  =       319.28781218
  Solvation  Ediel_sol  =         0.00000000
  ---------------------------------------------------
  free energy    TOTEN  =       -22.97471165 eV

  energy without entropy =      -22.97471165  energy(sigma->0) =      -22.97471165


--------------------------------------------------------------------------------------------------------




----------------------------------------- Iteration    1(  26)  ---------------------------------------


    POTLOK:  cpu time   43.0961: real time   43.2010
    SETDIJ:  cpu time    0.1367: real time    0.1370
     EDDAV:  cpu time   16.5672: real time   16.6076
       DOS:  cpu time    0.0000: real time    0.0000
    CHARGE:  cpu time    4.2769: real time    4.2874
    MIXING:  cpu time    2.7889: real time    2.7957
    --------------------------------------------
      LOOP:  cpu time   66.8679: real time   67.0339

 eigenvalue-minimisations  :    28
 total energy-change (2. order) :-0.5727489E-06  (-0.2653646E-09)
 number of electron      10.0000000 magnetization 
 augmentation part        0.0359188 magnetization 

 Broyden mixing:
  rms(total) = 0.20239E-05    rms(broyden)= 0.20239E-05
  rms(prec ) = 0.21557E-05
  weight for this iteration     100.00

 eigenvalues of (default mixing * dielectric matrix)
  average eigenvalue GAMMA=   2.5843
  9.7040  7.6547  5.9256  4.7170  3.6974  2.8067  2.6143  2.2384  2.0117  2.0117
  1.4020  0.9202  0.9202  0.8838  0.8838  1.0316  0.9825  0.9825  0.9504  0.9656
  0.9656

 Free energy of the ion-electron system (eV)
  ---------------------------------------------------
  alpha Z        PSCENC =         0.00730783
  Ewald energy   TEWEN  =       294.87760154
  -Hartree energ DENC   =      -548.87552558
  -exchange      EXHF   =         0.00000000
  -V(xc)+E(xc)   XCENC  =        19.61514772
  PAW double counting   =       307.54185442     -297.10567472
  entropy T*S    EENTRO =        -0.00000000
  eigenvalues    EBANDS =      -118.32323560
  atomic energy  EATOM  =       319.28781218
  Solvation  Ediel_sol  =         0.00000000
  ---------------------------------------------------
  free energy    TOTEN  =       -22.97471223 eV

  energy without entropy =      -22.97471223  energy(sigma->0) =      -22.97471223


--------------------------------------------------------------------------------------------------------




----------------------------------------- Iteration    1(  27)  ---------------------------------------


    POTLOK:  cpu time   43.0334: real time   43.1381
    SETDIJ:  cpu time    0.1371: real time    0.1374
     EDDAV:  cpu time   12.9682: real time   12.9998
       DOS:  cpu time    0.0000: real time    0.0000
    CHARGE:  cpu time    4.2837: real time    4.2942
    MIXING:  cpu time    2.9195: real time    2.9267
    --------------------------------------------
      LOOP:  cpu time   63.3440: real time   63.5013

 eigenvalue-minimisations  :    20
 total energy-change (2. order) :-0.1064695E-06  (-0.1470397E-09)
 number of electron      10.0000000 magnetization 
 augmentation part        0.0359188 magnetization 

 Broyden mixing:
  rms(total) = 0.12561E-05    rms(broyden)= 0.12561E-05
  rms(prec ) = 0.13347E-05
  weight for this iteration     100.00

 eigenvalues of (default mixing * dielectric matrix)
  average eigenvalue GAMMA=   2.6184
  9.7310  7.8619  6.1281  4.9576  3.9065  3.1977  2.6820  2.4549  2.2225  1.9143
  1.4091  1.2894  1.2894  0.9198  0.9198  0.8858  0.8858  1.0210  1.0210  1.0005
  0.9537  0.9537

 Free energy of the ion-electron system (eV)
  ---------------------------------------------------
  alpha Z        PSCENC =         0.00730783
  Ewald energy   TEWEN  =       294.87760154
  -Hartree energ DENC   =      -548.87549042
  -exchange      EXHF   =         0.00000000
  -V(xc)+E(xc)   XCENC  =        19.61514624
  PAW double counting   =       307.54164263     -297.10546244
  entropy T*S    EENTRO =        -0.00000000
  eigenvalues    EBANDS =      -118.32326988
  atomic energy  EATOM  =       319.28781218
  Solvation  Ediel_sol  =         0.00000000
  ---------------------------------------------------
  free energy    TOTEN  =       -22.97471233 eV

  energy without entropy =      -22.97471233  energy(sigma->0) =      -22.97471233


--------------------------------------------------------------------------------------------------------




----------------------------------------- Iteration    1(  28)  ---------------------------------------


    POTLOK:  cpu time   43.0158: real time   43.1206
    SETDIJ:  cpu time    0.1371: real time    0.1374
     EDDAV:  cpu time   16.5552: real time   16.5957
       DOS:  cpu time    0.0000: real time    0.0000
    CHARGE:  cpu time    4.2761: real time    4.2866
    MIXING:  cpu time    3.0357: real time    3.0431
    --------------------------------------------
      LOOP:  cpu time   67.0220: real time   67.1885

 eigenvalue-minimisations  :    28
 total energy-change (2. order) :-0.1215913E-06  (-0.1303473E-09)
 number of electron      10.0000000 magnetization 
 augmentation part        0.0359189 magnetization 

 Broyden mixing:
  rms(total) = 0.36254E-06    rms(broyden)= 0.36254E-06
  rms(prec ) = 0.40906E-06
  weight for this iteration     100.00

 eigenvalues of (default mixing * dielectric matrix)
  average eigenvalue GAMMA=   2.6105
  9.7320  8.0696  6.2880  5.0855  4.1321  3.1943  2.8197  2.5908  2.1891  1.9751
  1.9751  1.4016  0.9197  0.9197  0.9996  0.9996  0.8854  0.8854  1.0448  1.0448
  0.9426  0.9731  0.9731

 Free energy of the ion-electron system (eV)
  ---------------------------------------------------
  alpha Z        PSCENC =         0.00730783
  Ewald energy   TEWEN  =       294.87760154
  -Hartree energ DENC   =      -548.87547494
  -exchange      EXHF   =         0.00000000
  -V(xc)+E(xc)   XCENC  =        19.61514615
  PAW double counting   =       307.54161965     -297.10543935
  entropy T*S    EENTRO =        -0.00000000
  eigenvalues    EBANDS =      -118.32328550
  atomic energy  EATOM  =       319.28781218
  Solvation  Ediel_sol  =         0.00000000
  ---------------------------------------------------
  free energy    TOTEN  =       -22.97471245 eV

  energy without entropy =      -22.97471245  energy(sigma->0) =      -22.97471245


--------------------------------------------------------------------------------------------------------




----------------------------------------- Iteration    1(  29)  ---------------------------------------


    POTLOK:  cpu time   43.1450: real time   43.2500
    SETDIJ:  cpu time    0.1368: real time    0.1371
     EDDAV:  cpu time   20.1625: real time   20.2116
       DOS:  cpu time    0.0000: real time    0.0000
    --------------------------------------------
      LOOP:  cpu time   63.4462: real time   63.6032

 eigenvalue-minimisations  :    36
 total energy-change (2. order) :-0.3231452E-07  (-0.7232259E-10)
 number of electron      10.0000000 magnetization 
 augmentation part        0.0359189 magnetization 

 Free energy of the ion-electron system (eV)
  ---------------------------------------------------
  alpha Z        PSCENC =         0.00730783
  Ewald energy   TEWEN  =       294.87760154
  -Hartree energ DENC   =      -548.87547050
  -exchange      EXHF   =         0.00000000
  -V(xc)+E(xc)   XCENC  =        19.61514617
  PAW double counting   =       307.54164577     -297.10546536
  entropy T*S    EENTRO =        -0.00000000
  eigenvalues    EBANDS =      -118.32329010
  atomic energy  EATOM  =       319.28781218
  Solvation  Ediel_sol  =         0.00000000
  ---------------------------------------------------
  free energy    TOTEN  =       -22.97471249 eV

  energy without entropy =      -22.97471249  energy(sigma->0) =      -22.97471249


--------------------------------------------------------------------------------------------------------




 average (electrostatic) potential at core
  the test charge radii are     0.5412  0.5531
  (the norm of the test charge is              1.0000)
       1-113.6835       2-113.6743       3 -42.5619       4 -42.6084
 
 
 
 E-fermi :  -7.0801     XC(G=0):  -0.0272     alpha+bet : -0.0062


 k-point     1 :       0.0000    0.0000    0.0000
  band No.  band energies     occupation 
      1     -18.5702      2.00000
      2     -14.0865      2.00000
      3     -12.1907      2.00000
      4      -7.1571      2.00000
      5      -7.1571      2.00000
      6      -0.4776      0.00000
      7      -0.4776      0.00000
      8      -0.2018      0.00000
      9       0.0147      0.00000


--------------------------------------------------------------------------------------------------------


 soft charge-density along one line, spin component           1
         0         1         2         3         4         5         6         7         8         9
 total charge-density along one line
 
 pseudopotential strength for first ion, spin component:           1
 10.607  -0.057   0.065  -0.000  -0.000   0.005   0.000   0.000
 -0.057  -0.072   0.661   0.000   0.000  -0.000   0.000   0.000
  0.065   0.661   0.207  -0.000  -0.000   0.000   0.000   0.000
 -0.000   0.000  -0.000  -3.674   0.000  -0.000   0.103   0.000
 -0.000   0.000  -0.000   0.000  -3.674  -0.000   0.000   0.103
  0.005  -0.000   0.000  -0.000  -0.000  -3.669  -0.001  -0.000
  0.000   0.000   0.000   0.103   0.000  -0.001  26.383   0.000
  0.000   0.000   0.000   0.000   0.103  -0.000   0.000  26.383
 -0.007  -0.004  -0.001  -0.001  -0.000   0.124  -0.001  -0.001
 -0.000  -0.000  -0.000  -0.059  -0.000   0.000 -17.724  -0.000
 -0.000  -0.000  -0.000  -0.000  -0.059   0.000  -0.000 -17.724
  0.001   0.001   0.000   0.000   0.000  -0.063   0.000   0.000
 -0.001  -0.000  -0.000  -0.005   0.000  -0.000   0.001  -0.000
  0.000   0.000   0.000   0.000   0.000   0.000  -0.000  -0.000
 -0.007  -0.002  -0.000   0.000   0.000  -0.000  -0.000  -0.000
 -0.001  -0.000  -0.000   0.000  -0.005  -0.000  -0.000   0.001
  0.012   0.004   0.001  -0.000  -0.000   0.000   0.000   0.000
  0.000   0.000   0.000   0.002  -0.000   0.000   0.006  -0.000
 -0.000  -0.000  -0.000  -0.000  -0.000  -0.000  -0.000  -0.000
  0.005   0.002   0.000   0.000  -0.000  -0.000   0.000  -0.000
  0.000   0.000   0.000  -0.000   0.002   0.000  -0.000   0.006
 -0.008  -0.003  -0.000   0.000   0.000   0.001   0.000   0.000
 total augmentation occupancy for first ion, spin component:           1
  1.556  -0.002   0.365   0.003   0.002  -0.094   0.000   0.000  -0.012   0.000   0.000  -0.005  -0.003   0.000  -0.030  -0.002
 -0.002   0.000  -0.000   0.000   0.000  -0.003   0.000   0.000  -0.000   0.000   0.000  -0.000   0.000  -0.000   0.000   0.000
  0.365  -0.000   0.088   0.002   0.001  -0.067   0.000   0.000  -0.005   0.000   0.000  -0.002  -0.001   0.000  -0.007  -0.001
  0.003   0.000   0.002   0.956   0.000  -0.011   0.022   0.000  -0.001   0.010   0.000  -0.001  -0.030   0.001  -0.000   0.000
  0.002   0.000   0.001   0.000   0.956  -0.009   0.000   0.022  -0.001   0.000   0.010  -0.000   0.000   0.001   0.001  -0.030
 -0.094  -0.003  -0.067  -0.011  -0.009   1.355  -0.001  -0.001   0.063  -0.001  -0.000   0.029   0.000   0.000   0.009   0.000
  0.000   0.000   0.000   0.022   0.000  -0.001   0.001   0.000  -0.000   0.000   0.000  -0.000  -0.001   0.000  -0.000  -0.000
  0.000   0.000   0.000   0.000   0.022  -0.001   0.000   0.001  -0.000   0.000   0.000  -0.000  -0.000   0.000   0.000  -0.001
 -0.012  -0.000  -0.005  -0.001  -0.001   0.063  -0.000  -0.000   0.003  -0.000  -0.000   0.001   0.000  -0.000   0.001   0.000
  0.000   0.000   0.000   0.010   0.000  -0.001   0.000   0.000  -0.000   0.000   0.000  -0.000  -0.000   0.000  -0.000  -0.000
  0.000   0.000   0.000   0.000   0.010  -0.000   0.000   0.000  -0.000   0.000   0.000  -0.000  -0.000   0.000   0.000  -0.000
 -0.005  -0.000  -0.002  -0.001  -0.000   0.029  -0.000  -0.000   0.001  -0.000  -0.000   0.001   0.000  -0.000   0.000   0.000
 -0.003   0.000  -0.001  -0.030   0.000   0.000  -0.001  -0.000   0.000  -0.000  -0.000   0.000   0.001  -0.000   0.000   0.000
  0.000  -0.000   0.000   0.001   0.001   0.000   0.000   0.000  -0.000   0.000   0.000  -0.000  -0.000   0.000  -0.000  -0.000
 -0.030   0.000  -0.007  -0.000   0.001   0.009  -0.000   0.000   0.001  -0.000   0.000   0.000   0.000  -0.000   0.001   0.000
 -0.002   0.000  -0.001   0.000  -0.030   0.000  -0.000  -0.001   0.000  -0.000  -0.000   0.000   0.000  -0.000   0.000   0.001
  0.053  -0.000   0.013  -0.001  -0.000  -0.016  -0.000   0.000  -0.001  -0.000   0.000  -0.000  -0.000   0.000  -0.001  -0.000
  0.002   0.000   0.001   0.023  -0.000   0.000   0.001   0.000  -0.000   0.000   0.000  -0.000  -0.001   0.000  -0.000  -0.000
 -0.000  -0.000  -0.000  -0.001  -0.001  -0.000  -0.000  -0.000   0.000  -0.000  -0.000   0.000   0.000  -0.000   0.000   0.000
  0.024   0.000   0.006   0.000  -0.001  -0.007   0.000  -0.000  -0.000   0.000  -0.000  -0.000  -0.000   0.000  -0.000  -0.000
  0.002   0.000   0.000  -0.000   0.023   0.000   0.000   0.001  -0.000   0.000   0.000  -0.000  -0.000   0.000  -0.000  -0.001
 -0.041  -0.000  -0.010   0.001   0.000   0.012   0.000  -0.000   0.001   0.000  -0.000   0.000   0.000  -0.000   0.001   0.000


------------------------ aborting loop because EDIFF is reached ----------------------------------------


    CHARGE:  cpu time    4.2847: real time    4.2951
    FORLOC:  cpu time    2.9673: real time    2.9745
    FORNL :  cpu time    1.4751: real time    1.4787
    STRESS:  cpu time    8.0154: real time    8.0349
    FORCOR:  cpu time   42.2891: real time   42.3920
    FORHAR:  cpu time   12.5939: real time   12.6245
    MIXING:  cpu time    3.1679: real time    3.1756
    OFIELD:  cpu time    0.0000: real time    0.0000

  FORCE on cell =-STRESS in cart. coord.  units (eV):
  Direction    XX          YY          ZZ          XY          YZ          ZX
  --------------------------------------------------------------------------------------
  Alpha Z     0.00731     0.00731     0.00731
  Ewald     333.38714   -19.20698   -19.30255    -9.91164     0.22597    -8.03640
  Hartree   262.63993   143.13395   143.10161    -3.35232     0.07638    -2.71822
  E(xc)     -36.94552   -38.15171   -38.15204    -0.03403     0.00078    -0.02759
  Local    -691.51637  -260.96511  -260.84847    12.09528    -0.27571     9.80708
  n-local     2.21641     0.71053     0.71017    -0.04224     0.00098    -0.03425
  augment     0.32649     0.59045     0.59053     0.00743    -0.00017     0.00603
  Kinetic   129.57025   173.87945   173.89142     1.24584    -0.02840     1.01012
  Fock        0.00000     0.00000     0.00000     0.00000     0.00000     0.00000
  -------------------------------------------------------------------------------------
  Total      -0.31437    -0.00211    -0.00204     0.00833    -0.00018     0.00676
  in kB      -0.01175    -0.00008    -0.00008     0.00031    -0.00001     0.00025
  external pressure =       -0.00 kB  Pullay stress =        0.00 kB


 VOLUME and BASIS-vectors are now :
 -----------------------------------------------------------------------------
  energy-cutoff  :     2000.00
  volume of cell :    42875.00
      direct lattice vectors                 reciprocal lattice vectors
    35.000000000  0.000000000  0.000000000     0.028571429  0.000000000  0.000000000
     0.000000000 35.000000000  0.000000000     0.000000000  0.028571429  0.000000000
     0.000000000  0.000000000 35.000000000     0.000000000  0.000000000  0.028571429

  length of vectors
    35.000000000 35.000000000 35.000000000     0.028571429  0.028571429  0.028571429


 FORCES acting on ions
    electron-ion (+dipol)            ewald-force                    non-local-force                 convergence-correction
 -----------------------------------------------------------------------------------------------
   -.121E+03 0.334E+01 0.271E+01   0.117E+03 -.323E+01 -.262E+01   0.271E+01 -.851E-01 -.687E-01   0.337E-05 -.961E-06 -.299E-06
   0.120E+03 -.331E+01 -.269E+01   -.117E+03 0.321E+01 0.260E+01   -.250E+01 0.781E-01 0.629E-01   -.110E-04 -.111E-05 -.548E-06
   -.566E+02 0.161E+01 0.130E+01   0.629E+02 -.179E+01 -.145E+01   -.622E+01 0.177E+00 0.144E+00   0.308E-05 -.118E-06 -.828E-07
   0.569E+02 -.162E+01 -.132E+01   -.635E+02 0.181E+01 0.147E+01   0.631E+01 -.180E+00 -.146E+00   -.123E-05 -.176E-06 -.935E-07
 -----------------------------------------------------------------------------------------------
   -.298E+00 0.103E-01 0.868E-02   -.142E-13 0.222E-15 -.222E-15   0.298E+00 -.103E-01 -.866E-02   -.573E-05 -.236E-05 -.102E-05
 
 
 POSITION                                       TOTAL-FORCE (eV/Angst)
 -----------------------------------------------------------------------------------
     33.99313     34.96943     34.97523        -0.807325      0.021078      0.017132
     32.78126      0.00317      0.00260         1.017949     -0.026866     -0.021780
      0.05900     34.93906     34.95063         0.132837     -0.003370     -0.002721
     31.72072      0.03352      0.02720        -0.343461      0.009158      0.007369
 -----------------------------------------------------------------------------------
    total drift:                               -0.000006      0.000013      0.000018


--------------------------------------------------------------------------------------------------------



  FREE ENERGIE OF THE ION-ELECTRON SYSTEM (eV)
  ---------------------------------------------------
  free  energy   TOTEN  =       -22.97471249 eV

  energy  without entropy=      -22.97471249  energy(sigma->0) =      -22.97471249
 


--------------------------------------------------------------------------------------------------------


    POTLOK:  cpu time   43.3381: real time   43.4435


--------------------------------------------------------------------------------------------------------


 writing wavefunctions
     LOOP+:  cpu time 2588.5961: real time 2595.0962
    4ORBIT:  cpu time    0.0000: real time    0.0000

 total amount of memory used by VASP on root node  8997274. kBytes
========================================================================

   base      :      30000. kBytes
   nonl-proj :     150929. kBytes
   fftplans  :    3255861. kBytes
   grid      :    5508227. kBytes
   one-center:         11. kBytes
   wavefun   :      52246. kBytes
 
  
  
 General timing and accounting informations for this job:
 ========================================================
  
                  Total CPU time used (sec):     3616.573
                            User time (sec):     3256.937
                          System time (sec):      359.636
                         Elapsed time (sec):     3625.716
  
                   Maximum memory used (kb):    14181552.
                   Average memory used (kb):           0.
  
                          Minor page faults:     14451595
                          Major page faults:            7
                 Voluntary context switches:          751
 
 PROFILE, used timers:      14
 =============================
 
 index                 routine                    time                            calls level
----------------------------------------------------------------------------------------------
    1    total_time                         3625.718622                                1   1
    2      w1_copy                               4.982984                           3387   2
    3      fftwav_mpi                          220.488212                           1260   2
    4      fftext_mpi                            1.009872                              9   2
    5      overl                                 0.002119                           1992   2
    6      orth1                                 6.151029                            796   2
    7      lincom                                0.292631                             30   2
    8      eccp                                  6.858927                            261   2
    9      hamiltmu                            236.769419                            265   2
   10        vhamil                               49.936344                         1126   3
   11        overl1                                0.001662                         1126   3
   12        kinhamil                            128.221454                         1126   3
   13          fftext_mpi                          126.690284                       1126   4
   14      pdssyex_zheevx                        0.027737                             29   2
 
 Flat profile
 ============
 
             routine name                   CPU           calls
 ---------------------------------------------------------------
 total_time                           3149.135693           1
 fftwav_mpi                            220.488212        1260
 fftext_mpi                            127.700156        1135
 hamiltmu                               58.609959         265
 vhamil                                 49.936344        1126
 eccp                                    6.858927         261
 orth1                                   6.151029         796
 w1_copy                                 4.982984        3387
 kinhamil                                1.531169        1126
 lincom                                  0.292631          30
 pdssyex_zheevx                          0.027737          29
 overl                                   0.002119        1992
 overl1                                  0.001662        1126
 ---------------------------------------------------------------
  summed up times    3625.71862196922     
 
Profiling took   0.008223  0.005621  0.003311  0.003305 seconds
Profiling took   0.005736 seconds
