
 Primary working directories    : /scratch/sirous/44743/molpro.Bj9Owl6vqj
 Secondary working directories  : /scratch/sirous/44743/molpro.Bj9Owl6vqj
 Wavefunction directory         : /scratch/sirous/44743/
 Main file repository           : /scratch/sirous/44743/molpro.Bj9Owl6vqj/

 id        : karlovklimes

 Nodes                      nprocs
 nc-10.cc.karlov.mff.cuni.cz    4

 Using customized tuning parameters: mindgm=1; mindgv=20; mindgc=4; mindgr=1; noblas=0; minvec=7
 default implementation of scratch files=sf  


 Variables initialized (934), CPU time= 0.00 sec
 ***,CH3C6H4CN+CF3CN+BF3
 memory,500,m
 gdirect
 gthresh,energy=1.d-8,twoint=1.d-19,oneint=1.d-19,zero=1.d-15,orbital=1.d-8,grid=1.d-8
 symmetry,nosym
 geomtyp=xyz
                                                                                 ! Geometry
 geometry={
 O1        -0.786562022    0.045168441     -0.007189119
 H1        0.177706774    0.012695896     -0.006835389
 C1        -1.247990941    -1.290283536     0.001083621
 H2        -2.334277443    -1.2588971     0.0002212
 H3        -0.925965746    -1.849768096     -0.880445382
 H4        -0.927027831    -1.838462882     0.89007652
 O2        1.8642276014938697    -0.04265130255079883     -0.0050250254279474065
 H5        2.30343174049387    0.3455008964492012     -0.7648977074279474
 H6        2.3021118954938697    0.35995297644920116     0.7480645065720526
 }
 
 
 
 basis=avdz
 
 
 
                                                                                 ! Dimer Calculation
 {rks,pbe,accu=1.d-8;orbital,2101.2}
 eab_PBE=energy
 
 
                                                                                 !monomer A
 dummy,7,8,9;                                                                    ! NOW MONOMER B IS DUMMY
 {rks,pbe,accu=1.d-8;orbital,2201.2}
 ea_PBE=energy
                                                                                 !monomer B
 dummy,1,2,3,4,5,6;                                                              !NOW MONOMER A IS DUMMY
 {rks,pbe,accu=1.d-8;orbital,2301.2}
 eb_PBE=energy
 
 E_AB_int=eab_PBE-ea_PBE-eb_PBE
 
 
 text,results in hartree
 show,E_AB_int
 
 Commands  initialized (763), CPU time= 0.00 sec, 617 directives.
 Default parameters read. Elapsed time= 0.27 sec

 Checking input...
 Passed
1


                                         ***  PROGRAM SYSTEM MOLPRO  ***
                                       Copyright, TTI GmbH Stuttgart, 2015
                                    Version 2019.2 linked Jun  8 2019 11:26:33


 **********************************************************************************************************************************
 LABEL *   CH3C6H4CN+CF3CN+BF3                                                           
  64 bit mpp version                                                                     DATE: 13-Oct-19          TIME: 15:59:42  
 **********************************************************************************************************************************

 SHA1:             8135a10abc80eafa5b3ae28ffc55be4890dc4c84
 **********************************************************************************************************************************

 THRESHOLDS:

 ZERO    =  1.00D-15  ONEINT  =  1.00D-19  TWOINT  =  1.00D-19  PREFAC  =  1.00D-14  XXXXXX  =  1.00D-09  EORDER  =  1.00D-04
 ENERGY  =  1.00D-08  ETEST   =  0.00D+00  EDENS   =  0.00D+00  THRDEDEF=  1.00D-06  GRADIENT=  1.00D-02  STEP    =  1.00D-03
 ORBITAL =  1.00D-08  CIVEC   =  1.00D-05  COEFF   =  1.00D-04  PRINTCI =  5.00D-02  PUNCHCI =  9.90D+01  OPTGRAD =  3.00D-04
 OPTENERG=  1.00D-06  OPTSTEP =  3.00D-04  THRGRAD =  1.00D-10  COMPRESS=  1.00D-11  VARMIN  =  1.00D-07  VARMAX  =  1.00D-03
 THRDOUB =  0.00D+00  THRDIV  =  1.00D-05  THRRED  =  1.00D-07  THRPSP  =  1.00D+00  THRDC   =  1.00D-10  THRCS   =  1.00D-10
 THRNRM  =  1.00D-08  THREQ   =  0.00D+00  THRDE   =  1.00D+00  THRREF  =  1.00D-05  SPARFAC =  1.00D+00  THRDLP  =  1.00D-07
 THRDIA  =  1.00D-10  THRDLS  =  1.00D-07  THRGPS  =  0.00D+00  THRKEX  =  0.00D+00  THRDIS  =  2.00D-01  THRVAR  =  1.00D-10
 THRLOC  =  1.00D-06  THRGAP  =  1.00D-06  THRLOCT = -1.00D+00  THRGAPT = -1.00D+00  THRORB  =  1.00D-06  THRMLTP =  0.00D+00
 THRCPQCI=  1.00D-10  KEXTA   =  0.00D+00  THRCOARS=  0.00D+00  SYMTOL  =  1.00D-06  GRADTOL =  1.00D-06  THROVL  =  1.00D-08
 THRORTH =  1.00D-08  GRID    =  1.00D-08  GRIDMAX =  1.00D-03  DTMAX   =  0.00D+00  THROCCDE=  1.00D-01  THROCCDE=  1.00D-01
 THRPRINT=  2.50D-01


 Variable memory set to  500000000 words,  buffer space 

 SETTING GEOMTYP        =    XYZ
 ZSYMEL=NOSYM

 SETTING BASIS          =    AVDZ


 Recomputing integrals since basis changed


 Using spherical harmonics

 Library entry O      S aug-cc-pVDZ          selected for orbital group  1
 Library entry O      P aug-cc-pVDZ          selected for orbital group  1
 Library entry O      D aug-cc-pVDZ          selected for orbital group  1
 Library entry H      S aug-cc-pVDZ          selected for orbital group  2
 Library entry H      P aug-cc-pVDZ          selected for orbital group  2
 Library entry C      S aug-cc-pVDZ          selected for orbital group  3
 Library entry C      P aug-cc-pVDZ          selected for orbital group  3
 Library entry C      D aug-cc-pVDZ          selected for orbital group  3


 PROGRAM * SEWARD (Integral evaluation for generally contracted gaussian basis sets)     Author: Roland Lindh, 1990

 Geometry written to block  1 of record 700


 Point group  C1  



 ATOMIC COORDINATES

 NR  ATOM    CHARGE       X              Y              Z

   1  O1      8.00   -1.486386802    0.085355983   -0.013585466
   2  H1      1.00    0.335817133    0.023991766   -0.012917013
   3  C1      6.00   -2.358361084   -2.438282506    0.002047747
   4  H2      1.00   -4.411145066   -2.378970738    0.000418007
   5  H3      1.00   -1.749821661   -3.495555095   -1.663800640
   6  H4      1.00   -1.751828710   -3.474191337    1.682000853
   7  O2      8.00    3.522879601   -0.080599281   -0.009495922
   8  H5      1.00    4.352855136    0.652902070   -1.445447180
   9  H6      1.00    4.350360991    0.680212543    1.413637041

 Bond lengths in Bohr (Angstrom)

 1-2  1.823237010  1-3  2.670081416  3-4  2.053641307  3-5  2.064750931  3-6  2.064759324
     ( 0.964815476)     ( 1.412946237)     ( 1.086740179)     ( 1.092619139)     ( 1.092623580)

 7-8  1.813515822  7-9  1.813523507
     ( 0.959671245)     ( 0.959675312)

 Bond angles

  1-3-4  107.40559298   1-3-5  112.51964705   1-3-6  112.52114043   2-1-3  107.13200477

  4-3-5  107.98411747   4-3-6  107.98497413   5-3-6  108.23763291   8-7-9  104.05491273

 NUCLEAR CHARGE:                   28
 NUMBER OF PRIMITIVE AOS:         177
 NUMBER OF SYMMETRY AOS:          171
 NUMBER OF CONTRACTIONS:          123   (  123A   )
 NUMBER OF CORE ORBITALS:           3   (    3A   )
 NUMBER OF VALENCE ORBITALS:       18   (   18A   )


 NUCLEAR REPULSION ENERGY   81.32155285


 Eigenvalues of metric

         1 0.510E-03 0.699E-03 0.710E-03 0.815E-03 0.163E-02 0.171E-02 0.260E-02 0.363E-02


 OPERATOR DM      FOR CENTER  0  COORDINATES:    0.000000    0.000000    0.000000


 **********************************************************************************************************************************
 DATASETS  * FILE   NREC   LENGTH (MB)   RECORD NAMES
              1      18       30.67       500      610      700      900      950      970     1000      129      960     1100   
                                          VAR    BASINP    GEOM    SYMINP    ZMAT    AOBASIS   BASIS     P2S    ABASIS      S 
                                         1400     1410     1200     1210     1080     1600     1650     1700   
                                           T        V       H0       H01     AOSYM     SMH    MOLCAS    OPER   

 PROGRAMS   *        TOTAL       INT
 CPU TIMES  *         0.44      0.27
 REAL TIME  *         1.82 SEC
 DISK USED  *        31.10 MB (local),      124.39 MB (total)
 GA USED    *         0.00 MB       (max)       0.00 MB       (current)
 **********************************************************************************************************************************

 Density functional group PBE=PBEX+PBEC
 Functional: PBEX(Automatically generated (new) PBEX)                          Gradient terms: 1
 Functional: PBEC(Automatically generated (new) PBEC)                          Gradient terms: 1
 Use libxcgrid:  F
 Use grid at  1800.2

 Functional: PBEX                      Factor:  1.0000
 Functional: PBEC                      Factor:  1.0000

 Generated new metagrid on record  1800.2 with target accuracy 1.0D-08 and 80368 points in CPU time    0.1
 Computed new grid on record 1800.1 in CPU time    0.2
  101847 words reserved for DFT integration

 PROGRAM * RKS-SCF (Restricted closed shell Kohn-Sham)     Authors: W. Meyer, H.-J. Werner, P.J. Knowles, 1993

 NUMBER OF ELECTRONS:      14+   14-    SPACE SYMMETRY=1    SPIN SYMMETRY: Singlet 
 CONVERGENCE THRESHOLDS:    1.00E-04 (Density)    1.00E-08 (Energy)
 INTEGRAL THRESHOLDS:       1.00E-11 (Initial)    1.00E-11 (Final)
 MAX. NUMBER OF ITERATIONS:       60
 INTERPOLATION TYPE:            DIIS
 INTERPOLATION STEPS:              2 (START)      1 (STEP)
 LEVEL SHIFTS:                  0.00 (CLOSED)  0.00 (OPEN) 



 Use fine grid record 1800.2 for energy threshold  1.0D-08
 Orbital guess generated from atomic densities. Full valence occupancy:   21

 Molecular orbital dump at record        2101.2

 Initial occupancy:  14

 Direct Fock-matrix evaluation.        Authors: Roland Lindh & Martin Schuetz (1993/96)

 Integral Threshold:                  0.1D-10
 Threshold for writing integrals:     0.1D-06
 Prescreening on density matrix:        ON 
 Calculation will be performed fully direct        

 ITERATION   DDIFF            GRAD            ENERGY        2-EL.EN.            DIPOLE MOMENTS         DIIS   CPU(IT)  CPU(TOT)
    1      0.000D+00      0.000D+00      -191.81159658    360.595346    1.70394   -0.00872   -0.00139    0      4.5      6.7     start
    2      0.000D+00      0.106D-01      -191.39725879    327.800448    0.41162    0.24851   -0.00100    1      2.5      9.2     diag
    3      0.322D-01      0.210D-01      -191.95729278    350.081722    1.29685   -0.02170   -0.00070    2      2.7     11.8     diag
    4      0.210D-01      0.205D-02      -191.96198840    349.732849    1.31479    0.09841   -0.00143    3      2.6     14.4     diag
    5      0.306D-02      0.903D-03      -191.96295940    349.528564    1.31539    0.05559   -0.00112    4      2.5     16.9     diag
    6      0.104D-02      0.268D-03      -191.96302660    349.533983    1.30970    0.07105   -0.00124    5      2.5     19.5     diag
    7      0.318D-03      0.110D-03      -191.96304175    349.561487    1.30891    0.06438   -0.00119    6      2.5     22.0     diag
    8      0.108D-03      0.120D-04      -191.96304192    349.569556    1.30977    0.06431   -0.00119    7      2.5     24.4     diag
    9      0.132D-04      0.200D-05      -191.96304192    349.570759    1.30958    0.06442   -0.00119    8      2.5     26.9     diag
   10      0.260D-05      0.234D-06      -191.96304192    349.570816    1.30963    0.06439   -0.00119    0      2.4     29.3     orth

 Final occupancy:  14

 !RKS STATE  1.1 Energy              -191.963041921930
 Nuclear energy                        81.32155285
 One-electron energy                 -423.46260089
 Two-electron energy                  174.78540815
 Density functional                   -24.60740203     PBEX=-23.69188244 PBEC= -0.91551959
 Virial quotient                       -1.00534269
 !RKS STATE  1.1 Dipole moment          1.30963211     0.06439017    -0.00119444
 Dipole moment /Debye                   3.32853477     0.16365277    -0.00303576

 Orbital energies:

         1.1          2.1          3.1          4.1          5.1          6.1          7.1          8.1          9.1         10.1
    -18.814156   -18.735276    -9.910414    -0.972967    -0.906457    -0.596018    -0.518989    -0.446243    -0.378683    -0.368013

        11.1         12.1         13.1         14.1         15.1         16.1
     -0.356989    -0.305551    -0.258506    -0.200783    -0.049087     0.002042


 HOMO     14.1    -0.200783 =      -5.4636eV
 LUMO     15.1    -0.049087 =      -1.3357eV
 LUMO-HOMO         0.151695 =       4.1278eV


 **********************************************************************************************************************************
 DATASETS  * FILE   NREC   LENGTH (MB)   RECORD NAMES
              1      19       30.67       500      610      700      900      950      970     1000      129      960     1100   
                                          VAR    BASINP    GEOM    SYMINP    ZMAT    AOBASIS   BASIS     P2S    ABASIS      S 
                                         1400     1410     1200     1210     1080     1600     1650     1700     1800   
                                           T        V       H0       H01     AOSYM     SMH    MOLCAS    OPER     GRID   

              2       5        3.21       700     1000      520     1800     2101   
                                         GEOM     BASIS   MCVARS    GRID      RKS  

 PROGRAMS   *        TOTAL   RKS-SCF       INT
 CPU TIMES  *        29.99     29.55      0.27
 REAL TIME  *        33.70 SEC
 DISK USED  *        34.97 MB (local),      139.87 MB (total)
 SF USED    *         0.18 MB
 GA USED    *         2.64 MB       (max)       2.64 MB       (current)
 **********************************************************************************************************************************
 SETTING EAB_PBE        =      -191.96304192  AU                              

 Dummy atoms: O2  H5  H6


 Recomputing one-electron integrals since nuclear charges changed


 PROGRAM * SEWARD (Integral evaluation for generally contracted gaussian basis sets)     Author: Roland Lindh, 1990

 Geometry written to block  1 of record 700


 Point group  C1  



 ATOMIC COORDINATES

 NR  ATOM    CHARGE       X              Y              Z

   1  O1      8.00   -1.486386802    0.085355983   -0.013585466
   2  H1      1.00    0.335817133    0.023991766   -0.012917013
   3  C1      6.00   -2.358361084   -2.438282506    0.002047747
   4  H2      1.00   -4.411145066   -2.378970738    0.000418007
   5  H3      1.00   -1.749821661   -3.495555095   -1.663800640
   6  H4      1.00   -1.751828710   -3.474191337    1.682000853
   7  O2      0.00    3.522879601   -0.080599281   -0.009495922
   8  H5      0.00    4.352855136    0.652902070   -1.445447180
   9  H6      0.00    4.350360991    0.680212543    1.413637041

 Bond lengths in Bohr (Angstrom)

 1-2  1.823237010  1-3  2.670081416  3-4  2.053641307  3-5  2.064750931  3-6  2.064759324
     ( 0.964815476)     ( 1.412946237)     ( 1.086740179)     ( 1.092619139)     ( 1.092623580)

 7-8  1.813515822  7-9  1.813523507
     ( 0.959671245)     ( 0.959675312)

 Bond angles

  1-3-4  107.40559298   1-3-5  112.51964705   1-3-6  112.52114043   2-1-3  107.13200477

  4-3-5  107.98411747   4-3-6  107.98497413   5-3-6  108.23763291   8-7-9  104.05491273

 NUCLEAR CHARGE:                   18
 NUMBER OF PRIMITIVE AOS:         177
 NUMBER OF SYMMETRY AOS:          171
 NUMBER OF CONTRACTIONS:          123   (  123A   )
 NUMBER OF CORE ORBITALS:           2   (    2A   )
 NUMBER OF VALENCE ORBITALS:       12   (   12A   )

 MOLECULE CHANGED: INITIALIZING OCCUPATION AND DUMP RECORDS


 NUCLEAR REPULSION ENERGY   40.42326361


 Eigenvalues of metric

         1 0.510E-03 0.699E-03 0.710E-03 0.815E-03 0.163E-02 0.171E-02 0.260E-02 0.363E-02


 OPERATOR DM      FOR CENTER  0  COORDINATES:    0.000000    0.000000    0.000000


 **********************************************************************************************************************************
 DATASETS  * FILE   NREC   LENGTH (MB)   RECORD NAMES
              1      19       30.67       500      610      700      900      950      970     1000      129      960     1100   
                                          VAR    BASINP    GEOM    SYMINP    ZMAT    AOBASIS   BASIS     P2S    ABASIS      S 
                                         1400     1410     1200     1210     1080     1600     1650     1700     1800   
                                           T        V       H0       H01     AOSYM     SMH    MOLCAS    OPER     GRID   

              2       5        3.21       700     1000      520     1800     2101   
                                         GEOM     BASIS   MCVARS    GRID      RKS  

 PROGRAMS   *        TOTAL       INT   RKS-SCF       INT
 CPU TIMES  *        30.05      0.06     29.55      0.27
 REAL TIME  *        33.86 SEC
 DISK USED  *        34.97 MB (local),      139.87 MB (total)
 SF USED    *         0.18 MB
 GA USED    *         2.64 MB       (max)       2.64 MB       (current)
 **********************************************************************************************************************************

 Density functional group PBE=PBEX+PBEC
 Functional: PBEX(Automatically generated (new) PBEX)                          Gradient terms: 1
 Functional: PBEC(Automatically generated (new) PBEC)                          Gradient terms: 1
 Use libxcgrid:  F
 Use grid at  1800.2

 Functional: PBEX                      Factor:  1.0000
 Functional: PBEC                      Factor:  1.0000

 Generated new metagrid on record  1800.2 with target accuracy 1.0D-08 and 80368 points in CPU time    0.2
 Computed new grid on record 1800.1 in CPU time    0.3
  101847 words reserved for DFT integration

 PROGRAM * RKS-SCF (Restricted closed shell Kohn-Sham)     Authors: W. Meyer, H.-J. Werner, P.J. Knowles, 1993

 NUMBER OF ELECTRONS:       9+    9-    SPACE SYMMETRY=1    SPIN SYMMETRY: Singlet 
 CONVERGENCE THRESHOLDS:    1.00E-04 (Density)    1.00E-08 (Energy)
 INTEGRAL THRESHOLDS:       1.00E-11 (Initial)    1.00E-11 (Final)
 MAX. NUMBER OF ITERATIONS:       60
 INTERPOLATION TYPE:            DIIS
 INTERPOLATION STEPS:              2 (START)      1 (STEP)
 LEVEL SHIFTS:                  0.00 (CLOSED)  0.00 (OPEN) 



 Use fine grid record 1800.2 for energy threshold  1.0D-08
 Orbital guess generated from atomic densities. Full valence occupancy:   14

 Molecular orbital dump at record        2201.2

 Initial occupancy:   9

 Direct Fock-matrix evaluation.        Authors: Roland Lindh & Martin Schuetz (1993/96)

 Integral Threshold:                  0.1D-10
 Threshold for writing integrals:     0.1D-06
 Prescreening on density matrix:        ON 
 Calculation will be performed fully direct        

 ITERATION   DDIFF            GRAD            ENERGY        2-EL.EN.            DIPOLE MOMENTS         DIIS   CPU(IT)  CPU(TOT)
    1      0.000D+00      0.000D+00      -115.50977018    199.105823    0.63208   -0.74180    0.00471    0      4.8      8.8     start
    2      0.000D+00      0.937D-02      -115.31411232    180.932736   -0.16238    0.10902   -0.00075    1      2.8     11.5     diag
    3      0.238D-01      0.177D-01      -115.59265422    192.965786    0.37843   -0.61070    0.00385    2      2.4     14.0     diag
    4      0.145D-01      0.246D-02      -115.59754353    192.750247    0.37860   -0.48876    0.00308    3      2.3     16.3     diag
    5      0.258D-02      0.694D-03      -115.59794705    192.644871    0.37724   -0.49727    0.00314    4      2.3     18.6     diag
    6      0.653D-03      0.108D-03      -115.59795751    192.668674    0.37525   -0.49991    0.00315    5      2.2     20.8     diag
    7      0.820D-04      0.139D-04      -115.59795768    192.676413    0.37619   -0.50065    0.00316    6      2.2     23.1     diag
    8      0.143D-04      0.152D-05      -115.59795768    192.676873    0.37595   -0.50057    0.00316    7      2.2     25.3     diag
    9      0.231D-05      0.307D-06      -115.59795768    192.676895    0.37602   -0.50058    0.00316    0      2.2     27.5     orth

 Final occupancy:   9

 !RKS STATE  1.1 Energy              -115.597957684495
 Nuclear energy                        40.42326361
 One-electron energy                 -237.00934299
 Two-electron energy                   96.33844735
 Density functional                   -15.35032565     PBEX=-14.76633270 PBEC= -0.58399295
 Virial quotient                       -1.00568867
 !RKS STATE  1.1 Dipole moment          0.37602185    -0.50058470     0.00315909
 Dipole moment /Debye                   0.95568962    -1.27227605     0.00802909

 Orbital energies:

         1.1          2.1          3.1          4.1          5.1          6.1          7.1          8.1          9.1         10.1
    -18.775959    -9.933001    -0.942188    -0.620875    -0.462670    -0.391403    -0.382392    -0.295473    -0.230469    -0.024898

        11.1
     -0.000610


 HOMO      9.1    -0.230469 =      -6.2714eV
 LUMO     10.1    -0.024898 =      -0.6775eV
 LUMO-HOMO         0.205571 =       5.5939eV


 **********************************************************************************************************************************
 DATASETS  * FILE   NREC   LENGTH (MB)   RECORD NAMES
              1      19       30.67       500      610      700      900      950      970     1000      129      960     1100   
                                          VAR    BASINP    GEOM    SYMINP    ZMAT    AOBASIS   BASIS     P2S    ABASIS      S 
                                         1400     1410     1200     1210     1080     1600     1650     1700     1800   
                                           T        V       H0       H01     AOSYM     SMH    MOLCAS    OPER     GRID   

              2       6        6.31       700     1000      520     1800     2101     2201   
                                         GEOM     BASIS   MCVARS    GRID      RKS      RKS  

 PROGRAMS   *        TOTAL   RKS-SCF       INT   RKS-SCF       INT
 CPU TIMES  *        57.87     27.81      0.06     29.55      0.27
 REAL TIME  *        61.86 SEC
 DISK USED  *        38.01 MB (local),      152.03 MB (total)
 SF USED    *         0.18 MB
 GA USED    *         2.64 MB       (max)       2.64 MB       (current)
 **********************************************************************************************************************************
 SETTING EA_PBE         =      -115.59795768  AU                              

 Dummy atoms: O1  H1  C1  H2  H3  H4


 Recomputing one-electron integrals since nuclear charges changed


 PROGRAM * SEWARD (Integral evaluation for generally contracted gaussian basis sets)     Author: Roland Lindh, 1990

 Geometry written to block  1 of record 700


 Point group  C1  



 ATOMIC COORDINATES

 NR  ATOM    CHARGE       X              Y              Z

   1  O1      0.00   -1.486386802    0.085355983   -0.013585466
   2  H1      0.00    0.335817133    0.023991766   -0.012917013
   3  C1      0.00   -2.358361084   -2.438282506    0.002047747
   4  H2      0.00   -4.411145066   -2.378970738    0.000418007
   5  H3      0.00   -1.749821661   -3.495555095   -1.663800640
   6  H4      0.00   -1.751828710   -3.474191337    1.682000853
   7  O2      8.00    3.522879601   -0.080599281   -0.009495922
   8  H5      1.00    4.352855136    0.652902070   -1.445447180
   9  H6      1.00    4.350360991    0.680212543    1.413637041

 Bond lengths in Bohr (Angstrom)

 1-2  1.823237010  1-3  2.670081416  3-4  2.053641307  3-5  2.064750931  3-6  2.064759324
     ( 0.964815476)     ( 1.412946237)     ( 1.086740179)     ( 1.092619139)     ( 1.092623580)

 7-8  1.813515822  7-9  1.813523507
     ( 0.959671245)     ( 0.959675312)

 Bond angles

  1-3-4  107.40559298   1-3-5  112.51964705   1-3-6  112.52114043   2-1-3  107.13200477

  4-3-5  107.98411747   4-3-6  107.98497413   5-3-6  108.23763291   8-7-9  104.05491273

 NUCLEAR CHARGE:                   10
 NUMBER OF PRIMITIVE AOS:         177
 NUMBER OF SYMMETRY AOS:          171
 NUMBER OF CONTRACTIONS:          123   (  123A   )
 NUMBER OF CORE ORBITALS:           1   (    1A   )
 NUMBER OF VALENCE ORBITALS:        6   (    6A   )

 MOLECULE CHANGED: INITIALIZING OCCUPATION AND DUMP RECORDS


 NUCLEAR REPULSION ENERGY    9.17236909


 Eigenvalues of metric

         1 0.510E-03 0.699E-03 0.710E-03 0.815E-03 0.163E-02 0.171E-02 0.260E-02 0.363E-02


 OPERATOR DM      FOR CENTER  0  COORDINATES:    0.000000    0.000000    0.000000


 **********************************************************************************************************************************
 DATASETS  * FILE   NREC   LENGTH (MB)   RECORD NAMES
              1      19       30.67       500      610      700      900      950      970     1000      129      960     1100   
                                          VAR    BASINP    GEOM    SYMINP    ZMAT    AOBASIS   BASIS     P2S    ABASIS      S 
                                         1400     1410     1200     1210     1080     1600     1650     1700     1800   
                                           T        V       H0       H01     AOSYM     SMH    MOLCAS    OPER     GRID   

              2       6        6.31       700     1000      520     1800     2101     2201   
                                         GEOM     BASIS   MCVARS    GRID      RKS      RKS  

 PROGRAMS   *        TOTAL       INT   RKS-SCF       INT   RKS-SCF       INT
 CPU TIMES  *        57.93      0.04     27.81      0.06     29.55      0.27
 REAL TIME  *        62.03 SEC
 DISK USED  *        38.01 MB (local),      152.03 MB (total)
 SF USED    *         0.18 MB
 GA USED    *         2.64 MB       (max)       2.64 MB       (current)
 **********************************************************************************************************************************

 Density functional group PBE=PBEX+PBEC
 Functional: PBEX(Automatically generated (new) PBEX)                          Gradient terms: 1
 Functional: PBEC(Automatically generated (new) PBEC)                          Gradient terms: 1
 Use libxcgrid:  F
 Use grid at  1800.2

 Functional: PBEX                      Factor:  1.0000
 Functional: PBEC                      Factor:  1.0000

 Generated new metagrid on record  1800.2 with target accuracy 1.0D-08 and 80368 points in CPU time    0.2
 Computed new grid on record 1800.1 in CPU time    0.3
  101847 words reserved for DFT integration

 PROGRAM * RKS-SCF (Restricted closed shell Kohn-Sham)     Authors: W. Meyer, H.-J. Werner, P.J. Knowles, 1993

 NUMBER OF ELECTRONS:       5+    5-    SPACE SYMMETRY=1    SPIN SYMMETRY: Singlet 
 CONVERGENCE THRESHOLDS:    1.00E-04 (Density)    1.00E-08 (Energy)
 INTEGRAL THRESHOLDS:       1.00E-11 (Initial)    1.00E-11 (Final)
 MAX. NUMBER OF ITERATIONS:       60
 INTERPOLATION TYPE:            DIIS
 INTERPOLATION STEPS:              2 (START)      1 (STEP)
 LEVEL SHIFTS:                  0.00 (CLOSED)  0.00 (OPEN) 



 Use fine grid record 1800.2 for energy threshold  1.0D-08
 Orbital guess generated from atomic densities. Full valence occupancy:    7

 Molecular orbital dump at record        2301.2

 Initial occupancy:   5

 Direct Fock-matrix evaluation.        Authors: Roland Lindh & Martin Schuetz (1993/96)

 Integral Threshold:                  0.1D-10
 Threshold for writing integrals:     0.1D-06
 Prescreening on density matrix:        ON 
 Calculation will be performed fully direct        

 ITERATION   DDIFF            GRAD            ENERGY        2-EL.EN.            DIPOLE MOMENTS         DIIS   CPU(IT)  CPU(TOT)
    1      0.000D+00      0.000D+00       -76.28417336     97.711357    0.80572    0.72735   -0.00624    0      5.0      8.8     start
    2      0.000D+00      0.128D-01       -75.96236994     82.679530   -0.23990   -0.22793    0.00195    1      2.9     11.7     diag
    3      0.220D-01      0.289D-01       -76.35925140     93.345023    0.53754    0.48586   -0.00417    2      2.2     13.9     diag
    4      0.154D-01      0.562D-03       -76.35945345     93.068749    0.52611    0.47537   -0.00408    3      2.2     16.1     diag
    5      0.459D-03      0.144D-03       -76.35946183     93.101041    0.52367    0.47325   -0.00406    4      2.2     18.3     diag
    6      0.782D-04      0.378D-04       -76.35946251     93.112591    0.52503    0.47447   -0.00407    5      2.2     20.5     diag
    7      0.207D-04      0.144D-05       -76.35946251     93.113065    0.52503    0.47447   -0.00407    6      2.2     22.7     diag
    8      0.887D-06      0.855D-07       -76.35946251     93.113151    0.52504    0.47448   -0.00407    0      2.2     24.8     orth

 Final occupancy:   5

 !RKS STATE  1.1 Energy               -76.359462508755
 Nuclear energy                         9.17236909
 One-electron energy                 -122.85832370
 Two-electron energy                   46.55657552
 Density functional                    -9.23008341     PBEX=-8.90457026 PBEC=-0.32551315
 Virial quotient                       -1.00561805
 !RKS STATE  1.1 Dipole moment          0.52503813     0.47447833    -0.00407191
 Dipole moment /Debye                   1.33442641     1.20592464    -0.01034907

 Orbital energies:

         1.1          2.1          3.1          4.1          5.1          6.1          7.1
    -18.779475    -0.934900    -0.484743    -0.344160    -0.265566    -0.034695     0.019264


 HOMO      5.1    -0.265566 =      -7.2264eV
 LUMO      6.1    -0.034695 =      -0.9441eV
 LUMO-HOMO         0.230871 =       6.2823eV


 **********************************************************************************************************************************
 DATASETS  * FILE   NREC   LENGTH (MB)   RECORD NAMES
              1      19       30.67       500      610      700      900      950      970     1000      129      960     1100   
                                          VAR    BASINP    GEOM    SYMINP    ZMAT    AOBASIS   BASIS     P2S    ABASIS      S 
                                         1400     1410     1200     1210     1080     1600     1650     1700     1800   
                                           T        V       H0       H01     AOSYM     SMH    MOLCAS    OPER     GRID   

              2       7        9.41       700     1000      520     1800     2101     2201     2301   
                                         GEOM     BASIS   MCVARS    GRID      RKS      RKS      RKS  

 PROGRAMS   *        TOTAL   RKS-SCF       INT   RKS-SCF       INT   RKS-SCF       INT
 CPU TIMES  *        83.05     25.12      0.04     27.81      0.06     29.55      0.27
 REAL TIME  *        87.36 SEC
 DISK USED  *        41.05 MB (local),      164.18 MB (total)
 SF USED    *         0.18 MB
 GA USED    *         2.64 MB       (max)       2.64 MB       (current)
 **********************************************************************************************************************************
 SETTING EB_PBE         =       -76.35946251  AU                              
 SETTING E_AB_INT       =        -0.00562173  AU                              

 *** results in hartree
 E_AB_INT         =        -0.00562173 AU
 Molecular orbitals read from record     2301.2  Type=RKS/CANONICAL (state 1.1)
 Occupation numbers read from record     2301.2  Type=RKS/RHF (state 1.1)
 Orbital energies read from record       2301.2  Type=RKS/CANONICAL (state 1.1)
 Redundancy group numbers read from rec  2301.2  Type=RKS/RHF (state 1.1)

 RPBE/aug-cc-pVDZ energy=    -76.359462508755

         RKS-SCF         RKS-SCF         RKS-SCF
    -76.35946251   -115.59795768   -191.96304192
 **********************************************************************************************************************************
 Molpro calculation terminated
