
 Primary working directories    : /scratch/sirous/480692/molpro.EQUMexFPxd
 Secondary working directories  : /scratch/sirous/480692/molpro.EQUMexFPxd
 Wavefunction directory         : /scratch/sirous/480692/
 Main file repository           : /scratch/sirous/480692/molpro.EQUMexFPxd/

 id        : karlovklimes

 Nodes                      nprocs
 nc-18.cc.karlov.mff.cuni.cz    4

 Using customized tuning parameters: mindgm=1; mindgv=20; mindgc=4; mindgr=1; noblas=0; minvec=7
 default implementation of scratch files=sf  


 Variables initialized (934), CPU time= 0.01 sec
 ***,CH3C6H4CN+CF3CN+BF3
 memory,500,m
 gdirect
 gthresh,energy=1.d-8,twoint=1.d-19,oneint=1.d-19,zero=1.d-15,orbital=1.d-8,grid=1.d-8
 symmetry,nosym
 geomtyp=xyz
                                                                                 ! Geometry
 geometry={
 H1        -0.8915159870000000    -1.4558395110000000     0.5147169950000000
 H2        0.8915159870000000    -1.4558395110000000     0.5147169950000000
 H3        0.0000000000000000    0.0000000000000000     0.0000000000000000
 H4        0.0000000000000000    -1.4558395110000000     -1.0294339900000000
 H5        -0.3900959260000000    4.2617231990000004     -0.6756659630000000
 H6        0.4007516660000000    4.3191001640000000     0.6167214650000000
 C1        0.0000000000000000    -1.0918796330000000     0.0000000000000000
 O1        0.0000000000000000    3.7000000000000002     0.0000000000000000
 }
 
 
 
 basis=avtz
 
 
 
                                                                                 ! Dimer Calculation
 {rks,pbe,accu=1.d-8;orbital,2101.2}
 eab_PBE=energy
 
 
                                                                                 !monomer A
 dummy,5,6,8;                                                                    ! NOW MONOMER B IS DUMMY
 {rks,pbe,accu=1.d-8;orbital,2201.2}
 ea_PBE=energy
                                                                                 !monomer B
 dummy,1,2,3,4,7;                                                                !NOW MONOMER A IS DUMMY
 {rks,pbe,accu=1.d-8;orbital,2301.2}
 eb_PBE=energy
 
 E_AB_int=eab_PBE-ea_PBE-eb_PBE
 
 
 text,results in hartree
 show,E_AB_int
 
 Commands  initialized (763), CPU time= 0.01 sec, 617 directives.
 Default parameters read. Elapsed time= 0.22 sec

 Checking input...
 Passed
1


                                         ***  PROGRAM SYSTEM MOLPRO  ***
                                       Copyright, TTI GmbH Stuttgart, 2015
                                    Version 2019.2 linked Jun  8 2019 11:26:33


 **********************************************************************************************************************************
 LABEL *   CH3C6H4CN+CF3CN+BF3                                                           
  64 bit mpp version                                                                     DATE: 31-Mar-20          TIME: 16:30:29  
 **********************************************************************************************************************************

 SHA1:             8135a10abc80eafa5b3ae28ffc55be4890dc4c84
 **********************************************************************************************************************************

 THRESHOLDS:

 ZERO    =  1.00D-15  ONEINT  =  1.00D-19  TWOINT  =  1.00D-19  PREFAC  =  1.00D-14  XXXXXX  =  1.00D-09  EORDER  =  1.00D-04
 ENERGY  =  1.00D-08  ETEST   =  0.00D+00  EDENS   =  0.00D+00  THRDEDEF=  1.00D-06  GRADIENT=  1.00D-02  STEP    =  1.00D-03
 ORBITAL =  1.00D-08  CIVEC   =  1.00D-05  COEFF   =  1.00D-04  PRINTCI =  5.00D-02  PUNCHCI =  9.90D+01  OPTGRAD =  3.00D-04
 OPTENERG=  1.00D-06  OPTSTEP =  3.00D-04  THRGRAD =  1.00D-10  COMPRESS=  1.00D-11  VARMIN  =  1.00D-07  VARMAX  =  1.00D-03
 THRDOUB =  0.00D+00  THRDIV  =  1.00D-05  THRRED  =  1.00D-07  THRPSP  =  1.00D+00  THRDC   =  1.00D-10  THRCS   =  1.00D-10
 THRNRM  =  1.00D-08  THREQ   =  0.00D+00  THRDE   =  1.00D+00  THRREF  =  1.00D-05  SPARFAC =  1.00D+00  THRDLP  =  1.00D-07
 THRDIA  =  1.00D-10  THRDLS  =  1.00D-07  THRGPS  =  0.00D+00  THRKEX  =  0.00D+00  THRDIS  =  2.00D-01  THRVAR  =  1.00D-10
 THRLOC  =  1.00D-06  THRGAP  =  1.00D-06  THRLOCT = -1.00D+00  THRGAPT = -1.00D+00  THRORB  =  1.00D-06  THRMLTP =  0.00D+00
 THRCPQCI=  1.00D-10  KEXTA   =  0.00D+00  THRCOARS=  0.00D+00  SYMTOL  =  1.00D-06  GRADTOL =  1.00D-06  THROVL  =  1.00D-08
 THRORTH =  1.00D-08  GRID    =  1.00D-08  GRIDMAX =  1.00D-03  DTMAX   =  0.00D+00  THROCCDE=  1.00D-01  THROCCDE=  1.00D-01
 THRPRINT=  2.50D-01


 Variable memory set to  500000000 words,  buffer space 

 SETTING GEOMTYP        =    XYZ
 ZSYMEL=NOSYM

 SETTING BASIS          =    AVTZ


 Recomputing integrals since basis changed


 Using spherical harmonics

 Library entry H      S aug-cc-pVTZ          selected for orbital group  1
 Library entry H      P aug-cc-pVTZ          selected for orbital group  1
 Library entry H      D aug-cc-pVTZ          selected for orbital group  1
 Library entry C      S aug-cc-pVTZ          selected for orbital group  2
 Library entry C      P aug-cc-pVTZ          selected for orbital group  2
 Library entry C      D aug-cc-pVTZ          selected for orbital group  2
 Library entry C      F aug-cc-pVTZ          selected for orbital group  2
 Library entry O      S aug-cc-pVTZ          selected for orbital group  3
 Library entry O      P aug-cc-pVTZ          selected for orbital group  3
 Library entry O      D aug-cc-pVTZ          selected for orbital group  3
 Library entry O      F aug-cc-pVTZ          selected for orbital group  3


 PROGRAM * SEWARD (Integral evaluation for generally contracted gaussian basis sets)     Author: Roland Lindh, 1990

 Geometry written to block  1 of record 700


 Point group  C1  



 ATOMIC COORDINATES

 NR  ATOM    CHARGE       X              Y              Z

   1  H1      1.00   -1.684721051   -2.751137957    0.972674152
   2  H2      1.00    1.684721051   -2.751137957    0.972674152
   3  H3      1.00    0.000000000    0.000000000    0.000000000
   4  H4      1.00    0.000000000   -2.751137957   -1.945348304
   5  H5      1.00   -0.737174462    8.053489665   -1.276823622
   6  H6      1.00    0.757310893    8.161916415    1.165434664
   7  C1      6.00    0.000000000   -2.063353467    0.000000000
   8  O1      8.00    0.000000000    6.991986661    0.000000000

 Bond lengths in Bohr (Angstrom)

 1-7  2.063353467  2-7  2.063353467  3-7  2.063353467  4-7  2.063353467  5-8  1.816726005
     ( 1.091879633)     ( 1.091879633)     ( 1.091879633)     ( 1.091879633)     ( 0.961370000)

 6-8  1.816726004
     ( 0.961370000)

 Bond angles

  1-7-2  109.47122062   1-7-3  109.47122065   1-7-4  109.47122061   2-7-3  109.47122065

  2-7-4  109.47122061   3-7-4  109.47122066   5-8-6  104.10700003

 NUCLEAR CHARGE:                   20
 NUMBER OF PRIMITIVE AOS:         296
 NUMBER OF SYMMETRY AOS:          266
 NUMBER OF CONTRACTIONS:          230   (  230A   )
 NUMBER OF CORE ORBITALS:           2   (    2A   )
 NUMBER OF VALENCE ORBITALS:       14   (   14A   )


 NUCLEAR REPULSION ENERGY   33.37961911


 Eigenvalues of metric

         1 0.607E-04 0.887E-04 0.118E-03 0.119E-03 0.365E-03 0.386E-03 0.791E-03 0.877E-03


 OPERATOR DM      FOR CENTER  0  COORDINATES:    0.000000    0.000000    0.000000


 **********************************************************************************************************************************
 DATASETS  * FILE   NREC   LENGTH (MB)   RECORD NAMES
              1      18       32.04       500      610      700      900      950      970     1000      129      960     1100   
                                          VAR    BASINP    GEOM    SYMINP    ZMAT    AOBASIS   BASIS     P2S    ABASIS      S 
                                         1400     1410     1200     1210     1080     1600     1650     1700   
                                           T        V       H0       H01     AOSYM     SMH    MOLCAS    OPER   

 PROGRAMS   *        TOTAL       INT
 CPU TIMES  *         0.56      0.39
 REAL TIME  *         2.07 SEC
 DISK USED  *        32.49 MB (local),      129.95 MB (total)
 GA USED    *         0.00 MB       (max)       0.00 MB       (current)
 **********************************************************************************************************************************

 Density functional group PBE=PBEX+PBEC
 Functional: PBEX(Automatically generated (new) PBEX)                          Gradient terms: 1
 Functional: PBEC(Automatically generated (new) PBEC)                          Gradient terms: 1
 Use libxcgrid:  F
 Use grid at  1800.2

 Functional: PBEX                      Factor:  1.0000
 Functional: PBEC                      Factor:  1.0000

 Generated new metagrid on record  1800.2 with target accuracy 1.0D-08 and 66108 points in CPU time    0.2
 Computed new grid on record 1800.1 in CPU time    0.2
  186896 words reserved for DFT integration

 PROGRAM * RKS-SCF (Restricted closed shell Kohn-Sham)     Authors: W. Meyer, H.-J. Werner, P.J. Knowles, 1993

 NUMBER OF ELECTRONS:      10+   10-    SPACE SYMMETRY=1    SPIN SYMMETRY: Singlet 
 CONVERGENCE THRESHOLDS:    1.00E-04 (Density)    1.00E-08 (Energy)
 INTEGRAL THRESHOLDS:       1.00E-11 (Initial)    1.00E-11 (Final)
 MAX. NUMBER OF ITERATIONS:       60
 INTERPOLATION TYPE:            DIIS
 INTERPOLATION STEPS:              2 (START)      1 (STEP)
 LEVEL SHIFTS:                  0.00 (CLOSED)  0.00 (OPEN) 



 Use fine grid record 1800.2 for energy threshold  1.0D-08
 Orbital guess generated from atomic densities. Full valence occupancy:   16

 Molecular orbital dump at record        2101.2

 Initial occupancy:  10

 Direct Fock-matrix evaluation.        Authors: Roland Lindh & Martin Schuetz (1993/96)

 Integral Threshold:                  0.1D-10
 Threshold for writing integrals:     0.1D-06
 Prescreening on density matrix:        ON 
 Calculation will be performed fully direct        

 ITERATION   DDIFF            GRAD            ENERGY        2-EL.EN.            DIPOLE MOMENTS         DIIS   CPU(IT)  CPU(TOT)
    1      0.000D+00      0.000D+00      -116.64540551    189.881586    0.00987    1.09865   -0.05473    0      9.8     15.3     start
    2      0.000D+00      0.102D-01      -116.13763861    162.897245   -0.00371   -0.25783    0.02260    1      6.1     21.3     diag
    3      0.193D-01      0.191D-01      -116.83000846    181.209167    0.00761    0.85817   -0.04071    2      6.2     27.5     diag
    4      0.117D-01      0.283D-02      -116.84316497    180.782449    0.00642    0.74304   -0.03455    3      6.1     33.6     diag
    5      0.233D-02      0.683D-03      -116.84414318    180.460584    0.00642    0.74789   -0.03449    4      6.1     39.7     diag
    6      0.582D-03      0.618D-04      -116.84414927    180.500958    0.00644    0.74763   -0.03457    5      6.0     45.7     diag
    7      0.374D-04      0.860D-05      -116.84414939    180.503995    0.00645    0.74891   -0.03461    6      5.2     50.9     diag
    8      0.509D-05      0.112D-05      -116.84414939    180.503743    0.00644    0.74874   -0.03461    7      5.3     56.2     diag
    9      0.762D-06      0.953D-07      -116.84414939    180.503707    0.00644    0.74877   -0.03461    0      5.4     61.6     orth

 Final occupancy:  10

 !RKS STATE  1.1 Energy              -116.844149393036
 Nuclear energy                        33.37961911
 One-electron energy                 -224.41694845
 Two-electron energy                   90.25185331
 Density functional                   -16.05867337     PBEX=-15.43417326 PBEC= -0.62450010
 Virial quotient                       -1.00608079
 !RKS STATE  1.1 Dipole moment          0.00644478     0.74876906    -0.03460790
 Dipole moment /Debye                   0.01637993     1.90305647    -0.08795875

 Orbital energies:

         1.1          2.1          3.1          4.1          5.1          6.1          7.1          8.1          9.1         10.1
    -18.761395    -9.857175    -0.932731    -0.617707    -0.484373    -0.345210    -0.338732    -0.338674    -0.336640    -0.267214

        11.1         12.1
     -0.036165    -0.005156


 HOMO     10.1    -0.267214 =      -7.2713eV
 LUMO     11.1    -0.036165 =      -0.9841eV
 LUMO-HOMO         0.231048 =       6.2871eV


 **********************************************************************************************************************************
 DATASETS  * FILE   NREC   LENGTH (MB)   RECORD NAMES
              1      19       32.04       500      610      700      900      950      970     1000      129      960     1100   
                                          VAR    BASINP    GEOM    SYMINP    ZMAT    AOBASIS   BASIS     P2S    ABASIS      S 
                                         1400     1410     1200     1210     1080     1600     1650     1700     1800   
                                           T        V       H0       H01     AOSYM     SMH    MOLCAS    OPER     GRID   

              2       5        3.97       700     1000      520     1800     2101   
                                         GEOM     BASIS   MCVARS    GRID      RKS  

 PROGRAMS   *        TOTAL   RKS-SCF       INT
 CPU TIMES  *        62.47     61.91      0.39
 REAL TIME  *        68.42 SEC
 DISK USED  *        39.48 MB (local),      157.92 MB (total)
 SF USED    *         0.64 MB
 GA USED    *         2.18 MB       (max)       2.18 MB       (current)
 **********************************************************************************************************************************
 SETTING EAB_PBE        =      -116.84414939  AU                              

 Dummy atoms: H5  H6  O1


 Recomputing one-electron integrals since nuclear charges changed


 PROGRAM * SEWARD (Integral evaluation for generally contracted gaussian basis sets)     Author: Roland Lindh, 1990

 Geometry written to block  1 of record 700


 Point group  C1  



 ATOMIC COORDINATES

 NR  ATOM    CHARGE       X              Y              Z

   1  H1      1.00   -1.684721051   -2.751137957    0.972674152
   2  H2      1.00    1.684721051   -2.751137957    0.972674152
   3  H3      1.00    0.000000000    0.000000000    0.000000000
   4  H4      1.00    0.000000000   -2.751137957   -1.945348304
   5  H5      0.00   -0.737174462    8.053489665   -1.276823622
   6  H6      0.00    0.757310893    8.161916415    1.165434664
   7  C1      6.00    0.000000000   -2.063353467    0.000000000
   8  O1      0.00    0.000000000    6.991986661    0.000000000

 Bond lengths in Bohr (Angstrom)

 1-7  2.063353467  2-7  2.063353467  3-7  2.063353467  4-7  2.063353467  5-8  1.816726005
     ( 1.091879633)     ( 1.091879633)     ( 1.091879633)     ( 1.091879633)     ( 0.961370000)

 6-8  1.816726004
     ( 0.961370000)

 Bond angles

  1-7-2  109.47122062   1-7-3  109.47122065   1-7-4  109.47122061   2-7-3  109.47122065

  2-7-4  109.47122061   3-7-4  109.47122066   5-8-6  104.10700003

 NUCLEAR CHARGE:                   10
 NUMBER OF PRIMITIVE AOS:         296
 NUMBER OF SYMMETRY AOS:          266
 NUMBER OF CONTRACTIONS:          230   (  230A   )
 NUMBER OF CORE ORBITALS:           1   (    1A   )
 NUMBER OF VALENCE ORBITALS:        8   (    8A   )

 MOLECULE CHANGED: INITIALIZING OCCUPATION AND DUMP RECORDS


 NUCLEAR REPULSION ENERGY   13.41226070


 Eigenvalues of metric

         1 0.607E-04 0.887E-04 0.118E-03 0.119E-03 0.365E-03 0.386E-03 0.791E-03 0.877E-03


 OPERATOR DM      FOR CENTER  0  COORDINATES:    0.000000    0.000000    0.000000


 **********************************************************************************************************************************
 DATASETS  * FILE   NREC   LENGTH (MB)   RECORD NAMES
              1      19       32.04       500      610      700      900      950      970     1000      129      960     1100   
                                          VAR    BASINP    GEOM    SYMINP    ZMAT    AOBASIS   BASIS     P2S    ABASIS      S 
                                         1400     1410     1200     1210     1080     1600     1650     1700     1800   
                                           T        V       H0       H01     AOSYM     SMH    MOLCAS    OPER     GRID   

              2       5        3.97       700     1000      520     1800     2101   
                                         GEOM     BASIS   MCVARS    GRID      RKS  

 PROGRAMS   *        TOTAL       INT   RKS-SCF       INT
 CPU TIMES  *        62.55      0.07     61.91      0.39
 REAL TIME  *        68.57 SEC
 DISK USED  *        39.48 MB (local),      157.92 MB (total)
 SF USED    *         0.64 MB
 GA USED    *         2.18 MB       (max)       2.18 MB       (current)
 **********************************************************************************************************************************

 Density functional group PBE=PBEX+PBEC
 Functional: PBEX(Automatically generated (new) PBEX)                          Gradient terms: 1
 Functional: PBEC(Automatically generated (new) PBEC)                          Gradient terms: 1
 Use libxcgrid:  F
 Use grid at  1800.2

 Functional: PBEX                      Factor:  1.0000
 Functional: PBEC                      Factor:  1.0000

 Generated new metagrid on record  1800.2 with target accuracy 1.0D-08 and 66108 points in CPU time    0.2
 Computed new grid on record 1800.1 in CPU time    0.3
  186896 words reserved for DFT integration

 PROGRAM * RKS-SCF (Restricted closed shell Kohn-Sham)     Authors: W. Meyer, H.-J. Werner, P.J. Knowles, 1993

 NUMBER OF ELECTRONS:       5+    5-    SPACE SYMMETRY=1    SPIN SYMMETRY: Singlet 
 CONVERGENCE THRESHOLDS:    1.00E-04 (Density)    1.00E-08 (Energy)
 INTEGRAL THRESHOLDS:       1.00E-11 (Initial)    1.00E-11 (Final)
 MAX. NUMBER OF ITERATIONS:       60
 INTERPOLATION TYPE:            DIIS
 INTERPOLATION STEPS:              2 (START)      1 (STEP)
 LEVEL SHIFTS:                  0.00 (CLOSED)  0.00 (OPEN) 



 Use fine grid record 1800.2 for energy threshold  1.0D-08
 Orbital guess generated from atomic densities. Full valence occupancy:    9

 Molecular orbital dump at record        2201.2

 Initial occupancy:   5

 Direct Fock-matrix evaluation.        Authors: Roland Lindh & Martin Schuetz (1993/96)

 Integral Threshold:                  0.1D-10
 Threshold for writing integrals:     0.1D-06
 Prescreening on density matrix:        ON 
 Calculation will be performed fully direct        

 ITERATION   DDIFF            GRAD            ENERGY        2-EL.EN.            DIPOLE MOMENTS         DIIS   CPU(IT)  CPU(TOT)
    1      0.000D+00      0.000D+00       -40.34825418     69.930004   -0.00000    0.00002   -0.00000    0      9.0     16.1     start
    2      0.000D+00      0.100D-01       -40.20733718     59.324312    0.00000   -0.00011   -0.00001    1      5.7     21.9     diag
    3      0.150D-01      0.140D-01       -40.46321363     65.756111   -0.00000    0.00004   -0.00000    2      5.7     27.5     diag
    4      0.849D-02      0.529D-03       -40.46359327     65.509944    0.00000    0.00004   -0.00000    3      5.6     33.1     diag
    5      0.446D-03      0.129D-04       -40.46359337     65.513152    0.00000    0.00004   -0.00000    4      5.4     38.5     diag
    6      0.258D-04      0.286D-05       -40.46359336     65.510046    0.00000    0.00004   -0.00000    0      5.1     43.6     orth

 Final occupancy:   5

 !RKS STATE  1.1 Energy               -40.463593359885
 Nuclear energy                        13.41226070
 One-electron energy                  -79.80474979
 Two-electron energy                   32.75502309
 Density functional                    -6.82612735     PBEX=-6.52621834 PBEC=-0.29990901
 Virial quotient                       -1.00711567
 !RKS STATE  1.1 Dipole moment          0.00000070     0.00004070    -0.00000412
 Dipole moment /Debye                   0.00000178     0.00010344    -0.00001047

 Orbital energies:

         1.1          2.1          3.1          4.1          5.1          6.1          7.1
     -9.865986    -0.626293    -0.346724    -0.346723    -0.346723    -0.013824     0.021304


 HOMO      5.1    -0.346723 =      -9.4348eV
 LUMO      6.1    -0.013824 =      -0.3762eV
 LUMO-HOMO         0.332899 =       9.0586eV


 **********************************************************************************************************************************
 DATASETS  * FILE   NREC   LENGTH (MB)   RECORD NAMES
              1      19       32.04       500      610      700      900      950      970     1000      129      960     1100   
                                          VAR    BASINP    GEOM    SYMINP    ZMAT    AOBASIS   BASIS     P2S    ABASIS      S 
                                         1400     1410     1200     1210     1080     1600     1650     1700     1800   
                                           T        V       H0       H01     AOSYM     SMH    MOLCAS    OPER     GRID   

              2       6        8.58       700     1000      520     1800     2101     2201   
                                         GEOM     BASIS   MCVARS    GRID      RKS      RKS  

 PROGRAMS   *        TOTAL   RKS-SCF       INT   RKS-SCF       INT
 CPU TIMES  *       106.49     43.94      0.07     61.91      0.39
 REAL TIME  *       113.07 SEC
 DISK USED  *        43.46 MB (local),      173.84 MB (total)
 SF USED    *         0.64 MB
 GA USED    *         2.18 MB       (max)       2.18 MB       (current)
 **********************************************************************************************************************************
 SETTING EA_PBE         =       -40.46359336  AU                              

 Dummy atoms: H1  H2  H3  H4  C1


 Recomputing one-electron integrals since nuclear charges changed


 PROGRAM * SEWARD (Integral evaluation for generally contracted gaussian basis sets)     Author: Roland Lindh, 1990

 Geometry written to block  1 of record 700


 Point group  C1  



 ATOMIC COORDINATES

 NR  ATOM    CHARGE       X              Y              Z

   1  H1      0.00   -1.684721051   -2.751137957    0.972674152
   2  H2      0.00    1.684721051   -2.751137957    0.972674152
   3  H3      0.00    0.000000000    0.000000000    0.000000000
   4  H4      0.00    0.000000000   -2.751137957   -1.945348304
   5  H5      1.00   -0.737174462    8.053489665   -1.276823622
   6  H6      1.00    0.757310893    8.161916415    1.165434664
   7  C1      0.00    0.000000000   -2.063353467    0.000000000
   8  O1      8.00    0.000000000    6.991986661    0.000000000

 Bond lengths in Bohr (Angstrom)

 1-7  2.063353467  2-7  2.063353467  3-7  2.063353467  4-7  2.063353467  5-8  1.816726005
     ( 1.091879633)     ( 1.091879633)     ( 1.091879633)     ( 1.091879633)     ( 0.961370000)

 6-8  1.816726004
     ( 0.961370000)

 Bond angles

  1-7-2  109.47122062   1-7-3  109.47122065   1-7-4  109.47122061   2-7-3  109.47122065

  2-7-4  109.47122061   3-7-4  109.47122066   5-8-6  104.10700003

 NUCLEAR CHARGE:                   10
 NUMBER OF PRIMITIVE AOS:         296
 NUMBER OF SYMMETRY AOS:          266
 NUMBER OF CONTRACTIONS:          230   (  230A   )
 NUMBER OF CORE ORBITALS:           1   (    1A   )
 NUMBER OF VALENCE ORBITALS:        6   (    6A   )

 MOLECULE CHANGED: INITIALIZING OCCUPATION AND DUMP RECORDS


 NUCLEAR REPULSION ENERGY    9.15605699


 Eigenvalues of metric

         1 0.607E-04 0.887E-04 0.118E-03 0.119E-03 0.365E-03 0.386E-03 0.791E-03 0.877E-03


 OPERATOR DM      FOR CENTER  0  COORDINATES:    0.000000    0.000000    0.000000


 **********************************************************************************************************************************
 DATASETS  * FILE   NREC   LENGTH (MB)   RECORD NAMES
              1      19       32.04       500      610      700      900      950      970     1000      129      960     1100   
                                          VAR    BASINP    GEOM    SYMINP    ZMAT    AOBASIS   BASIS     P2S    ABASIS      S 
                                         1400     1410     1200     1210     1080     1600     1650     1700     1800   
                                           T        V       H0       H01     AOSYM     SMH    MOLCAS    OPER     GRID   

              2       6        8.58       700     1000      520     1800     2101     2201   
                                         GEOM     BASIS   MCVARS    GRID      RKS      RKS  

 PROGRAMS   *        TOTAL       INT   RKS-SCF       INT   RKS-SCF       INT
 CPU TIMES  *       106.56      0.07     43.94      0.07     61.91      0.39
 REAL TIME  *       113.22 SEC
 DISK USED  *        43.46 MB (local),      173.84 MB (total)
 SF USED    *         0.64 MB
 GA USED    *         2.18 MB       (max)       2.18 MB       (current)
 **********************************************************************************************************************************

 Density functional group PBE=PBEX+PBEC
 Functional: PBEX(Automatically generated (new) PBEX)                          Gradient terms: 1
 Functional: PBEC(Automatically generated (new) PBEC)                          Gradient terms: 1
 Use libxcgrid:  F
 Use grid at  1800.2

 Functional: PBEX                      Factor:  1.0000
 Functional: PBEC                      Factor:  1.0000

 Generated new metagrid on record  1800.2 with target accuracy 1.0D-08 and 66108 points in CPU time    0.3
 Computed new grid on record 1800.1 in CPU time    0.3
  186896 words reserved for DFT integration

 PROGRAM * RKS-SCF (Restricted closed shell Kohn-Sham)     Authors: W. Meyer, H.-J. Werner, P.J. Knowles, 1993

 NUMBER OF ELECTRONS:       5+    5-    SPACE SYMMETRY=1    SPIN SYMMETRY: Singlet 
 CONVERGENCE THRESHOLDS:    1.00E-04 (Density)    1.00E-08 (Energy)
 INTEGRAL THRESHOLDS:       1.00E-11 (Initial)    1.00E-11 (Final)
 MAX. NUMBER OF ITERATIONS:       60
 INTERPOLATION TYPE:            DIIS
 INTERPOLATION STEPS:              2 (START)      1 (STEP)
 LEVEL SHIFTS:                  0.00 (CLOSED)  0.00 (OPEN) 



 Use fine grid record 1800.2 for energy threshold  1.0D-08
 Orbital guess generated from atomic densities. Full valence occupancy:    7

 Molecular orbital dump at record        2301.2

 Initial occupancy:   5

 Direct Fock-matrix evaluation.        Authors: Roland Lindh & Martin Schuetz (1993/96)

 Integral Threshold:                  0.1D-10
 Threshold for writing integrals:     0.1D-06
 Prescreening on density matrix:        ON 
 Calculation will be performed fully direct        

 ITERATION   DDIFF            GRAD            ENERGY        2-EL.EN.            DIPOLE MOMENTS         DIIS   CPU(IT)  CPU(TOT)
    1      0.000D+00      0.000D+00       -76.29637751     98.099044    0.00988    1.09652   -0.05473    0      9.0     15.5     start
    2      0.000D+00      0.102D-01       -75.92580059     82.012806   -0.00373   -0.40129    0.02010    1      5.8     21.3     diag
    3      0.122D-01      0.229D-01       -76.37983104     93.540688    0.00662    0.73554   -0.03671    2      5.6     26.9     diag
    4      0.845D-02      0.578D-03       -76.38020357     93.158755    0.00638    0.70827   -0.03535    3      5.2     32.1     diag
    5      0.290D-03      0.131D-03       -76.38021642     93.206653    0.00636    0.70651   -0.03526    4      5.1     37.2     diag
    6      0.478D-04      0.308D-04       -76.38021725     93.218048    0.00638    0.70878   -0.03538    5      5.1     42.3     diag
    7      0.114D-04      0.100D-05       -76.38021725     93.218295    0.00638    0.70872   -0.03537    6      5.1     47.4     diag
    8      0.444D-06      0.846D-07       -76.38021725     93.218394    0.00638    0.70873   -0.03538    0      4.8     52.2     orth

 Final occupancy:   5

 !RKS STATE  1.1 Energy               -76.380217252381
 Nuclear energy                         9.15605699
 One-electron energy                 -122.91307202
 Two-electron energy                   46.60919705
 Density functional                    -9.23239927     PBEX=-8.90784304 PBEC=-0.32455623
 Virial quotient                       -1.00552617
 !RKS STATE  1.1 Dipole moment          0.00637930     0.70873163    -0.03537549
 Dipole moment /Debye                   0.01621349     1.80129813    -0.08990963

 Orbital energies:

         1.1          2.1          3.1          4.1          5.1          6.1          7.1
    -18.760349    -0.931733    -0.483402    -0.343700    -0.266202    -0.034586     0.016764


 HOMO      5.1    -0.266202 =      -7.2437eV
 LUMO      6.1    -0.034586 =      -0.9411eV
 LUMO-HOMO         0.231616 =       6.3026eV


 **********************************************************************************************************************************
 DATASETS  * FILE   NREC   LENGTH (MB)   RECORD NAMES
              1      19       32.04       500      610      700      900      950      970     1000      129      960     1100   
                                          VAR    BASINP    GEOM    SYMINP    ZMAT    AOBASIS   BASIS     P2S    ABASIS      S 
                                         1400     1410     1200     1210     1080     1600     1650     1700     1800   
                                           T        V       H0       H01     AOSYM     SMH    MOLCAS    OPER     GRID   

              2       7       13.20       700     1000      520     1800     2101     2201     2301   
                                         GEOM     BASIS   MCVARS    GRID      RKS      RKS      RKS  

 PROGRAMS   *        TOTAL   RKS-SCF       INT   RKS-SCF       INT   RKS-SCF       INT
 CPU TIMES  *       159.10     52.53      0.07     43.94      0.07     61.91      0.39
 REAL TIME  *       167.27 SEC
 DISK USED  *        48.50 MB (local),      194.01 MB (total)
 SF USED    *         0.64 MB
 GA USED    *         2.18 MB       (max)       2.18 MB       (current)
 **********************************************************************************************************************************
 SETTING EB_PBE         =       -76.38021725  AU                              
 SETTING E_AB_INT       =        -0.00033878  AU                              

 *** results in hartree
 E_AB_INT         =        -0.00033878 AU
 Molecular orbitals read from record     2301.2  Type=RKS/CANONICAL (state 1.1)
 Occupation numbers read from record     2301.2  Type=RKS/RHF (state 1.1)
 Orbital energies read from record       2301.2  Type=RKS/CANONICAL (state 1.1)
 Redundancy group numbers read from rec  2301.2  Type=RKS/RHF (state 1.1)

 RPBE/aug-cc-pVTZ energy=    -76.380217252381

         RKS-SCF         RKS-SCF         RKS-SCF
    -76.38021725    -40.46359336   -116.84414939
 **********************************************************************************************************************************
 Molpro calculation terminated
