
 Primary working directories    : /scratch/sirous/480696/molpro.axqTmqG75C
 Secondary working directories  : /scratch/sirous/480696/molpro.axqTmqG75C
 Wavefunction directory         : /scratch/sirous/480696/
 Main file repository           : /scratch/sirous/480696/molpro.axqTmqG75C/

 id        : karlovklimes

 Nodes                      nprocs
 nc-05.cc.karlov.mff.cuni.cz    4

 Using customized tuning parameters: mindgm=1; mindgv=20; mindgc=4; mindgr=1; noblas=0; minvec=7
 default implementation of scratch files=sf  


 Variables initialized (934), CPU time= 0.00 sec
 ***,CH3C6H4CN+CF3CN+BF3
 memory,500,m
 gdirect
 gthresh,energy=1.d-8,twoint=1.d-19,oneint=1.d-19,zero=1.d-15,orbital=1.d-8,grid=1.d-8
 symmetry,nosym
 geomtyp=xyz
                                                                                 ! Geometry
 geometry={
 H1        -0.8915159870000000    -1.4558395110000000     0.5147169950000000
 H2        0.8915159870000000    -1.4558395110000000     0.5147169950000000
 H3        0.0000000000000000    0.0000000000000000     0.0000000000000000
 H4        0.0000000000000000    -1.4558395110000000     -1.0294339900000000
 H5        -0.3900959260000000    4.6617231989999999     -0.6756659630000000
 H6        0.4007516660000000    4.7191001640000003     0.6167214650000000
 C1        0.0000000000000000    -1.0918796330000000     0.0000000000000000
 O1        0.0000000000000000    4.0999999999999996     0.0000000000000000
 }
 
 
 
 basis=avtz
 
 
 
                                                                                 ! Dimer Calculation
 {rks,pbe,accu=1.d-8;orbital,2101.2}
 eab_PBE=energy
 
 
                                                                                 !monomer A
 dummy,5,6,8;                                                                    ! NOW MONOMER B IS DUMMY
 {rks,pbe,accu=1.d-8;orbital,2201.2}
 ea_PBE=energy
                                                                                 !monomer B
 dummy,1,2,3,4,7;                                                                !NOW MONOMER A IS DUMMY
 {rks,pbe,accu=1.d-8;orbital,2301.2}
 eb_PBE=energy
 
 E_AB_int=eab_PBE-ea_PBE-eb_PBE
 
 
 text,results in hartree
 show,E_AB_int
 
 Commands  initialized (763), CPU time= 0.02 sec, 617 directives.
 Default parameters read. Elapsed time= 0.27 sec

 Checking input...
 Passed
1


                                         ***  PROGRAM SYSTEM MOLPRO  ***
                                       Copyright, TTI GmbH Stuttgart, 2015
                                    Version 2019.2 linked Jun  8 2019 11:26:33


 **********************************************************************************************************************************
 LABEL *   CH3C6H4CN+CF3CN+BF3                                                           
  64 bit mpp version                                                                     DATE: 31-Mar-20          TIME: 16:31:36  
 **********************************************************************************************************************************

 SHA1:             8135a10abc80eafa5b3ae28ffc55be4890dc4c84
 **********************************************************************************************************************************

 THRESHOLDS:

 ZERO    =  1.00D-15  ONEINT  =  1.00D-19  TWOINT  =  1.00D-19  PREFAC  =  1.00D-14  XXXXXX  =  1.00D-09  EORDER  =  1.00D-04
 ENERGY  =  1.00D-08  ETEST   =  0.00D+00  EDENS   =  0.00D+00  THRDEDEF=  1.00D-06  GRADIENT=  1.00D-02  STEP    =  1.00D-03
 ORBITAL =  1.00D-08  CIVEC   =  1.00D-05  COEFF   =  1.00D-04  PRINTCI =  5.00D-02  PUNCHCI =  9.90D+01  OPTGRAD =  3.00D-04
 OPTENERG=  1.00D-06  OPTSTEP =  3.00D-04  THRGRAD =  1.00D-10  COMPRESS=  1.00D-11  VARMIN  =  1.00D-07  VARMAX  =  1.00D-03
 THRDOUB =  0.00D+00  THRDIV  =  1.00D-05  THRRED  =  1.00D-07  THRPSP  =  1.00D+00  THRDC   =  1.00D-10  THRCS   =  1.00D-10
 THRNRM  =  1.00D-08  THREQ   =  0.00D+00  THRDE   =  1.00D+00  THRREF  =  1.00D-05  SPARFAC =  1.00D+00  THRDLP  =  1.00D-07
 THRDIA  =  1.00D-10  THRDLS  =  1.00D-07  THRGPS  =  0.00D+00  THRKEX  =  0.00D+00  THRDIS  =  2.00D-01  THRVAR  =  1.00D-10
 THRLOC  =  1.00D-06  THRGAP  =  1.00D-06  THRLOCT = -1.00D+00  THRGAPT = -1.00D+00  THRORB  =  1.00D-06  THRMLTP =  0.00D+00
 THRCPQCI=  1.00D-10  KEXTA   =  0.00D+00  THRCOARS=  0.00D+00  SYMTOL  =  1.00D-06  GRADTOL =  1.00D-06  THROVL  =  1.00D-08
 THRORTH =  1.00D-08  GRID    =  1.00D-08  GRIDMAX =  1.00D-03  DTMAX   =  0.00D+00  THROCCDE=  1.00D-01  THROCCDE=  1.00D-01
 THRPRINT=  2.50D-01


 Variable memory set to  500000000 words,  buffer space 

 SETTING GEOMTYP        =    XYZ
 ZSYMEL=NOSYM

 SETTING BASIS          =    AVTZ


 Recomputing integrals since basis changed


 Using spherical harmonics

 Library entry H      S aug-cc-pVTZ          selected for orbital group  1
 Library entry H      P aug-cc-pVTZ          selected for orbital group  1
 Library entry H      D aug-cc-pVTZ          selected for orbital group  1
 Library entry C      S aug-cc-pVTZ          selected for orbital group  2
 Library entry C      P aug-cc-pVTZ          selected for orbital group  2
 Library entry C      D aug-cc-pVTZ          selected for orbital group  2
 Library entry C      F aug-cc-pVTZ          selected for orbital group  2
 Library entry O      S aug-cc-pVTZ          selected for orbital group  3
 Library entry O      P aug-cc-pVTZ          selected for orbital group  3
 Library entry O      D aug-cc-pVTZ          selected for orbital group  3
 Library entry O      F aug-cc-pVTZ          selected for orbital group  3


 PROGRAM * SEWARD (Integral evaluation for generally contracted gaussian basis sets)     Author: Roland Lindh, 1990

 Geometry written to block  1 of record 700


 Point group  C1  



 ATOMIC COORDINATES

 NR  ATOM    CHARGE       X              Y              Z

   1  H1      1.00   -1.684721051   -2.751137957    0.972674152
   2  H2      1.00    1.684721051   -2.751137957    0.972674152
   3  H3      1.00    0.000000000    0.000000000    0.000000000
   4  H4      1.00    0.000000000   -2.751137957   -1.945348304
   5  H5      1.00   -0.737174462    8.809380115   -1.276823622
   6  H6      1.00    0.757310893    8.917806864    1.165434664
   7  C1      6.00    0.000000000   -2.063353467    0.000000000
   8  O1      8.00    0.000000000    7.747877111    0.000000000

 Bond lengths in Bohr (Angstrom)

 1-7  2.063353467  2-7  2.063353467  3-7  2.063353467  4-7  2.063353467  5-8  1.816726005
     ( 1.091879633)     ( 1.091879633)     ( 1.091879633)     ( 1.091879633)     ( 0.961370000)

 6-8  1.816726004
     ( 0.961370000)

 Bond angles

  1-7-2  109.47122062   1-7-3  109.47122065   1-7-4  109.47122061   2-7-3  109.47122065

  2-7-4  109.47122061   3-7-4  109.47122066   5-8-6  104.10700003

 NUCLEAR CHARGE:                   20
 NUMBER OF PRIMITIVE AOS:         296
 NUMBER OF SYMMETRY AOS:          266
 NUMBER OF CONTRACTIONS:          230   (  230A   )
 NUMBER OF CORE ORBITALS:           2   (    2A   )
 NUMBER OF VALENCE ORBITALS:       14   (   14A   )


 NUCLEAR REPULSION ENERGY   32.55845399


 Eigenvalues of metric

         1 0.679E-04 0.906E-04 0.118E-03 0.119E-03 0.367E-03 0.392E-03 0.844E-03 0.889E-03


 OPERATOR DM      FOR CENTER  0  COORDINATES:    0.000000    0.000000    0.000000


 **********************************************************************************************************************************
 DATASETS  * FILE   NREC   LENGTH (MB)   RECORD NAMES
              1      18       32.04       500      610      700      900      950      970     1000      129      960     1100   
                                          VAR    BASINP    GEOM    SYMINP    ZMAT    AOBASIS   BASIS     P2S    ABASIS      S 
                                         1400     1410     1200     1210     1080     1600     1650     1700   
                                           T        V       H0       H01     AOSYM     SMH    MOLCAS    OPER   

 PROGRAMS   *        TOTAL       INT
 CPU TIMES  *         0.54      0.33
 REAL TIME  *         2.05 SEC
 DISK USED  *        32.49 MB (local),      129.95 MB (total)
 GA USED    *         0.00 MB       (max)       0.00 MB       (current)
 **********************************************************************************************************************************

 Density functional group PBE=PBEX+PBEC
 Functional: PBEX(Automatically generated (new) PBEX)                          Gradient terms: 1
 Functional: PBEC(Automatically generated (new) PBEC)                          Gradient terms: 1
 Use libxcgrid:  F
 Use grid at  1800.2

 Functional: PBEX                      Factor:  1.0000
 Functional: PBEC                      Factor:  1.0000

 Generated new metagrid on record  1800.2 with target accuracy 1.0D-08 and 66108 points in CPU time    0.2
 Computed new grid on record 1800.1 in CPU time    0.3
  186896 words reserved for DFT integration

 PROGRAM * RKS-SCF (Restricted closed shell Kohn-Sham)     Authors: W. Meyer, H.-J. Werner, P.J. Knowles, 1993

 NUMBER OF ELECTRONS:      10+   10-    SPACE SYMMETRY=1    SPIN SYMMETRY: Singlet 
 CONVERGENCE THRESHOLDS:    1.00E-04 (Density)    1.00E-08 (Energy)
 INTEGRAL THRESHOLDS:       1.00E-11 (Initial)    1.00E-11 (Final)
 MAX. NUMBER OF ITERATIONS:       60
 INTERPOLATION TYPE:            DIIS
 INTERPOLATION STEPS:              2 (START)      1 (STEP)
 LEVEL SHIFTS:                  0.00 (CLOSED)  0.00 (OPEN) 



 Use fine grid record 1800.2 for energy threshold  1.0D-08
 Orbital guess generated from atomic densities. Full valence occupancy:   16

 Molecular orbital dump at record        2101.2

 Initial occupancy:  10

 Direct Fock-matrix evaluation.        Authors: Roland Lindh & Martin Schuetz (1993/96)

 Integral Threshold:                  0.1D-10
 Threshold for writing integrals:     0.1D-06
 Prescreening on density matrix:        ON 
 Calculation will be performed fully direct        

 ITERATION   DDIFF            GRAD            ENERGY        2-EL.EN.            DIPOLE MOMENTS         DIIS   CPU(IT)  CPU(TOT)
    1      0.000D+00      0.000D+00      -116.64511040    188.210639    0.00988    1.09762   -0.05473    0      6.3      9.0     start
    2      0.000D+00      0.102D-01      -116.13597894    161.257911   -0.00377   -0.28828    0.02211    1      4.4     13.3     diag
    3      0.193D-01      0.192D-01      -116.82986905    179.542128    0.00758    0.85152   -0.04085    2      4.1     17.4     diag
    4      0.117D-01      0.283D-02      -116.84302383    179.121326    0.00641    0.73422   -0.03469    3      3.8     21.3     diag
    5      0.233D-02      0.684D-03      -116.84400459    178.798768    0.00641    0.73812   -0.03464    4      3.7     25.0     diag
    6      0.581D-03      0.620D-04      -116.84401070    178.839239    0.00642    0.73816   -0.03472    5      3.7     28.7     diag
    7      0.369D-04      0.863D-05      -116.84401082    178.842264    0.00643    0.73939   -0.03476    6      3.5     32.2     diag
    8      0.493D-05      0.110D-05      -116.84401082    178.842017    0.00643    0.73923   -0.03476    7      3.4     35.6     diag
    9      0.737D-06      0.771D-07      -116.84401082    178.841990    0.00643    0.73925   -0.03476    0      3.1     38.7     orth

 Final occupancy:  10

 !RKS STATE  1.1 Energy              -116.844010822401
 Nuclear energy                        32.55845399
 One-electron energy                 -222.76484880
 Two-electron energy                   89.42099491
 Density functional                   -16.05861092     PBEX=-15.43413046 PBEC= -0.62448046
 Virial quotient                       -1.00607857
 !RKS STATE  1.1 Dipole moment          0.00643070     0.73925295    -0.03475969
 Dipole moment /Debye                   0.01634414     1.87887052    -0.08834454

 Orbital energies:

         1.1          2.1          3.1          4.1          5.1          6.1          7.1          8.1          9.1         10.1
    -18.761062    -9.858488    -0.932415    -0.618983    -0.484068    -0.344615    -0.339872    -0.339830    -0.338400    -0.266894

        11.1         12.1
     -0.035841    -0.006434


 HOMO     10.1    -0.266894 =      -7.2626eV
 LUMO     11.1    -0.035841 =      -0.9753eV
 LUMO-HOMO         0.231053 =       6.2873eV


 **********************************************************************************************************************************
 DATASETS  * FILE   NREC   LENGTH (MB)   RECORD NAMES
              1      19       32.04       500      610      700      900      950      970     1000      129      960     1100   
                                          VAR    BASINP    GEOM    SYMINP    ZMAT    AOBASIS   BASIS     P2S    ABASIS      S 
                                         1400     1410     1200     1210     1080     1600     1650     1700     1800   
                                           T        V       H0       H01     AOSYM     SMH    MOLCAS    OPER     GRID   

              2       5        3.97       700     1000      520     1800     2101   
                                         GEOM     BASIS   MCVARS    GRID      RKS  

 PROGRAMS   *        TOTAL   RKS-SCF       INT
 CPU TIMES  *        39.57     39.03      0.33
 REAL TIME  *        43.05 SEC
 DISK USED  *        39.48 MB (local),      157.92 MB (total)
 SF USED    *         0.64 MB
 GA USED    *         2.18 MB       (max)       2.18 MB       (current)
 **********************************************************************************************************************************
 SETTING EAB_PBE        =      -116.84401082  AU                              

 Dummy atoms: H5  H6  O1


 Recomputing one-electron integrals since nuclear charges changed


 PROGRAM * SEWARD (Integral evaluation for generally contracted gaussian basis sets)     Author: Roland Lindh, 1990

 Geometry written to block  1 of record 700


 Point group  C1  



 ATOMIC COORDINATES

 NR  ATOM    CHARGE       X              Y              Z

   1  H1      1.00   -1.684721051   -2.751137957    0.972674152
   2  H2      1.00    1.684721051   -2.751137957    0.972674152
   3  H3      1.00    0.000000000    0.000000000    0.000000000
   4  H4      1.00    0.000000000   -2.751137957   -1.945348304
   5  H5      0.00   -0.737174462    8.809380115   -1.276823622
   6  H6      0.00    0.757310893    8.917806864    1.165434664
   7  C1      6.00    0.000000000   -2.063353467    0.000000000
   8  O1      0.00    0.000000000    7.747877111    0.000000000

 Bond lengths in Bohr (Angstrom)

 1-7  2.063353467  2-7  2.063353467  3-7  2.063353467  4-7  2.063353467  5-8  1.816726005
     ( 1.091879633)     ( 1.091879633)     ( 1.091879633)     ( 1.091879633)     ( 0.961370000)

 6-8  1.816726004
     ( 0.961370000)

 Bond angles

  1-7-2  109.47122062   1-7-3  109.47122065   1-7-4  109.47122061   2-7-3  109.47122065

  2-7-4  109.47122061   3-7-4  109.47122066   5-8-6  104.10700003

 NUCLEAR CHARGE:                   10
 NUMBER OF PRIMITIVE AOS:         296
 NUMBER OF SYMMETRY AOS:          266
 NUMBER OF CONTRACTIONS:          230   (  230A   )
 NUMBER OF CORE ORBITALS:           1   (    1A   )
 NUMBER OF VALENCE ORBITALS:        8   (    8A   )

 MOLECULE CHANGED: INITIALIZING OCCUPATION AND DUMP RECORDS


 NUCLEAR REPULSION ENERGY   13.41226070


 Eigenvalues of metric

         1 0.679E-04 0.906E-04 0.118E-03 0.119E-03 0.367E-03 0.392E-03 0.844E-03 0.889E-03


 OPERATOR DM      FOR CENTER  0  COORDINATES:    0.000000    0.000000    0.000000


 **********************************************************************************************************************************
 DATASETS  * FILE   NREC   LENGTH (MB)   RECORD NAMES
              1      19       32.04       500      610      700      900      950      970     1000      129      960     1100   
                                          VAR    BASINP    GEOM    SYMINP    ZMAT    AOBASIS   BASIS     P2S    ABASIS      S 
                                         1400     1410     1200     1210     1080     1600     1650     1700     1800   
                                           T        V       H0       H01     AOSYM     SMH    MOLCAS    OPER     GRID   

              2       5        3.97       700     1000      520     1800     2101   
                                         GEOM     BASIS   MCVARS    GRID      RKS  

 PROGRAMS   *        TOTAL       INT   RKS-SCF       INT
 CPU TIMES  *        39.65      0.07     39.03      0.33
 REAL TIME  *        43.23 SEC
 DISK USED  *        39.48 MB (local),      157.92 MB (total)
 SF USED    *         0.64 MB
 GA USED    *         2.18 MB       (max)       2.18 MB       (current)
 **********************************************************************************************************************************

 Density functional group PBE=PBEX+PBEC
 Functional: PBEX(Automatically generated (new) PBEX)                          Gradient terms: 1
 Functional: PBEC(Automatically generated (new) PBEC)                          Gradient terms: 1
 Use libxcgrid:  F
 Use grid at  1800.2

 Functional: PBEX                      Factor:  1.0000
 Functional: PBEC                      Factor:  1.0000

 Generated new metagrid on record  1800.2 with target accuracy 1.0D-08 and 66108 points in CPU time    0.2
 Computed new grid on record 1800.1 in CPU time    0.3
  186896 words reserved for DFT integration

 PROGRAM * RKS-SCF (Restricted closed shell Kohn-Sham)     Authors: W. Meyer, H.-J. Werner, P.J. Knowles, 1993

 NUMBER OF ELECTRONS:       5+    5-    SPACE SYMMETRY=1    SPIN SYMMETRY: Singlet 
 CONVERGENCE THRESHOLDS:    1.00E-04 (Density)    1.00E-08 (Energy)
 INTEGRAL THRESHOLDS:       1.00E-11 (Initial)    1.00E-11 (Final)
 MAX. NUMBER OF ITERATIONS:       60
 INTERPOLATION TYPE:            DIIS
 INTERPOLATION STEPS:              2 (START)      1 (STEP)
 LEVEL SHIFTS:                  0.00 (CLOSED)  0.00 (OPEN) 



 Use fine grid record 1800.2 for energy threshold  1.0D-08
 Orbital guess generated from atomic densities. Full valence occupancy:    9

 Molecular orbital dump at record        2201.2

 Initial occupancy:   5

 Direct Fock-matrix evaluation.        Authors: Roland Lindh & Martin Schuetz (1993/96)

 Integral Threshold:                  0.1D-10
 Threshold for writing integrals:     0.1D-06
 Prescreening on density matrix:        ON 
 Calculation will be performed fully direct        

 ITERATION   DDIFF            GRAD            ENERGY        2-EL.EN.            DIPOLE MOMENTS         DIIS   CPU(IT)  CPU(TOT)
    1      0.000D+00      0.000D+00       -40.34825327     69.929984   -0.00000    0.00002   -0.00000    0      5.1      8.3     start
    2      0.000D+00      0.100D-01       -40.20733853     59.324339    0.00000   -0.00010   -0.00001    1      3.8     12.1     diag
    3      0.149D-01      0.140D-01       -40.46321253     65.756090   -0.00000    0.00003   -0.00000    2      3.9     16.0     diag
    4      0.848D-02      0.529D-03       -40.46359217     65.509927    0.00000    0.00003   -0.00000    3      3.7     19.7     diag
    5      0.447D-03      0.129D-04       -40.46359226     65.513135   -0.00000    0.00003   -0.00000    4      3.7     23.4     diag
    6      0.251D-04      0.286D-05       -40.46359225     65.510029    0.00000    0.00003   -0.00000    0      3.1     26.6     orth

 Final occupancy:   5

 !RKS STATE  1.1 Energy               -40.463592252149
 Nuclear energy                        13.41226070
 One-electron energy                  -79.80474495
 Two-electron energy                   32.75501462
 Density functional                    -6.82612262     PBEX=-6.52621352 PBEC=-0.29990910
 Virial quotient                       -1.00711892
 !RKS STATE  1.1 Dipole moment          0.00000008     0.00003247    -0.00000248
 Dipole moment /Debye                   0.00000020     0.00008253    -0.00000630

 Orbital energies:

         1.1          2.1          3.1          4.1          5.1          6.1          7.1
     -9.865988    -0.626293    -0.346725    -0.346724    -0.346724    -0.013807     0.021115


 HOMO      5.1    -0.346724 =      -9.4348eV
 LUMO      6.1    -0.013807 =      -0.3757eV
 LUMO-HOMO         0.332917 =       9.0591eV


 **********************************************************************************************************************************
 DATASETS  * FILE   NREC   LENGTH (MB)   RECORD NAMES
              1      19       32.04       500      610      700      900      950      970     1000      129      960     1100   
                                          VAR    BASINP    GEOM    SYMINP    ZMAT    AOBASIS   BASIS     P2S    ABASIS      S 
                                         1400     1410     1200     1210     1080     1600     1650     1700     1800   
                                           T        V       H0       H01     AOSYM     SMH    MOLCAS    OPER     GRID   

              2       6        8.58       700     1000      520     1800     2101     2201   
                                         GEOM     BASIS   MCVARS    GRID      RKS      RKS  

 PROGRAMS   *        TOTAL   RKS-SCF       INT   RKS-SCF       INT
 CPU TIMES  *        66.54     26.89      0.07     39.03      0.33
 REAL TIME  *        70.51 SEC
 DISK USED  *        43.46 MB (local),      173.84 MB (total)
 SF USED    *         0.64 MB
 GA USED    *         2.18 MB       (max)       2.18 MB       (current)
 **********************************************************************************************************************************
 SETTING EA_PBE         =       -40.46359225  AU                              

 Dummy atoms: H1  H2  H3  H4  C1


 Recomputing one-electron integrals since nuclear charges changed


 PROGRAM * SEWARD (Integral evaluation for generally contracted gaussian basis sets)     Author: Roland Lindh, 1990

 Geometry written to block  1 of record 700


 Point group  C1  



 ATOMIC COORDINATES

 NR  ATOM    CHARGE       X              Y              Z

   1  H1      0.00   -1.684721051   -2.751137957    0.972674152
   2  H2      0.00    1.684721051   -2.751137957    0.972674152
   3  H3      0.00    0.000000000    0.000000000    0.000000000
   4  H4      0.00    0.000000000   -2.751137957   -1.945348304
   5  H5      1.00   -0.737174462    8.809380115   -1.276823622
   6  H6      1.00    0.757310893    8.917806864    1.165434664
   7  C1      0.00    0.000000000   -2.063353467    0.000000000
   8  O1      8.00    0.000000000    7.747877111    0.000000000

 Bond lengths in Bohr (Angstrom)

 1-7  2.063353467  2-7  2.063353467  3-7  2.063353467  4-7  2.063353467  5-8  1.816726005
     ( 1.091879633)     ( 1.091879633)     ( 1.091879633)     ( 1.091879633)     ( 0.961370000)

 6-8  1.816726004
     ( 0.961370000)

 Bond angles

  1-7-2  109.47122062   1-7-3  109.47122065   1-7-4  109.47122061   2-7-3  109.47122065

  2-7-4  109.47122061   3-7-4  109.47122066   5-8-6  104.10700003

 NUCLEAR CHARGE:                   10
 NUMBER OF PRIMITIVE AOS:         296
 NUMBER OF SYMMETRY AOS:          266
 NUMBER OF CONTRACTIONS:          230   (  230A   )
 NUMBER OF CORE ORBITALS:           1   (    1A   )
 NUMBER OF VALENCE ORBITALS:        6   (    6A   )

 MOLECULE CHANGED: INITIALIZING OCCUPATION AND DUMP RECORDS


 NUCLEAR REPULSION ENERGY    9.15605699


 Eigenvalues of metric

         1 0.679E-04 0.906E-04 0.118E-03 0.119E-03 0.367E-03 0.392E-03 0.844E-03 0.889E-03


 OPERATOR DM      FOR CENTER  0  COORDINATES:    0.000000    0.000000    0.000000


 **********************************************************************************************************************************
 DATASETS  * FILE   NREC   LENGTH (MB)   RECORD NAMES
              1      19       32.04       500      610      700      900      950      970     1000      129      960     1100   
                                          VAR    BASINP    GEOM    SYMINP    ZMAT    AOBASIS   BASIS     P2S    ABASIS      S 
                                         1400     1410     1200     1210     1080     1600     1650     1700     1800   
                                           T        V       H0       H01     AOSYM     SMH    MOLCAS    OPER     GRID   

              2       6        8.58       700     1000      520     1800     2101     2201   
                                         GEOM     BASIS   MCVARS    GRID      RKS      RKS  

 PROGRAMS   *        TOTAL       INT   RKS-SCF       INT   RKS-SCF       INT
 CPU TIMES  *        66.62      0.07     26.89      0.07     39.03      0.33
 REAL TIME  *        70.66 SEC
 DISK USED  *        43.46 MB (local),      173.84 MB (total)
 SF USED    *         0.64 MB
 GA USED    *         2.18 MB       (max)       2.18 MB       (current)
 **********************************************************************************************************************************

 Density functional group PBE=PBEX+PBEC
 Functional: PBEX(Automatically generated (new) PBEX)                          Gradient terms: 1
 Functional: PBEC(Automatically generated (new) PBEC)                          Gradient terms: 1
 Use libxcgrid:  F
 Use grid at  1800.2

 Functional: PBEX                      Factor:  1.0000
 Functional: PBEC                      Factor:  1.0000

 Generated new metagrid on record  1800.2 with target accuracy 1.0D-08 and 66108 points in CPU time    0.2
 Computed new grid on record 1800.1 in CPU time    0.3
  186896 words reserved for DFT integration

 PROGRAM * RKS-SCF (Restricted closed shell Kohn-Sham)     Authors: W. Meyer, H.-J. Werner, P.J. Knowles, 1993

 NUMBER OF ELECTRONS:       5+    5-    SPACE SYMMETRY=1    SPIN SYMMETRY: Singlet 
 CONVERGENCE THRESHOLDS:    1.00E-04 (Density)    1.00E-08 (Energy)
 INTEGRAL THRESHOLDS:       1.00E-11 (Initial)    1.00E-11 (Final)
 MAX. NUMBER OF ITERATIONS:       60
 INTERPOLATION TYPE:            DIIS
 INTERPOLATION STEPS:              2 (START)      1 (STEP)
 LEVEL SHIFTS:                  0.00 (CLOSED)  0.00 (OPEN) 



 Use fine grid record 1800.2 for energy threshold  1.0D-08
 Orbital guess generated from atomic densities. Full valence occupancy:    7

 Molecular orbital dump at record        2301.2

 Initial occupancy:   5

 Direct Fock-matrix evaluation.        Authors: Roland Lindh & Martin Schuetz (1993/96)

 Integral Threshold:                  0.1D-10
 Threshold for writing integrals:     0.1D-06
 Prescreening on density matrix:        ON 
 Calculation will be performed fully direct        

 ITERATION   DDIFF            GRAD            ENERGY        2-EL.EN.            DIPOLE MOMENTS         DIIS   CPU(IT)  CPU(TOT)
    1      0.000D+00      0.000D+00       -76.29637693     98.098999    0.00989    1.09653   -0.05473    0      5.1      8.6     start
    2      0.000D+00      0.102D-01       -75.92596188     82.015632   -0.00366   -0.40010    0.02005    1      4.0     12.5     diag
    3      0.122D-01      0.229D-01       -76.37982972     93.540532    0.00663    0.73545   -0.03671    2      4.0     16.5     diag
    4      0.843D-02      0.577D-03       -76.38020186     93.158820    0.00639    0.70820   -0.03535    3      3.8     20.3     diag
    5      0.286D-03      0.131D-03       -76.38021468     93.206655    0.00637    0.70645   -0.03526    4      3.7     24.0     diag
    6      0.466D-04      0.308D-04       -76.38021551     93.218054    0.00639    0.70871   -0.03538    5      3.4     27.4     diag
    7      0.114D-04      0.998D-06       -76.38021552     93.218300    0.00639    0.70865   -0.03537    6      3.2     30.6     diag
    8      0.414D-06      0.843D-07       -76.38021552     93.218398    0.00639    0.70866   -0.03538    0      2.6     33.3     orth

 Final occupancy:   5

 !RKS STATE  1.1 Energy               -76.380215515060
 Nuclear energy                         9.15605699
 One-electron energy                 -122.91307066
 Two-electron energy                   46.60919915
 Density functional                    -9.23240100     PBEX=-8.90784481 PBEC=-0.32455618
 Virial quotient                       -1.00552574
 !RKS STATE  1.1 Dipole moment          0.00639064     0.70866338    -0.03537526
 Dipole moment /Debye                   0.01624232     1.80112468    -0.08990904

 Orbital energies:

         1.1          2.1          3.1          4.1          5.1          6.1          7.1
    -18.760348    -0.931733    -0.483402    -0.343699    -0.266201    -0.034545     0.016791


 HOMO      5.1    -0.266201 =      -7.2437eV
 LUMO      6.1    -0.034545 =      -0.9400eV
 LUMO-HOMO         0.231656 =       6.3037eV


 **********************************************************************************************************************************
 DATASETS  * FILE   NREC   LENGTH (MB)   RECORD NAMES
              1      19       32.04       500      610      700      900      950      970     1000      129      960     1100   
                                          VAR    BASINP    GEOM    SYMINP    ZMAT    AOBASIS   BASIS     P2S    ABASIS      S 
                                         1400     1410     1200     1210     1080     1600     1650     1700     1800   
                                           T        V       H0       H01     AOSYM     SMH    MOLCAS    OPER     GRID   

              2       7       13.20       700     1000      520     1800     2101     2201     2301   
                                         GEOM     BASIS   MCVARS    GRID      RKS      RKS      RKS  

 PROGRAMS   *        TOTAL   RKS-SCF       INT   RKS-SCF       INT   RKS-SCF       INT
 CPU TIMES  *       100.20     33.58      0.07     26.89      0.07     39.03      0.33
 REAL TIME  *       104.70 SEC
 DISK USED  *        48.50 MB (local),      194.01 MB (total)
 SF USED    *         0.64 MB
 GA USED    *         2.18 MB       (max)       2.18 MB       (current)
 **********************************************************************************************************************************
 SETTING EB_PBE         =       -76.38021552  AU                              
 SETTING E_AB_INT       =        -0.00020306  AU                              

 *** results in hartree
 E_AB_INT         =        -0.00020306 AU
 Molecular orbitals read from record     2301.2  Type=RKS/CANONICAL (state 1.1)
 Occupation numbers read from record     2301.2  Type=RKS/RHF (state 1.1)
 Orbital energies read from record       2301.2  Type=RKS/CANONICAL (state 1.1)
 Redundancy group numbers read from rec  2301.2  Type=RKS/RHF (state 1.1)

 RPBE/aug-cc-pVTZ energy=    -76.380215515060

         RKS-SCF         RKS-SCF         RKS-SCF
    -76.38021552    -40.46359225   -116.84401082
 **********************************************************************************************************************************
 Molpro calculation terminated
