
 Primary working directories    : /scratch/sirous/43103/molpro.iurlLBFLNW
 Secondary working directories  : /scratch/sirous/43103/molpro.iurlLBFLNW
 Wavefunction directory         : /scratch/sirous/43103/
 Main file repository           : /scratch/sirous/43103/molpro.iurlLBFLNW/

 id        : karlovklimes

 Nodes                      nprocs
 nc-10.cc.karlov.mff.cuni.cz    4

 Using customized tuning parameters: mindgm=1; mindgv=20; mindgc=4; mindgr=1; noblas=0; minvec=7
 default implementation of scratch files=sf  


 Variables initialized (934), CPU time= 0.00 sec
 ***,CH3C6H4CN+CF3CN+BF3
 memory,500,m
 gdirect
 gthresh,energy=1.d-8,twoint=1.d-19,oneint=1.d-19,zero=1.d-15,orbital=1.d-8,grid=1.d-8
 symmetry,nosym
 geomtyp=xyz
                                                                                 ! Geometry
 geometry={
 O1        -0.702196054    -0.056060256     0.009942262
 H1        -1.022193224    0.846775782     -0.011488714
 H2        0.257521062    0.042121496     0.005218999
 O2        3.877968561609676    0.013714986855680957     -0.003260749084838452
 H3        4.2545901766096765    -0.42466507914431906     0.7628636329151616
 H4        4.250232878609677    -0.462497988144319     -0.7486632510848384
 }
 
 
 
 basis=avtz
 
 
 
                                                                                 ! Dimer Calculation
 {rks,pbe,accu=1.d-8;orbital,2101.2}
 eab_PBE=energy
 
 
                                                                                 !monomer A
 dummy,4,5,6;                                                                    ! NOW MONOMER B IS DUMMY
 {rks,pbe,accu=1.d-8;orbital,2201.2}
 ea_PBE=energy
                                                                                 !monomer B
 dummy,1,2,3;                                                                    !NOW MONOMER A IS DUMMY
 {rks,pbe,accu=1.d-8;orbital,2301.2}
 eb_PBE=energy
 
 E_AB_int=eab_PBE-ea_PBE-eb_PBE
 
 
 text,results in hartree
 show,E_AB_int
 
 Commands  initialized (763), CPU time= 0.01 sec, 617 directives.
 Default parameters read. Elapsed time= 0.22 sec

 Checking input...
 Passed
1


                                         ***  PROGRAM SYSTEM MOLPRO  ***
                                       Copyright, TTI GmbH Stuttgart, 2015
                                    Version 2019.2 linked Jun  8 2019 11:26:33


 **********************************************************************************************************************************
 LABEL *   CH3C6H4CN+CF3CN+BF3                                                           
  64 bit mpp version                                                                     DATE: 06-Oct-19          TIME: 17:52:08  
 **********************************************************************************************************************************

 SHA1:             8135a10abc80eafa5b3ae28ffc55be4890dc4c84
 **********************************************************************************************************************************

 THRESHOLDS:

 ZERO    =  1.00D-15  ONEINT  =  1.00D-19  TWOINT  =  1.00D-19  PREFAC  =  1.00D-14  XXXXXX  =  1.00D-09  EORDER  =  1.00D-04
 ENERGY  =  1.00D-08  ETEST   =  0.00D+00  EDENS   =  0.00D+00  THRDEDEF=  1.00D-06  GRADIENT=  1.00D-02  STEP    =  1.00D-03
 ORBITAL =  1.00D-08  CIVEC   =  1.00D-05  COEFF   =  1.00D-04  PRINTCI =  5.00D-02  PUNCHCI =  9.90D+01  OPTGRAD =  3.00D-04
 OPTENERG=  1.00D-06  OPTSTEP =  3.00D-04  THRGRAD =  1.00D-10  COMPRESS=  1.00D-11  VARMIN  =  1.00D-07  VARMAX  =  1.00D-03
 THRDOUB =  0.00D+00  THRDIV  =  1.00D-05  THRRED  =  1.00D-07  THRPSP  =  1.00D+00  THRDC   =  1.00D-10  THRCS   =  1.00D-10
 THRNRM  =  1.00D-08  THREQ   =  0.00D+00  THRDE   =  1.00D+00  THRREF  =  1.00D-05  SPARFAC =  1.00D+00  THRDLP  =  1.00D-07
 THRDIA  =  1.00D-10  THRDLS  =  1.00D-07  THRGPS  =  0.00D+00  THRKEX  =  0.00D+00  THRDIS  =  2.00D-01  THRVAR  =  1.00D-10
 THRLOC  =  1.00D-06  THRGAP  =  1.00D-06  THRLOCT = -1.00D+00  THRGAPT = -1.00D+00  THRORB  =  1.00D-06  THRMLTP =  0.00D+00
 THRCPQCI=  1.00D-10  KEXTA   =  0.00D+00  THRCOARS=  0.00D+00  SYMTOL  =  1.00D-06  GRADTOL =  1.00D-06  THROVL  =  1.00D-08
 THRORTH =  1.00D-08  GRID    =  1.00D-08  GRIDMAX =  1.00D-03  DTMAX   =  0.00D+00  THROCCDE=  1.00D-01  THROCCDE=  1.00D-01
 THRPRINT=  2.50D-01


 Variable memory set to  500000000 words,  buffer space 

 SETTING GEOMTYP        =    XYZ
 ZSYMEL=NOSYM

 SETTING BASIS          =    AVTZ


 Recomputing integrals since basis changed


 Using spherical harmonics

 Library entry O      S aug-cc-pVTZ          selected for orbital group  1
 Library entry O      P aug-cc-pVTZ          selected for orbital group  1
 Library entry O      D aug-cc-pVTZ          selected for orbital group  1
 Library entry O      F aug-cc-pVTZ          selected for orbital group  1
 Library entry H      S aug-cc-pVTZ          selected for orbital group  2
 Library entry H      P aug-cc-pVTZ          selected for orbital group  2
 Library entry H      D aug-cc-pVTZ          selected for orbital group  2


 PROGRAM * SEWARD (Integral evaluation for generally contracted gaussian basis sets)     Author: Roland Lindh, 1990

 Geometry written to block  1 of record 700


 Point group  C1  



 ATOMIC COORDINATES

 NR  ATOM    CHARGE       X              Y              Z

   1  O1      8.00   -1.326958228   -0.105938530    0.018788152
   2  H1      1.00   -1.931665240    1.600174317   -0.021710523
   3  H2      1.00    0.486644278    0.079598091    0.009862479
   4  O2      8.00    7.328298501    0.025917569   -0.006161923
   5  H3      1.00    8.040010206   -0.802500694    1.441603337
   6  H4      1.00    8.031776106   -0.873994531   -1.414768504

 Bond lengths in Bohr (Angstrom)

 1-2  1.810561173  1-3  1.823090112  4-5  1.813514438  4-6  1.813531094
     ( 0.958107712)     ( 0.964737741)     ( 0.959670512)     ( 0.959679326)

 Bond angles

  2-1-3  103.66482512   5-4-6  103.95523303

 NUCLEAR CHARGE:                   20
 NUMBER OF PRIMITIVE AOS:         242
 NUMBER OF SYMMETRY AOS:          216
 NUMBER OF CONTRACTIONS:          184   (  184A   )
 NUMBER OF CORE ORBITALS:           2   (    2A   )
 NUMBER OF VALENCE ORBITALS:       12   (   12A   )


 NUCLEAR REPULSION ENERGY   29.87955877


 Eigenvalues of metric

         1 0.322E-03 0.366E-03 0.385E-03 0.392E-03 0.114E-02 0.163E-02 0.163E-02 0.176E-02


 OPERATOR DM      FOR CENTER  0  COORDINATES:    0.000000    0.000000    0.000000


 **********************************************************************************************************************************
 DATASETS  * FILE   NREC   LENGTH (MB)   RECORD NAMES
              1      18       31.31       500      610      700      900      950      970     1000      129      960     1100   
                                          VAR    BASINP    GEOM    SYMINP    ZMAT    AOBASIS   BASIS     P2S    ABASIS      S 
                                         1400     1410     1200     1210     1080     1600     1650     1700   
                                           T        V       H0       H01     AOSYM     SMH    MOLCAS    OPER   

 PROGRAMS   *        TOTAL       INT
 CPU TIMES  *         0.44      0.26
 REAL TIME  *         1.65 SEC
 DISK USED  *        31.70 MB (local),      126.82 MB (total)
 GA USED    *         0.00 MB       (max)       0.00 MB       (current)
 **********************************************************************************************************************************

 Density functional group PBE=PBEX+PBEC
 Functional: PBEX(Automatically generated (new) PBEX)                          Gradient terms: 1
 Functional: PBEC(Automatically generated (new) PBEC)                          Gradient terms: 1
 Use libxcgrid:  F
 Use grid at  1800.2

 Functional: PBEX                      Factor:  1.0000
 Functional: PBEC                      Factor:  1.0000

 Generated new metagrid on record  1800.2 with target accuracy 1.0D-08 and 59576 points in CPU time    0.2
 Computed new grid on record 1800.1 in CPU time    0.2
  150340 words reserved for DFT integration

 PROGRAM * RKS-SCF (Restricted closed shell Kohn-Sham)     Authors: W. Meyer, H.-J. Werner, P.J. Knowles, 1993

 NUMBER OF ELECTRONS:      10+   10-    SPACE SYMMETRY=1    SPIN SYMMETRY: Singlet 
 CONVERGENCE THRESHOLDS:    1.00E-04 (Density)    1.00E-08 (Energy)
 INTEGRAL THRESHOLDS:       1.00E-11 (Initial)    1.00E-11 (Final)
 MAX. NUMBER OF ITERATIONS:       60
 INTERPOLATION TYPE:            DIIS
 INTERPOLATION STEPS:              2 (START)      1 (STEP)
 LEVEL SHIFTS:                  0.00 (CLOSED)  0.00 (OPEN) 



 Use fine grid record 1800.2 for energy threshold  1.0D-08
 Orbital guess generated from atomic densities. Full valence occupancy:   14

 Molecular orbital dump at record        2101.2

 Initial occupancy:  10

 Direct Fock-matrix evaluation.        Authors: Roland Lindh & Martin Schuetz (1993/96)

 Integral Threshold:                  0.1D-10
 Threshold for writing integrals:     0.1D-06
 Prescreening on density matrix:        ON 
 Calculation will be performed fully direct        

 ITERATION   DDIFF            GRAD            ENERGY        2-EL.EN.            DIPOLE MOMENTS         DIIS   CPU(IT)  CPU(TOT)
    1      0.000D+00      0.000D+00      -152.59628353    219.320468    1.29407    0.07843   -0.00501    0      3.8      6.2     start
    2      0.000D+00      0.115D-01      -151.87652190    187.343631   -0.22623   -0.02376    0.00110    1      2.7      9.0     diag
    3      0.213D-01      0.258D-01      -152.76144120    210.223246    0.90662    0.05119   -0.00342    2      2.5     11.5     diag
    4      0.146D-01      0.658D-03      -152.76217552    209.465892    0.88260    0.04722   -0.00327    3      2.5     14.0     diag
    5      0.497D-03      0.146D-03      -152.76219939    209.552802    0.87928    0.04924   -0.00331    4      2.5     16.5     diag
    6      0.819D-04      0.406D-04      -152.76220083    209.575983    0.88153    0.04712   -0.00326    5      2.4     18.9     diag
    7      0.325D-04      0.246D-04      -152.76220154    209.577833    0.88172    0.04839   -0.00329    6      2.3     21.2     diag
    8      0.153D-04      0.119D-05      -152.76220154    209.578029    0.88167    0.04834   -0.00329    7      2.3     23.5     diag
    9      0.694D-06      0.550D-07      -152.76220154    209.578131    0.88168    0.04834   -0.00329    0      2.1     25.6     orth

 Final occupancy:  10

 !RKS STATE  1.1 Energy              -152.762201539460
 Nuclear energy                        29.87955877
 One-electron energy                 -268.96409312
 Two-electron energy                  104.78906550
 Density functional                   -18.46673269     PBEX=-17.81750823 PBEC= -0.64922446
 Virial quotient                       -1.00550942
 !RKS STATE  1.1 Dipole moment          0.88168382     0.04833842    -0.00329195
 Dipole moment /Debye                   2.24086997     0.12285597    -0.00836674

 Orbital energies:

         1.1          2.1          3.1          4.1          5.1          6.1          7.1          8.1          9.1         10.1
    -18.767893   -18.752049    -0.940167    -0.923555    -0.491150    -0.473971    -0.352446    -0.336375    -0.274434    -0.258300

        11.1         12.1
     -0.043233    -0.020050


 HOMO     10.1    -0.258300 =      -7.0287eV
 LUMO     11.1    -0.043233 =      -1.1764eV
 LUMO-HOMO         0.215067 =       5.8523eV


 **********************************************************************************************************************************
 DATASETS  * FILE   NREC   LENGTH (MB)   RECORD NAMES
              1      19       31.31       500      610      700      900      950      970     1000      129      960     1100   
                                          VAR    BASINP    GEOM    SYMINP    ZMAT    AOBASIS   BASIS     P2S    ABASIS      S 
                                         1400     1410     1200     1210     1080     1600     1650     1700     1800   
                                           T        V       H0       H01     AOSYM     SMH    MOLCAS    OPER     GRID   

              2       5        3.54       700     1000      520     1800     2101   
                                         GEOM     BASIS   MCVARS    GRID      RKS  

 PROGRAMS   *        TOTAL   RKS-SCF       INT
 CPU TIMES  *        26.31     25.87      0.26
 REAL TIME  *        28.84 SEC
 DISK USED  *        37.09 MB (local),      148.36 MB (total)
 SF USED    *         0.41 MB
 GA USED    *         1.97 MB       (max)       1.97 MB       (current)
 **********************************************************************************************************************************
 SETTING EAB_PBE        =      -152.76220154  AU                              

 Dummy atoms: O2  H3  H4


 Recomputing one-electron integrals since nuclear charges changed


 PROGRAM * SEWARD (Integral evaluation for generally contracted gaussian basis sets)     Author: Roland Lindh, 1990

 Geometry written to block  1 of record 700


 Point group  C1  



 ATOMIC COORDINATES

 NR  ATOM    CHARGE       X              Y              Z

   1  O1      8.00   -1.326958228   -0.105938530    0.018788152
   2  H1      1.00   -1.931665240    1.600174317   -0.021710523
   3  H2      1.00    0.486644278    0.079598091    0.009862479
   4  O2      0.00    7.328298501    0.025917569   -0.006161923
   5  H3      0.00    8.040010206   -0.802500694    1.441603337
   6  H4      0.00    8.031776106   -0.873994531   -1.414768504

 Bond lengths in Bohr (Angstrom)

 1-2  1.810561173  1-3  1.823090112  4-5  1.813514438  4-6  1.813531094
     ( 0.958107712)     ( 0.964737741)     ( 0.959670512)     ( 0.959679326)

 Bond angles

  2-1-3  103.66482512   5-4-6  103.95523303

 NUCLEAR CHARGE:                   10
 NUMBER OF PRIMITIVE AOS:         242
 NUMBER OF SYMMETRY AOS:          216
 NUMBER OF CONTRACTIONS:          184   (  184A   )
 NUMBER OF CORE ORBITALS:           1   (    1A   )
 NUMBER OF VALENCE ORBITALS:        6   (    6A   )

 MOLECULE CHANGED: INITIALIZING OCCUPATION AND DUMP RECORDS


 NUCLEAR REPULSION ENERGY    9.15671413


 Eigenvalues of metric

         1 0.322E-03 0.366E-03 0.385E-03 0.392E-03 0.114E-02 0.163E-02 0.163E-02 0.176E-02


 OPERATOR DM      FOR CENTER  0  COORDINATES:    0.000000    0.000000    0.000000


 **********************************************************************************************************************************
 DATASETS  * FILE   NREC   LENGTH (MB)   RECORD NAMES
              1      19       31.31       500      610      700      900      950      970     1000      129      960     1100   
                                          VAR    BASINP    GEOM    SYMINP    ZMAT    AOBASIS   BASIS     P2S    ABASIS      S 
                                         1400     1410     1200     1210     1080     1600     1650     1700     1800   
                                           T        V       H0       H01     AOSYM     SMH    MOLCAS    OPER     GRID   

              2       5        3.54       700     1000      520     1800     2101   
                                         GEOM     BASIS   MCVARS    GRID      RKS  

 PROGRAMS   *        TOTAL       INT   RKS-SCF       INT
 CPU TIMES  *        26.37      0.05     25.87      0.26
 REAL TIME  *        28.98 SEC
 DISK USED  *        37.09 MB (local),      148.36 MB (total)
 SF USED    *         0.41 MB
 GA USED    *         1.97 MB       (max)       1.97 MB       (current)
 **********************************************************************************************************************************

 Density functional group PBE=PBEX+PBEC
 Functional: PBEX(Automatically generated (new) PBEX)                          Gradient terms: 1
 Functional: PBEC(Automatically generated (new) PBEC)                          Gradient terms: 1
 Use libxcgrid:  F
 Use grid at  1800.2

 Functional: PBEX                      Factor:  1.0000
 Functional: PBEC                      Factor:  1.0000

 Generated new metagrid on record  1800.2 with target accuracy 1.0D-08 and 59576 points in CPU time    0.2
 Computed new grid on record 1800.1 in CPU time    0.2
  150340 words reserved for DFT integration

 PROGRAM * RKS-SCF (Restricted closed shell Kohn-Sham)     Authors: W. Meyer, H.-J. Werner, P.J. Knowles, 1993

 NUMBER OF ELECTRONS:       5+    5-    SPACE SYMMETRY=1    SPIN SYMMETRY: Singlet 
 CONVERGENCE THRESHOLDS:    1.00E-04 (Density)    1.00E-08 (Energy)
 INTEGRAL THRESHOLDS:       1.00E-11 (Initial)    1.00E-11 (Final)
 MAX. NUMBER OF ITERATIONS:       60
 INTERPOLATION TYPE:            DIIS
 INTERPOLATION STEPS:              2 (START)      1 (STEP)
 LEVEL SHIFTS:                  0.00 (CLOSED)  0.00 (OPEN) 



 Use fine grid record 1800.2 for energy threshold  1.0D-08
 Orbital guess generated from atomic densities. Full valence occupancy:    7

 Molecular orbital dump at record        2201.2

 Initial occupancy:   5

 Direct Fock-matrix evaluation.        Authors: Roland Lindh & Martin Schuetz (1993/96)

 Integral Threshold:                  0.1D-10
 Threshold for writing integrals:     0.1D-06
 Prescreening on density matrix:        ON 
 Calculation will be performed fully direct        

 ITERATION   DDIFF            GRAD            ENERGY        2-EL.EN.            DIPOLE MOMENTS         DIIS   CPU(IT)  CPU(TOT)
    1      0.000D+00      0.000D+00       -76.29639444     98.095215    0.59543    0.92716   -0.02423    0      3.8      7.6     start
    2      0.000D+00      0.114D-01       -75.92571306     82.016044   -0.23463   -0.33280    0.00875    1      2.5     10.1     diag
    3      0.150D-01      0.257D-01       -76.37980037     93.539022    0.39725    0.62300   -0.01627    2      3.0     13.1     diag
    4      0.103D-01      0.646D-03       -76.38017136     93.157917    0.38190    0.60014   -0.01568    3      2.4     15.5     diag
    5      0.354D-03      0.147D-03       -76.38018418     93.205919    0.38108    0.59865   -0.01564    4      2.7     18.3     diag
    6      0.586D-04      0.344D-04       -76.38018501     93.217224    0.38231    0.60057   -0.01569    5      3.0     21.3     diag
    7      0.140D-04      0.112D-05       -76.38018501     93.217468    0.38227    0.60051   -0.01569    6      3.1     24.4     diag
    8      0.470D-06      0.964D-07       -76.38018501     93.217568    0.38228    0.60052   -0.01569    0      2.0     26.3     orth

 Final occupancy:   5

 !RKS STATE  1.1 Energy               -76.380185010794
 Nuclear energy                         9.15671413
 One-electron energy                 -122.91324664
 Two-electron energy                   46.60878393
 Density functional                    -9.23243644     PBEX=-8.90787338 PBEC=-0.32456305
 Virial quotient                       -1.00551390
 !RKS STATE  1.1 Dipole moment          0.38227836     0.60052323    -0.01568613
 Dipole moment /Debye                   0.97159104     1.52627783    -0.03986754

 Orbital energies:

         1.1          2.1          3.1          4.1          5.1          6.1          7.1
    -18.760509    -0.932029    -0.482587    -0.344508    -0.266275    -0.034632     0.014915


 HOMO      5.1    -0.266275 =      -7.2457eV
 LUMO      6.1    -0.034632 =      -0.9424eV
 LUMO-HOMO         0.231644 =       6.3033eV


 **********************************************************************************************************************************
 DATASETS  * FILE   NREC   LENGTH (MB)   RECORD NAMES
              1      19       31.31       500      610      700      900      950      970     1000      129      960     1100   
                                          VAR    BASINP    GEOM    SYMINP    ZMAT    AOBASIS   BASIS     P2S    ABASIS      S 
                                         1400     1410     1200     1210     1080     1600     1650     1700     1800   
                                           T        V       H0       H01     AOSYM     SMH    MOLCAS    OPER     GRID   

              2       6        7.39       700     1000      520     1800     2101     2201   
                                         GEOM     BASIS   MCVARS    GRID      RKS      RKS  

 PROGRAMS   *        TOTAL   RKS-SCF       INT   RKS-SCF       INT
 CPU TIMES  *        52.93     26.56      0.05     25.87      0.26
 REAL TIME  *        55.84 SEC
 DISK USED  *        40.81 MB (local),      163.22 MB (total)
 SF USED    *         0.41 MB
 GA USED    *         1.97 MB       (max)       1.97 MB       (current)
 **********************************************************************************************************************************
 SETTING EA_PBE         =       -76.38018501  AU                              

 Dummy atoms: O1  H1  H2


 Recomputing one-electron integrals since nuclear charges changed


 PROGRAM * SEWARD (Integral evaluation for generally contracted gaussian basis sets)     Author: Roland Lindh, 1990

 Geometry written to block  1 of record 700


 Point group  C1  



 ATOMIC COORDINATES

 NR  ATOM    CHARGE       X              Y              Z

   1  O1      0.00   -1.326958228   -0.105938530    0.018788152
   2  H1      0.00   -1.931665240    1.600174317   -0.021710523
   3  H2      0.00    0.486644278    0.079598091    0.009862479
   4  O2      8.00    7.328298501    0.025917569   -0.006161923
   5  H3      1.00    8.040010206   -0.802500694    1.441603337
   6  H4      1.00    8.031776106   -0.873994531   -1.414768504

 Bond lengths in Bohr (Angstrom)

 1-2  1.810561173  1-3  1.823090112  4-5  1.813514438  4-6  1.813531094
     ( 0.958107712)     ( 0.964737741)     ( 0.959670512)     ( 0.959679326)

 Bond angles

  2-1-3  103.66482512   5-4-6  103.95523303

 NUCLEAR CHARGE:                   10
 NUMBER OF PRIMITIVE AOS:         242
 NUMBER OF SYMMETRY AOS:          216
 NUMBER OF CONTRACTIONS:          184   (  184A   )
 NUMBER OF CORE ORBITALS:           1   (    1A   )
 NUMBER OF VALENCE ORBITALS:        6   (    6A   )

 MOLECULE CHANGED: INITIALIZING OCCUPATION AND DUMP RECORDS


 NUCLEAR REPULSION ENERGY    9.17259115


 Eigenvalues of metric

         1 0.322E-03 0.366E-03 0.385E-03 0.392E-03 0.114E-02 0.163E-02 0.163E-02 0.176E-02


 OPERATOR DM      FOR CENTER  0  COORDINATES:    0.000000    0.000000    0.000000


 **********************************************************************************************************************************
 DATASETS  * FILE   NREC   LENGTH (MB)   RECORD NAMES
              1      19       31.31       500      610      700      900      950      970     1000      129      960     1100   
                                          VAR    BASINP    GEOM    SYMINP    ZMAT    AOBASIS   BASIS     P2S    ABASIS      S 
                                         1400     1410     1200     1210     1080     1600     1650     1700     1800   
                                           T        V       H0       H01     AOSYM     SMH    MOLCAS    OPER     GRID   

              2       6        7.39       700     1000      520     1800     2101     2201   
                                         GEOM     BASIS   MCVARS    GRID      RKS      RKS  

 PROGRAMS   *        TOTAL       INT   RKS-SCF       INT   RKS-SCF       INT
 CPU TIMES  *        52.98      0.05     26.56      0.05     25.87      0.26
 REAL TIME  *        55.98 SEC
 DISK USED  *        40.81 MB (local),      163.22 MB (total)
 SF USED    *         0.41 MB
 GA USED    *         1.97 MB       (max)       1.97 MB       (current)
 **********************************************************************************************************************************

 Density functional group PBE=PBEX+PBEC
 Functional: PBEX(Automatically generated (new) PBEX)                          Gradient terms: 1
 Functional: PBEC(Automatically generated (new) PBEC)                          Gradient terms: 1
 Use libxcgrid:  F
 Use grid at  1800.2

 Functional: PBEX                      Factor:  1.0000
 Functional: PBEC                      Factor:  1.0000

 Generated new metagrid on record  1800.2 with target accuracy 1.0D-08 and 59576 points in CPU time    0.2
 Computed new grid on record 1800.1 in CPU time    0.2
  150340 words reserved for DFT integration

 PROGRAM * RKS-SCF (Restricted closed shell Kohn-Sham)     Authors: W. Meyer, H.-J. Werner, P.J. Knowles, 1993

 NUMBER OF ELECTRONS:       5+    5-    SPACE SYMMETRY=1    SPIN SYMMETRY: Singlet 
 CONVERGENCE THRESHOLDS:    1.00E-04 (Density)    1.00E-08 (Energy)
 INTEGRAL THRESHOLDS:       1.00E-11 (Initial)    1.00E-11 (Final)
 MAX. NUMBER OF ITERATIONS:       60
 INTERPOLATION TYPE:            DIIS
 INTERPOLATION STEPS:              2 (START)      1 (STEP)
 LEVEL SHIFTS:                  0.00 (CLOSED)  0.00 (OPEN) 



 Use fine grid record 1800.2 for energy threshold  1.0D-08
 Orbital guess generated from atomic densities. Full valence occupancy:    7

 Molecular orbital dump at record        2301.2

 Initial occupancy:   5

 Direct Fock-matrix evaluation.        Authors: Roland Lindh & Martin Schuetz (1993/96)

 Integral Threshold:                  0.1D-10
 Threshold for writing integrals:     0.1D-06
 Prescreening on density matrix:        ON 
 Calculation will be performed fully direct        

 ITERATION   DDIFF            GRAD            ENERGY        2-EL.EN.            DIPOLE MOMENTS         DIIS   CPU(IT)  CPU(TOT)
    1      0.000D+00      0.000D+00       -76.29615880     98.132344    0.69532   -0.84874    0.01923    0      3.7      6.7     start
    2      0.000D+00      0.114D-01       -75.92524772     82.026135   -0.25098    0.31477   -0.00713    1      2.5      9.2     diag
    3      0.153D-01      0.257D-01       -76.37976289     93.571170    0.46727   -0.57003    0.01291    2      3.3     12.5     diag
    4      0.106D-01      0.652D-03       -76.38014064     93.186662    0.44974   -0.54866    0.01243    3      2.5     15.0     diag
    5      0.359D-03      0.148D-03       -76.38015358     93.235067    0.44869   -0.54735    0.01240    4      2.4     17.4     diag
    6      0.594D-04      0.344D-04       -76.38015440     93.246293    0.45012   -0.54910    0.01244    5      2.3     19.7     diag
    7      0.140D-04      0.114D-05       -76.38015440     93.246553    0.45008   -0.54905    0.01244    6      2.2     21.9     diag
    8      0.495D-06      0.962D-07       -76.38015440     93.246654    0.45009   -0.54907    0.01244    0      2.6     24.6     orth

 Final occupancy:   5

 !RKS STATE  1.1 Energy               -76.380154399217
 Nuclear energy                         9.17259115
 One-electron energy                 -122.94200990
 Two-electron energy                   46.62332716
 Density functional                    -9.23406281     PBEX=-8.90942895 PBEC=-0.32463386
 Virial quotient                       -1.00543426
 !RKS STATE  1.1 Dipole moment          0.45009003    -0.54906677     0.01244064
 Dipole moment /Debye                   1.14393981    -1.39549712     0.03161888

 Orbital energies:

         1.1          2.1          3.1          4.1          5.1          6.1          7.1
    -18.760125    -0.932545    -0.483709    -0.344075    -0.266362    -0.034330     0.017081


 HOMO      5.1    -0.266362 =      -7.2481eV
 LUMO      6.1    -0.034330 =      -0.9342eV
 LUMO-HOMO         0.232032 =       6.3139eV


 **********************************************************************************************************************************
 DATASETS  * FILE   NREC   LENGTH (MB)   RECORD NAMES
              1      19       31.31       500      610      700      900      950      970     1000      129      960     1100   
                                          VAR    BASINP    GEOM    SYMINP    ZMAT    AOBASIS   BASIS     P2S    ABASIS      S 
                                         1400     1410     1200     1210     1080     1600     1650     1700     1800   
                                           T        V       H0       H01     AOSYM     SMH    MOLCAS    OPER     GRID   

              2       7       11.25       700     1000      520     1800     2101     2201     2301   
                                         GEOM     BASIS   MCVARS    GRID      RKS      RKS      RKS  

 PROGRAMS   *        TOTAL   RKS-SCF       INT   RKS-SCF       INT   RKS-SCF       INT
 CPU TIMES  *        77.77     24.78      0.05     26.56      0.05     25.87      0.26
 REAL TIME  *        80.93 SEC
 DISK USED  *        44.66 MB (local),      178.63 MB (total)
 SF USED    *         0.41 MB
 GA USED    *         1.97 MB       (max)       1.97 MB       (current)
 **********************************************************************************************************************************
 SETTING EB_PBE         =       -76.38015440  AU                              
 SETTING E_AB_INT       =        -0.00186213  AU                              

 *** results in hartree
 E_AB_INT         =        -0.00186213 AU
 Molecular orbitals read from record     2301.2  Type=RKS/CANONICAL (state 1.1)
 Occupation numbers read from record     2301.2  Type=RKS/RHF (state 1.1)
 Orbital energies read from record       2301.2  Type=RKS/CANONICAL (state 1.1)
 Redundancy group numbers read from rec  2301.2  Type=RKS/RHF (state 1.1)

 RPBE/aug-cc-pVTZ energy=    -76.380154399217

         RKS-SCF         RKS-SCF         RKS-SCF
    -76.38015440    -76.38018501   -152.76220154
 **********************************************************************************************************************************
 Molpro calculation terminated
