
 Primary working directories    : /scratch/sirous/43093/molpro.w12LE7PzNP
 Secondary working directories  : /scratch/sirous/43093/molpro.w12LE7PzNP
 Wavefunction directory         : /scratch/sirous/43093/
 Main file repository           : /scratch/sirous/43093/molpro.w12LE7PzNP/

 id        : karlovklimes

 Nodes                      nprocs
 nc-12.cc.karlov.mff.cuni.cz    4

 Using customized tuning parameters: mindgm=1; mindgv=20; mindgc=4; mindgr=1; noblas=0; minvec=7
 default implementation of scratch files=sf  


 Variables initialized (934), CPU time= 0.01 sec
 ***,CH3C6H4CN+CF3CN+BF3
 memory,500,m
 gdirect
 gthresh,energy=1.d-8,twoint=1.d-19,oneint=1.d-19,zero=1.d-15,orbital=1.d-8,grid=1.d-8
 symmetry,nosym
 geomtyp=xyz
                                                                                 ! Geometry
 geometry={
 O1        -0.702196054    -0.056060256     0.009942262
 H1        -1.022193224    0.846775782     -0.011488714
 H2        0.257521062    0.042121496     0.005218999
 O2        2.067772248    0.027918025     0.000979062
 H3        2.444393863    -0.410462041     0.767103444
 H4        2.440036565    -0.448294950     -0.744423440
 }
 
 
 
 basis=avtz
 
 
 
                                                                                 ! Dimer Calculation
 {rks,pbe,accu=1.d-8;orbital,2101.2}
 eab_PBE=energy
 
 
                                                                                 !monomer A
 dummy,4,5,6;                                                                    ! NOW MONOMER B IS DUMMY
 {rks,pbe,accu=1.d-8;orbital,2201.2}
 ea_PBE=energy
                                                                                 !monomer B
 dummy,1,2,3;                                                                    !NOW MONOMER A IS DUMMY
 {rks,pbe,accu=1.d-8;orbital,2301.2}
 eb_PBE=energy
 
 E_AB_int=eab_PBE-ea_PBE-eb_PBE
 
 
 text,results in hartree
 show,E_AB_int
 
 Commands  initialized (763), CPU time= 0.01 sec, 617 directives.
 Default parameters read. Elapsed time= 0.21 sec

 Checking input...
 Passed
1


                                         ***  PROGRAM SYSTEM MOLPRO  ***
                                       Copyright, TTI GmbH Stuttgart, 2015
                                    Version 2019.2 linked Jun  8 2019 11:26:33


 **********************************************************************************************************************************
 LABEL *   CH3C6H4CN+CF3CN+BF3                                                           
  64 bit mpp version                                                                     DATE: 06-Oct-19          TIME: 17:50:10  
 **********************************************************************************************************************************

 SHA1:             8135a10abc80eafa5b3ae28ffc55be4890dc4c84
 **********************************************************************************************************************************

 THRESHOLDS:

 ZERO    =  1.00D-15  ONEINT  =  1.00D-19  TWOINT  =  1.00D-19  PREFAC  =  1.00D-14  XXXXXX  =  1.00D-09  EORDER  =  1.00D-04
 ENERGY  =  1.00D-08  ETEST   =  0.00D+00  EDENS   =  0.00D+00  THRDEDEF=  1.00D-06  GRADIENT=  1.00D-02  STEP    =  1.00D-03
 ORBITAL =  1.00D-08  CIVEC   =  1.00D-05  COEFF   =  1.00D-04  PRINTCI =  5.00D-02  PUNCHCI =  9.90D+01  OPTGRAD =  3.00D-04
 OPTENERG=  1.00D-06  OPTSTEP =  3.00D-04  THRGRAD =  1.00D-10  COMPRESS=  1.00D-11  VARMIN  =  1.00D-07  VARMAX  =  1.00D-03
 THRDOUB =  0.00D+00  THRDIV  =  1.00D-05  THRRED  =  1.00D-07  THRPSP  =  1.00D+00  THRDC   =  1.00D-10  THRCS   =  1.00D-10
 THRNRM  =  1.00D-08  THREQ   =  0.00D+00  THRDE   =  1.00D+00  THRREF  =  1.00D-05  SPARFAC =  1.00D+00  THRDLP  =  1.00D-07
 THRDIA  =  1.00D-10  THRDLS  =  1.00D-07  THRGPS  =  0.00D+00  THRKEX  =  0.00D+00  THRDIS  =  2.00D-01  THRVAR  =  1.00D-10
 THRLOC  =  1.00D-06  THRGAP  =  1.00D-06  THRLOCT = -1.00D+00  THRGAPT = -1.00D+00  THRORB  =  1.00D-06  THRMLTP =  0.00D+00
 THRCPQCI=  1.00D-10  KEXTA   =  0.00D+00  THRCOARS=  0.00D+00  SYMTOL  =  1.00D-06  GRADTOL =  1.00D-06  THROVL  =  1.00D-08
 THRORTH =  1.00D-08  GRID    =  1.00D-08  GRIDMAX =  1.00D-03  DTMAX   =  0.00D+00  THROCCDE=  1.00D-01  THROCCDE=  1.00D-01
 THRPRINT=  2.50D-01


 Variable memory set to  500000000 words,  buffer space 

 SETTING GEOMTYP        =    XYZ
 ZSYMEL=NOSYM

 SETTING BASIS          =    AVTZ


 Recomputing integrals since basis changed


 Using spherical harmonics

 Library entry O      S aug-cc-pVTZ          selected for orbital group  1
 Library entry O      P aug-cc-pVTZ          selected for orbital group  1
 Library entry O      D aug-cc-pVTZ          selected for orbital group  1
 Library entry O      F aug-cc-pVTZ          selected for orbital group  1
 Library entry H      S aug-cc-pVTZ          selected for orbital group  2
 Library entry H      P aug-cc-pVTZ          selected for orbital group  2
 Library entry H      D aug-cc-pVTZ          selected for orbital group  2


 PROGRAM * SEWARD (Integral evaluation for generally contracted gaussian basis sets)     Author: Roland Lindh, 1990

 Geometry written to block  1 of record 700


 Point group  C1  



 ATOMIC COORDINATES

 NR  ATOM    CHARGE       X              Y              Z

   1  O1      8.00   -1.326958228   -0.105938530    0.018788152
   2  H1      1.00   -1.931665240    1.600174317   -0.021710523
   3  H2      1.00    0.486644278    0.079598091    0.009862479
   4  O2      8.00    3.907523237    0.052757421    0.001850159
   5  H3      1.00    4.619234942   -0.775660842    1.449615418
   6  H4      1.00    4.611000842   -0.847154679   -1.406756422

 Bond lengths in Bohr (Angstrom)

 1-2  1.810561173  1-3  1.823090112  4-5  1.813514438  4-6  1.813531094
     ( 0.958107712)     ( 0.964737741)     ( 0.959670512)     ( 0.959679326)

 Bond angles

  2-1-3  103.66482512   5-4-6  103.95523303

 NUCLEAR CHARGE:                   20
 NUMBER OF PRIMITIVE AOS:         242
 NUMBER OF SYMMETRY AOS:          216
 NUMBER OF CONTRACTIONS:          184   (  184A   )
 NUMBER OF CORE ORBITALS:           2   (    2A   )
 NUMBER OF VALENCE ORBITALS:       12   (   12A   )


 NUCLEAR REPULSION ENERGY   37.54325907


 Eigenvalues of metric

         1 0.222E-03 0.250E-03 0.321E-03 0.334E-03 0.614E-03 0.939E-03 0.117E-02 0.139E-02


 OPERATOR DM      FOR CENTER  0  COORDINATES:    0.000000    0.000000    0.000000


 **********************************************************************************************************************************
 DATASETS  * FILE   NREC   LENGTH (MB)   RECORD NAMES
              1      18       31.31       500      610      700      900      950      970     1000      129      960     1100   
                                          VAR    BASINP    GEOM    SYMINP    ZMAT    AOBASIS   BASIS     P2S    ABASIS      S 
                                         1400     1410     1200     1210     1080     1600     1650     1700   
                                           T        V       H0       H01     AOSYM     SMH    MOLCAS    OPER   

 PROGRAMS   *        TOTAL       INT
 CPU TIMES  *         0.49      0.31
 REAL TIME  *         1.64 SEC
 DISK USED  *        31.70 MB (local),      126.82 MB (total)
 GA USED    *         0.00 MB       (max)       0.00 MB       (current)
 **********************************************************************************************************************************

 Density functional group PBE=PBEX+PBEC
 Functional: PBEX(Automatically generated (new) PBEX)                          Gradient terms: 1
 Functional: PBEC(Automatically generated (new) PBEC)                          Gradient terms: 1
 Use libxcgrid:  F
 Use grid at  1800.2

 Functional: PBEX                      Factor:  1.0000
 Functional: PBEC                      Factor:  1.0000

 Generated new metagrid on record  1800.2 with target accuracy 1.0D-08 and 59576 points in CPU time    0.2
 Computed new grid on record 1800.1 in CPU time    0.2
  150340 words reserved for DFT integration

 PROGRAM * RKS-SCF (Restricted closed shell Kohn-Sham)     Authors: W. Meyer, H.-J. Werner, P.J. Knowles, 1993

 NUMBER OF ELECTRONS:      10+   10-    SPACE SYMMETRY=1    SPIN SYMMETRY: Singlet 
 CONVERGENCE THRESHOLDS:    1.00E-04 (Density)    1.00E-08 (Energy)
 INTEGRAL THRESHOLDS:       1.00E-11 (Initial)    1.00E-11 (Final)
 MAX. NUMBER OF ITERATIONS:       60
 INTERPOLATION TYPE:            DIIS
 INTERPOLATION STEPS:              2 (START)      1 (STEP)
 LEVEL SHIFTS:                  0.00 (CLOSED)  0.00 (OPEN) 



 Use fine grid record 1800.2 for energy threshold  1.0D-08
 Orbital guess generated from atomic densities. Full valence occupancy:   14

 Molecular orbital dump at record        2101.2

 Initial occupancy:  10

 Direct Fock-matrix evaluation.        Authors: Roland Lindh & Martin Schuetz (1993/96)

 Integral Threshold:                  0.1D-10
 Threshold for writing integrals:     0.1D-06
 Prescreening on density matrix:        ON 
 Calculation will be performed fully direct        

 ITERATION   DDIFF            GRAD            ENERGY        2-EL.EN.            DIPOLE MOMENTS         DIIS   CPU(IT)  CPU(TOT)
    1      0.000D+00      0.000D+00      -152.61246370    234.459375    1.48399    0.07718   -0.00546    0      4.3      6.9     start
    2      0.000D+00      0.112D-01      -151.98700030    203.640760    0.17622   -0.23010    0.00532    1      3.0      9.9     diag
    3      0.207D-01      0.242D-01      -152.76614796    225.547920    1.16996    0.07290   -0.00460    2      3.0     12.9     diag
    4      0.142D-01      0.105D-02      -152.76586136    225.023138    1.14485   -0.03683   -0.00184    3      3.0     15.9     diag
    5      0.131D-02      0.128D-02      -152.76774592    224.867551    1.14432    0.02365   -0.00333    4      2.9     18.8     diag
    6      0.785D-03      0.106D-03      -152.76776077    224.935575    1.14245    0.02353   -0.00332    5      3.0     21.8     diag
    7      0.736D-04      0.268D-04      -152.76776171    224.949510    1.14412    0.02347   -0.00332    6      2.9     24.7     diag
    8      0.167D-04      0.289D-05      -152.76776172    224.950380    1.14407    0.02365   -0.00332    7      2.8     27.5     diag
    9      0.183D-05      0.449D-06      -152.76776172    224.950333    1.14408    0.02359   -0.00332    0      2.8     30.4     orth

 Final occupancy:  10

 !RKS STATE  1.1 Energy              -152.767761722638
 Nuclear energy                        37.54325907
 One-electron energy                 -284.29925660
 Two-electron energy                  112.47516645
 Density functional                   -18.48693064     PBEX=-17.83321542 PBEC= -0.65371522
 Virial quotient                       -1.00521966
 !RKS STATE  1.1 Dipole moment          1.14408406     0.02358898    -0.00332342
 Dipole moment /Debye                   2.90778117     0.05995327    -0.00844673

 Orbital energies:

         1.1          2.1          3.1          4.1          5.1          6.1          7.1          8.1          9.1         10.1
    -18.789844   -18.723534    -0.964104    -0.897690    -0.512404    -0.456193    -0.379157    -0.314512    -0.292118    -0.236214

        11.1         12.1
     -0.047213    -0.001359


 HOMO     10.1    -0.236214 =      -6.4277eV
 LUMO     11.1    -0.047213 =      -1.2847eV
 LUMO-HOMO         0.189002 =       5.1430eV


 **********************************************************************************************************************************
 DATASETS  * FILE   NREC   LENGTH (MB)   RECORD NAMES
              1      19       31.31       500      610      700      900      950      970     1000      129      960     1100   
                                          VAR    BASINP    GEOM    SYMINP    ZMAT    AOBASIS   BASIS     P2S    ABASIS      S 
                                         1400     1410     1200     1210     1080     1600     1650     1700     1800   
                                           T        V       H0       H01     AOSYM     SMH    MOLCAS    OPER     GRID   

              2       5        3.54       700     1000      520     1800     2101   
                                         GEOM     BASIS   MCVARS    GRID      RKS  

 PROGRAMS   *        TOTAL   RKS-SCF       INT
 CPU TIMES  *        31.07     30.58      0.31
 REAL TIME  *        33.59 SEC
 DISK USED  *        37.09 MB (local),      148.36 MB (total)
 SF USED    *         0.41 MB
 GA USED    *         1.97 MB       (max)       1.97 MB       (current)
 **********************************************************************************************************************************
 SETTING EAB_PBE        =      -152.76776172  AU                              

 Dummy atoms: O2  H3  H4


 Recomputing one-electron integrals since nuclear charges changed


 PROGRAM * SEWARD (Integral evaluation for generally contracted gaussian basis sets)     Author: Roland Lindh, 1990

 Geometry written to block  1 of record 700


 Point group  C1  



 ATOMIC COORDINATES

 NR  ATOM    CHARGE       X              Y              Z

   1  O1      8.00   -1.326958228   -0.105938530    0.018788152
   2  H1      1.00   -1.931665240    1.600174317   -0.021710523
   3  H2      1.00    0.486644278    0.079598091    0.009862479
   4  O2      0.00    3.907523237    0.052757421    0.001850159
   5  H3      0.00    4.619234942   -0.775660842    1.449615418
   6  H4      0.00    4.611000842   -0.847154679   -1.406756422

 Bond lengths in Bohr (Angstrom)

 1-2  1.810561173  1-3  1.823090112  4-5  1.813514438  4-6  1.813531094
     ( 0.958107712)     ( 0.964737741)     ( 0.959670512)     ( 0.959679326)

 Bond angles

  2-1-3  103.66482512   5-4-6  103.95523303

 NUCLEAR CHARGE:                   10
 NUMBER OF PRIMITIVE AOS:         242
 NUMBER OF SYMMETRY AOS:          216
 NUMBER OF CONTRACTIONS:          184   (  184A   )
 NUMBER OF CORE ORBITALS:           1   (    1A   )
 NUMBER OF VALENCE ORBITALS:        6   (    6A   )

 MOLECULE CHANGED: INITIALIZING OCCUPATION AND DUMP RECORDS


 NUCLEAR REPULSION ENERGY    9.15671413


 Eigenvalues of metric

         1 0.222E-03 0.250E-03 0.321E-03 0.334E-03 0.614E-03 0.939E-03 0.117E-02 0.139E-02


 OPERATOR DM      FOR CENTER  0  COORDINATES:    0.000000    0.000000    0.000000


 **********************************************************************************************************************************
 DATASETS  * FILE   NREC   LENGTH (MB)   RECORD NAMES
              1      19       31.31       500      610      700      900      950      970     1000      129      960     1100   
                                          VAR    BASINP    GEOM    SYMINP    ZMAT    AOBASIS   BASIS     P2S    ABASIS      S 
                                         1400     1410     1200     1210     1080     1600     1650     1700     1800   
                                           T        V       H0       H01     AOSYM     SMH    MOLCAS    OPER     GRID   

              2       5        3.54       700     1000      520     1800     2101   
                                         GEOM     BASIS   MCVARS    GRID      RKS  

 PROGRAMS   *        TOTAL       INT   RKS-SCF       INT
 CPU TIMES  *        31.13      0.05     30.58      0.31
 REAL TIME  *        33.72 SEC
 DISK USED  *        37.09 MB (local),      148.36 MB (total)
 SF USED    *         0.41 MB
 GA USED    *         1.97 MB       (max)       1.97 MB       (current)
 **********************************************************************************************************************************

 Density functional group PBE=PBEX+PBEC
 Functional: PBEX(Automatically generated (new) PBEX)                          Gradient terms: 1
 Functional: PBEC(Automatically generated (new) PBEC)                          Gradient terms: 1
 Use libxcgrid:  F
 Use grid at  1800.2

 Functional: PBEX                      Factor:  1.0000
 Functional: PBEC                      Factor:  1.0000

 Generated new metagrid on record  1800.2 with target accuracy 1.0D-08 and 59576 points in CPU time    0.2
 Computed new grid on record 1800.1 in CPU time    0.2
  150340 words reserved for DFT integration

 PROGRAM * RKS-SCF (Restricted closed shell Kohn-Sham)     Authors: W. Meyer, H.-J. Werner, P.J. Knowles, 1993

 NUMBER OF ELECTRONS:       5+    5-    SPACE SYMMETRY=1    SPIN SYMMETRY: Singlet 
 CONVERGENCE THRESHOLDS:    1.00E-04 (Density)    1.00E-08 (Energy)
 INTEGRAL THRESHOLDS:       1.00E-11 (Initial)    1.00E-11 (Final)
 MAX. NUMBER OF ITERATIONS:       60
 INTERPOLATION TYPE:            DIIS
 INTERPOLATION STEPS:              2 (START)      1 (STEP)
 LEVEL SHIFTS:                  0.00 (CLOSED)  0.00 (OPEN) 



 Use fine grid record 1800.2 for energy threshold  1.0D-08
 Orbital guess generated from atomic densities. Full valence occupancy:    7

 Molecular orbital dump at record        2201.2

 Initial occupancy:   5

 Direct Fock-matrix evaluation.        Authors: Roland Lindh & Martin Schuetz (1993/96)

 Integral Threshold:                  0.1D-10
 Threshold for writing integrals:     0.1D-06
 Prescreening on density matrix:        ON 
 Calculation will be performed fully direct        

 ITERATION   DDIFF            GRAD            ENERGY        2-EL.EN.            DIPOLE MOMENTS         DIIS   CPU(IT)  CPU(TOT)
    1      0.000D+00      0.000D+00       -76.29640523     98.097134    0.59549    0.92700   -0.02423    0      4.3      7.5     start
    2      0.000D+00      0.114D-01       -75.92385860     81.985303   -0.24771   -0.34116    0.00897    1      3.0     10.5     diag
    3      0.151D-01      0.257D-01       -76.37983289     93.541471    0.39765    0.62305   -0.01628    2      3.0     13.5     diag
    4      0.103D-01      0.649D-03       -76.38020813     93.157952    0.38192    0.60000   -0.01567    3      3.0     16.5     diag
    5      0.353D-03      0.149D-03       -76.38022123     93.206723    0.38120    0.59849   -0.01564    4      2.9     19.3     diag
    6      0.570D-04      0.345D-04       -76.38022206     93.217994    0.38241    0.60044   -0.01569    5      2.9     22.2     diag
    7      0.141D-04      0.114D-05       -76.38022206     93.218233    0.38238    0.60038   -0.01568    6      2.8     25.0     diag
    8      0.532D-06      0.104D-06       -76.38022206     93.218334    0.38239    0.60039   -0.01569    0      2.6     27.6     orth

 Final occupancy:   5

 !RKS STATE  1.1 Energy               -76.380222062647
 Nuclear energy                         9.15671413
 One-electron energy                 -122.91357227
 Two-electron energy                   46.60916716
 Density functional                    -9.23253109     PBEX=-8.90795867 PBEC=-0.32457242
 Virial quotient                       -1.00549201
 !RKS STATE  1.1 Dipole moment          0.38238591     0.60039310    -0.01568532
 Dipole moment /Debye                   0.97186437     1.52594709    -0.03986549

 Orbital energies:

         1.1          2.1          3.1          4.1          5.1          6.1          7.1
    -18.760439    -0.932001    -0.482566    -0.344487    -0.266260    -0.034709     0.015811


 HOMO      5.1    -0.266260 =      -7.2453eV
 LUMO      6.1    -0.034709 =      -0.9445eV
 LUMO-HOMO         0.231552 =       6.3008eV


 **********************************************************************************************************************************
 DATASETS  * FILE   NREC   LENGTH (MB)   RECORD NAMES
              1      19       31.31       500      610      700      900      950      970     1000      129      960     1100   
                                          VAR    BASINP    GEOM    SYMINP    ZMAT    AOBASIS   BASIS     P2S    ABASIS      S 
                                         1400     1410     1200     1210     1080     1600     1650     1700     1800   
                                           T        V       H0       H01     AOSYM     SMH    MOLCAS    OPER     GRID   

              2       6        7.39       700     1000      520     1800     2101     2201   
                                         GEOM     BASIS   MCVARS    GRID      RKS      RKS  

 PROGRAMS   *        TOTAL   RKS-SCF       INT   RKS-SCF       INT
 CPU TIMES  *        58.97     27.84      0.05     30.58      0.31
 REAL TIME  *        61.71 SEC
 DISK USED  *        40.81 MB (local),      163.22 MB (total)
 SF USED    *         0.41 MB
 GA USED    *         1.97 MB       (max)       1.97 MB       (current)
 **********************************************************************************************************************************
 SETTING EA_PBE         =       -76.38022206  AU                              

 Dummy atoms: O1  H1  H2


 Recomputing one-electron integrals since nuclear charges changed


 PROGRAM * SEWARD (Integral evaluation for generally contracted gaussian basis sets)     Author: Roland Lindh, 1990

 Geometry written to block  1 of record 700


 Point group  C1  



 ATOMIC COORDINATES

 NR  ATOM    CHARGE       X              Y              Z

   1  O1      0.00   -1.326958228   -0.105938530    0.018788152
   2  H1      0.00   -1.931665240    1.600174317   -0.021710523
   3  H2      0.00    0.486644278    0.079598091    0.009862479
   4  O2      8.00    3.907523237    0.052757421    0.001850159
   5  H3      1.00    4.619234942   -0.775660842    1.449615418
   6  H4      1.00    4.611000842   -0.847154679   -1.406756422

 Bond lengths in Bohr (Angstrom)

 1-2  1.810561173  1-3  1.823090112  4-5  1.813514438  4-6  1.813531094
     ( 0.958107712)     ( 0.964737741)     ( 0.959670512)     ( 0.959679326)

 Bond angles

  2-1-3  103.66482512   5-4-6  103.95523303

 NUCLEAR CHARGE:                   10
 NUMBER OF PRIMITIVE AOS:         242
 NUMBER OF SYMMETRY AOS:          216
 NUMBER OF CONTRACTIONS:          184   (  184A   )
 NUMBER OF CORE ORBITALS:           1   (    1A   )
 NUMBER OF VALENCE ORBITALS:        6   (    6A   )

 MOLECULE CHANGED: INITIALIZING OCCUPATION AND DUMP RECORDS


 NUCLEAR REPULSION ENERGY    9.17259115


 Eigenvalues of metric

         1 0.222E-03 0.250E-03 0.321E-03 0.334E-03 0.614E-03 0.939E-03 0.117E-02 0.139E-02


 OPERATOR DM      FOR CENTER  0  COORDINATES:    0.000000    0.000000    0.000000


 **********************************************************************************************************************************
 DATASETS  * FILE   NREC   LENGTH (MB)   RECORD NAMES
              1      19       31.31       500      610      700      900      950      970     1000      129      960     1100   
                                          VAR    BASINP    GEOM    SYMINP    ZMAT    AOBASIS   BASIS     P2S    ABASIS      S 
                                         1400     1410     1200     1210     1080     1600     1650     1700     1800   
                                           T        V       H0       H01     AOSYM     SMH    MOLCAS    OPER     GRID   

              2       6        7.39       700     1000      520     1800     2101     2201   
                                         GEOM     BASIS   MCVARS    GRID      RKS      RKS  

 PROGRAMS   *        TOTAL       INT   RKS-SCF       INT   RKS-SCF       INT
 CPU TIMES  *        59.03      0.05     27.84      0.05     30.58      0.31
 REAL TIME  *        61.84 SEC
 DISK USED  *        40.81 MB (local),      163.22 MB (total)
 SF USED    *         0.41 MB
 GA USED    *         1.97 MB       (max)       1.97 MB       (current)
 **********************************************************************************************************************************

 Density functional group PBE=PBEX+PBEC
 Functional: PBEX(Automatically generated (new) PBEX)                          Gradient terms: 1
 Functional: PBEC(Automatically generated (new) PBEC)                          Gradient terms: 1
 Use libxcgrid:  F
 Use grid at  1800.2

 Functional: PBEX                      Factor:  1.0000
 Functional: PBEC                      Factor:  1.0000

 Generated new metagrid on record  1800.2 with target accuracy 1.0D-08 and 59576 points in CPU time    0.2
 Computed new grid on record 1800.1 in CPU time    0.2
  150340 words reserved for DFT integration

 PROGRAM * RKS-SCF (Restricted closed shell Kohn-Sham)     Authors: W. Meyer, H.-J. Werner, P.J. Knowles, 1993

 NUMBER OF ELECTRONS:       5+    5-    SPACE SYMMETRY=1    SPIN SYMMETRY: Singlet 
 CONVERGENCE THRESHOLDS:    1.00E-04 (Density)    1.00E-08 (Energy)
 INTEGRAL THRESHOLDS:       1.00E-11 (Initial)    1.00E-11 (Final)
 MAX. NUMBER OF ITERATIONS:       60
 INTERPOLATION TYPE:            DIIS
 INTERPOLATION STEPS:              2 (START)      1 (STEP)
 LEVEL SHIFTS:                  0.00 (CLOSED)  0.00 (OPEN) 



 Use fine grid record 1800.2 for energy threshold  1.0D-08
 Orbital guess generated from atomic densities. Full valence occupancy:    7

 Molecular orbital dump at record        2301.2

 Initial occupancy:   5

 Direct Fock-matrix evaluation.        Authors: Roland Lindh & Martin Schuetz (1993/96)

 Integral Threshold:                  0.1D-10
 Threshold for writing integrals:     0.1D-06
 Prescreening on density matrix:        ON 
 Calculation will be performed fully direct        

 ITERATION   DDIFF            GRAD            ENERGY        2-EL.EN.            DIPOLE MOMENTS         DIIS   CPU(IT)  CPU(TOT)
    1      0.000D+00      0.000D+00       -76.29615696     98.136444    0.69458   -0.84791    0.01921    0      4.3      7.6     start
    2      0.000D+00      0.114D-01       -75.92274680     81.986564   -0.26397    0.33185   -0.00753    1      3.0     10.6     diag
    3      0.154D-01      0.258D-01       -76.37981413     93.574538    0.46693   -0.56940    0.01290    2      3.0     13.7     diag
    4      0.108D-01      0.655D-03       -76.38019698     93.187012    0.44907   -0.54756    0.01240    3      2.9     16.6     diag
    5      0.365D-03      0.150D-03       -76.38021027     93.236477    0.44806   -0.54631    0.01238    4      3.0     19.5     diag
    6      0.623D-04      0.345D-04       -76.38021110     93.247641    0.44950   -0.54808    0.01242    5      2.9     22.4     diag
    7      0.141D-04      0.117D-05       -76.38021110     93.247913    0.44946   -0.54803    0.01242    6      2.8     25.2     diag
    8      0.595D-06      0.985D-07       -76.38021110     93.248017    0.44947   -0.54804    0.01242    0      2.6     27.7     orth

 Final occupancy:   5

 !RKS STATE  1.1 Energy               -76.380211101195
 Nuclear energy                         9.17259115
 One-electron energy                 -122.94260120
 Two-electron energy                   46.62400833
 Density functional                    -9.23420939     PBEX=-8.90955901 PBEC=-0.32465038
 Virial quotient                       -1.00539919
 !RKS STATE  1.1 Dipole moment          0.44946712    -0.54803775     0.01241562
 Dipole moment /Debye                   1.14235665    -1.39288177     0.03155528

 Orbital energies:

         1.1          2.1          3.1          4.1          5.1          6.1          7.1
    -18.759981    -0.932494    -0.483667    -0.344048    -0.266343    -0.034525     0.017058


 HOMO      5.1    -0.266343 =      -7.2476eV
 LUMO      6.1    -0.034525 =      -0.9395eV
 LUMO-HOMO         0.231818 =       6.3081eV


 **********************************************************************************************************************************
 DATASETS  * FILE   NREC   LENGTH (MB)   RECORD NAMES
              1      19       31.31       500      610      700      900      950      970     1000      129      960     1100   
                                          VAR    BASINP    GEOM    SYMINP    ZMAT    AOBASIS   BASIS     P2S    ABASIS      S 
                                         1400     1410     1200     1210     1080     1600     1650     1700     1800   
                                           T        V       H0       H01     AOSYM     SMH    MOLCAS    OPER     GRID   

              2       7       11.25       700     1000      520     1800     2101     2201     2301   
                                         GEOM     BASIS   MCVARS    GRID      RKS      RKS      RKS  

 PROGRAMS   *        TOTAL   RKS-SCF       INT   RKS-SCF       INT   RKS-SCF       INT
 CPU TIMES  *        87.00     27.97      0.05     27.84      0.05     30.58      0.31
 REAL TIME  *        89.97 SEC
 DISK USED  *        44.66 MB (local),      178.63 MB (total)
 SF USED    *         0.41 MB
 GA USED    *         1.97 MB       (max)       1.97 MB       (current)
 **********************************************************************************************************************************
 SETTING EB_PBE         =       -76.38021110  AU                              
 SETTING E_AB_INT       =        -0.00732856  AU                              

 *** results in hartree
 E_AB_INT         =        -0.00732856 AU
 Molecular orbitals read from record     2301.2  Type=RKS/CANONICAL (state 1.1)
 Occupation numbers read from record     2301.2  Type=RKS/RHF (state 1.1)
 Orbital energies read from record       2301.2  Type=RKS/CANONICAL (state 1.1)
 Redundancy group numbers read from rec  2301.2  Type=RKS/RHF (state 1.1)

 RPBE/aug-cc-pVTZ energy=    -76.380211101195

         RKS-SCF         RKS-SCF         RKS-SCF
    -76.38021110    -76.38022206   -152.76776172
 **********************************************************************************************************************************
 Molpro calculation terminated
