
     Program PWSCF v.7.2 starts on 12Oct2023 at 14:40:20 

     This program is part of the open-source Quantum ESPRESSO suite
     for quantum simulation of materials; please cite
         "P. Giannozzi et al., J. Phys.:Condens. Matter 21 395502 (2009);
         "P. Giannozzi et al., J. Phys.:Condens. Matter 29 465901 (2017);
         "P. Giannozzi et al., J. Chem. Phys. 152 154105 (2020);
          URL http://www.quantum-espresso.org", 
     in publications or presentations arising from this work. More details at
     http://www.quantum-espresso.org/quote

     Parallel version (MPI), running on    32 processors

     MPI processes distributed on     1 nodes
     248847 MiB available memory on the printing compute node when the environment starts

     Reading input from CH4_H2O_O_H_contact_47_efficiency_dimer.in
Warning: card &CELL ignored
Warning: card / ignored

     Current dimensions of program PWSCF are:
     Max number of different atomic species (ntypx) = 10
     Max number of k-points (npk) =  40000
     Max angular momentum in pseudopotentials (lmaxx) =  4
     file H.pbe-kjpaw_psl.1.0.0.UPF: wavefunction(s)  1S renormalized
     file C.pbe-n-kjpaw_psl.1.0.0.UPF: wavefunction(s)  2S 2P renormalized
     file O.pbe-nl-kjpaw_psl.1.0.0.UPF: wavefunction(s)  2S 2P renormalized

     IMPORTANT: XC functional enforced from input :
     Exchange-correlation= PBE
                           (   1   4   3   4   0   0   0)
     Any further DFT definition will be discarded
     Please, verify this is what you really want


     gamma-point specific algorithms are used

     R & G space division:  proc/nbgrp/npool/nimage =      32
     Subspace diagonalization in iterative solution of the eigenvalue problem:
     a serial algorithm will be used


     Parallelization info
     --------------------
     sticks:   dense  smooth     PW     G-vecs:    dense   smooth      PW
     Min        6395    6395   1598              2177048  2177048  272114
     Max        6398    6398   1600              2177062  2177062  272124
     Sum      204693  204693  51189             69665707 69665707 8707803

     Using Slab Decomposition



     bravais-lattice index     =            0
     lattice parameter (alat)  =      66.1404  a.u.
     unit-cell volume          =  289334.8415 (a.u.)^3
     number of atoms/cell      =            8
     number of atomic types    =            3
     number of electrons       =        16.00
     number of Kohn-Sham states=            8
     kinetic-energy cutoff     =     147.0000  Ry
     charge density cutoff     =     588.0000  Ry
     scf convergence threshold =      1.0E-08
     mixing beta               =       0.7000
     number of iterations used =            8  plain     mixing
     Exchange-correlation= PBE
                           (   1   4   3   4   0   0   0)

     celldm(1)=  66.140414  celldm(2)=   0.000000  celldm(3)=   0.000000
     celldm(4)=   0.000000  celldm(5)=   0.000000  celldm(6)=   0.000000

     crystal axes: (cart. coord. in units of alat)
               a(1) = (   1.000000   0.000000   0.000000 )  
               a(2) = (   0.000000   1.000000   0.000000 )  
               a(3) = (   0.000000   0.000000   1.000000 )  

     reciprocal axes: (cart. coord. in units 2 pi/alat)
               b(1) = (  1.000000  0.000000  0.000000 )  
               b(2) = (  0.000000  1.000000  0.000000 )  
               b(3) = (  0.000000  0.000000  1.000000 )  


     PseudoPot. # 1 for H  read from file:
     /home/users/klimj2am/src/pslibrary.1.0.0/pbe/PSEUDOPOTENTIALS/H.pbe-kjpaw_psl.1.0.0.UPF
     MD5 check sum: 220281c0717fd894cece6904c624ceaa
     Pseudo is Projector augmented-wave, Zval =  1.0
     Generated using 'atomic' code by A. Dal Corso  v.7.2
     Shape of augmentation charge: PSQ
     Using radial grid of  929 points,  2 beta functions with: 
                l(1) =   0
                l(2) =   0
     Q(r) pseudized with 0 coefficients 


     PseudoPot. # 2 for C  read from file:
     /home/users/klimj2am/src/pslibrary.1.0.0/pbe/PSEUDOPOTENTIALS/C.pbe-n-kjpaw_psl.1.0.0.UPF
     MD5 check sum: 9d4797b4e2669f30c50dcc814f8da1dd
     Pseudo is Projector augmented-wave + core cor, Zval =  4.0
     Generated using 'atomic' code by A. Dal Corso  v.7.2
     Shape of augmentation charge: PSQ
     Using radial grid of 1073 points,  4 beta functions with: 
                l(1) =   0
                l(2) =   0
                l(3) =   1
                l(4) =   1
     Q(r) pseudized with 0 coefficients 


     PseudoPot. # 3 for O  read from file:
     /home/users/klimj2am/src/pslibrary.1.0.0/pbe/PSEUDOPOTENTIALS/O.pbe-nl-kjpaw_psl.1.0.0.UPF
     MD5 check sum: 3be12c084656f77eefcab7bec6207024
     Pseudo is Projector augmented-wave + core cor, Zval =  6.0
     Generated using 'atomic' code by A. Dal Corso  v.7.2
     Shape of augmentation charge: PSQ
     Using radial grid of 1095 points,  4 beta functions with: 
                l(1) =   0
                l(2) =   0
                l(3) =   1
                l(4) =   1
     Q(r) pseudized with 0 coefficients 


     atomic species   valence    mass     pseudopotential
        H              1.00     1.00800     H ( 1.00)
        C              4.00    12.01100     C ( 1.00)
        O              6.00    15.99900     O ( 1.00)

     No symmetry found



   Cartesian axes

     site n.     atom                  positions (alat units)
         1           H   tau(   1) = (  -0.0254719  -0.0415954   0.0147062  )
         2           H   tau(   2) = (   0.0254719  -0.0415954   0.0147062  )
         3           H   tau(   3) = (   0.0000000   0.0000000   0.0000000  )
         4           H   tau(   4) = (   0.0000000  -0.0415954  -0.0294124  )
         5           H   tau(   5) = (  -0.0111456   0.1503349  -0.0193047  )
         6           H   tau(   6) = (   0.0114500   0.1519743   0.0176206  )
         7           C   tau(   7) = (   0.0000000  -0.0311966   0.0000000  )
         8           O   tau(   8) = (   0.0000000   0.1342857   0.0000000  )

     number of k points=     1
                       cart. coord. in units 2pi/alat
        k(    1) = (   0.0000000   0.0000000   0.0000000), wk =   2.0000000

     Dense  grid: 34832854 G-vectors     FFT dimensions: ( 512, 512, 512)

     Estimated max dynamical RAM per process >       1.66 GB

     Estimated total dynamical RAM >      53.04 GB

     Initial potential from superposition of free atoms

     starting charge      15.9999, renormalised to      16.0000

     negative rho (up, down):  7.027E-04 0.000E+00
     Starting wfcs are   14 randomized atomic wfcs
     Checking if some PAW data can be deallocated... 

     total cpu time spent up to now is       43.4 secs

     Self-consistent Calculation

     iteration #  1     ecut=   147.00 Ry     beta= 0.70
     Davidson diagonalization with overlap
     ethr =  1.00E-02,  avg # of iterations =  2.0

     negative rho (up, down):  7.593E-04 0.000E+00

     total cpu time spent up to now is       56.1 secs

     total energy              =     -66.82033004 Ry
     estimated scf accuracy    <       1.16656905 Ry

     iteration #  2     ecut=   147.00 Ry     beta= 0.70
     Davidson diagonalization with overlap
     ethr =  7.29E-03,  avg # of iterations =  3.0

     negative rho (up, down):  6.413E-04 0.000E+00

     total cpu time spent up to now is       69.1 secs

     total energy              =     -67.11364866 Ry
     estimated scf accuracy    <       0.66902384 Ry

     iteration #  3     ecut=   147.00 Ry     beta= 0.70
     Davidson diagonalization with overlap
     ethr =  4.18E-03,  avg # of iterations =  2.0

     negative rho (up, down):  6.486E-04 0.000E+00

     total cpu time spent up to now is       80.9 secs

     total energy              =     -67.22448642 Ry
     estimated scf accuracy    <       0.02712956 Ry

     iteration #  4     ecut=   147.00 Ry     beta= 0.70
     Davidson diagonalization with overlap
     ethr =  1.70E-04,  avg # of iterations =  4.0

     negative rho (up, down):  6.780E-04 0.000E+00

     total cpu time spent up to now is       94.6 secs

     total energy              =     -67.23935486 Ry
     estimated scf accuracy    <       0.02043132 Ry

     iteration #  5     ecut=   147.00 Ry     beta= 0.70
     Davidson diagonalization with overlap
     ethr =  1.28E-04,  avg # of iterations =  2.0

     negative rho (up, down):  6.868E-04 0.000E+00

     total cpu time spent up to now is      106.5 secs

     total energy              =     -67.24241014 Ry
     estimated scf accuracy    <       0.00073238 Ry

     iteration #  6     ecut=   147.00 Ry     beta= 0.70
     Davidson diagonalization with overlap
     ethr =  4.58E-06,  avg # of iterations =  3.0

     negative rho (up, down):  6.878E-04 0.000E+00

     total cpu time spent up to now is      120.0 secs

     total energy              =     -67.24307503 Ry
     estimated scf accuracy    <       0.00021465 Ry

     iteration #  7     ecut=   147.00 Ry     beta= 0.70
     Davidson diagonalization with overlap
     ethr =  1.34E-06,  avg # of iterations =  2.0

     negative rho (up, down):  6.884E-04 0.000E+00

     total cpu time spent up to now is      131.9 secs

     total energy              =     -67.24306156 Ry
     estimated scf accuracy    <       0.00007063 Ry

     iteration #  8     ecut=   147.00 Ry     beta= 0.70
     Davidson diagonalization with overlap
     ethr =  4.41E-07,  avg # of iterations =  2.0

     negative rho (up, down):  6.875E-04 0.000E+00

     total cpu time spent up to now is      144.0 secs

     total energy              =     -67.24307115 Ry
     estimated scf accuracy    <       0.00000749 Ry

     iteration #  9     ecut=   147.00 Ry     beta= 0.70
     Davidson diagonalization with overlap
     ethr =  4.68E-08,  avg # of iterations =  3.0

     negative rho (up, down):  6.883E-04 0.000E+00

     total cpu time spent up to now is      157.8 secs

     total energy              =     -67.24307392 Ry
     estimated scf accuracy    <       0.00003617 Ry

     iteration # 10     ecut=   147.00 Ry     beta= 0.70
     Davidson diagonalization with overlap
     ethr =  4.68E-08,  avg # of iterations =  4.0

     negative rho (up, down):  6.883E-04 0.000E+00

     total cpu time spent up to now is      171.0 secs

     total energy              =     -67.24307551 Ry
     estimated scf accuracy    <       0.00000429 Ry

     iteration # 11     ecut=   147.00 Ry     beta= 0.70
     Davidson diagonalization with overlap
     ethr =  2.68E-08,  avg # of iterations =  2.0

     negative rho (up, down):  6.884E-04 0.000E+00

     total cpu time spent up to now is      183.5 secs

     total energy              =     -67.24307574 Ry
     estimated scf accuracy    <       0.00000050 Ry

     iteration # 12     ecut=   147.00 Ry     beta= 0.70
     Davidson diagonalization with overlap
     ethr =  3.13E-09,  avg # of iterations =  3.0

     negative rho (up, down):  6.883E-04 0.000E+00

     total cpu time spent up to now is      197.0 secs

     total energy              =     -67.24307593 Ry
     estimated scf accuracy    <       0.00000004 Ry

     iteration # 13     ecut=   147.00 Ry     beta= 0.70
     Davidson diagonalization with overlap
     ethr =  2.59E-10,  avg # of iterations =  2.0

     negative rho (up, down):  6.883E-04 0.000E+00

     total cpu time spent up to now is      209.5 secs

     total energy              =     -67.24307592 Ry
     estimated scf accuracy    <       0.00000006 Ry

     iteration # 14     ecut=   147.00 Ry     beta= 0.70
     Davidson diagonalization with overlap
     ethr =  2.59E-10,  avg # of iterations =  2.0

     negative rho (up, down):  6.883E-04 0.000E+00

     total cpu time spent up to now is      221.8 secs

     total energy              =     -67.24307592 Ry
     estimated scf accuracy    <       0.00000002 Ry

     iteration # 15     ecut=   147.00 Ry     beta= 0.70
     Davidson diagonalization with overlap
     ethr =  9.50E-11,  avg # of iterations =  3.0

     negative rho (up, down):  6.883E-04 0.000E+00

     total cpu time spent up to now is      233.5 secs

     End of self-consistent calculation

          k = 0.0000 0.0000 0.0000 (****** PWs)   bands (ev):

   -25.4229 -16.8824 -13.1661  -9.3241  -9.2827  -9.2819  -9.2554  -7.2540

     highest occupied level (ev):    -7.2540

!    total energy              =     -67.24307593 Ry
     total all-electron energy =      -233.854042 Ry
     estimated scf accuracy    <          1.2E-09 Ry

     The total energy is the sum of the following terms:
     one-electron contribution =    -142.55114977 Ry
     hartree contribution      =      73.87220897 Ry
     xc contribution           =     -16.36129142 Ry
     ewald contribution        =      33.55124193 Ry
     one-center paw contrib.   =     -15.75408564 Ry

     charge density inside the Wigner-Seitz cell:   16.00000000

     reference position (x0):         0.00125853    3.54864421   -0.00696181 bohr

     Dipole moments (with respect to x0):
     Elect   0.0065   0.7377  -0.0353 au (Ha),   0.0165   1.8751  -0.0897 Debye
     Ionic  -0.0000   0.0000   0.0000 au (Ha),  -0.0000   0.0000   0.0000 Debye
     Total   0.0065   0.7377  -0.0353 au (Ha),   0.0165   1.8751  -0.0897 Debye

     Electrons quadrupole moment       -551.95697683 a.u. (Ha)
          Ions quadrupole moment        526.91977084 a.u. (Ha)
         Total quadrupole moment        -25.03720599 a.u. (Ha)

     *********    MAKOV-PAYNE CORRECTION    *********

     Makov-Payne correction with Madelung constant =   2.8373

     Makov-Payne correction     0.00000000 Ry =  0.000 eV (1st order, 1/a0)
                                0.00000790 Ry =  0.000 eV (2nd order, 1/a0^3)
                                0.00000790 Ry =  0.000 eV (total)

!    Total+Makov-Payne energy  =     -67.24306803 Ry
     Corrected vacuum level    =       0.00490927 eV

     convergence has been achieved in  15 iterations

     Writing all to output data dir ./pwscf.save/

     init_run     :     39.90s CPU     42.72s WALL (       1 calls)
     electrons    :    164.16s CPU    193.00s WALL (       1 calls)

     Called by init_run:
     wfcinit      :      2.10s CPU      2.27s WALL (       1 calls)
     potinit      :      4.55s CPU      5.49s WALL (       1 calls)
     hinit0       :      2.36s CPU      2.78s WALL (       1 calls)

     Called by electrons:
     c_bands      :     51.65s CPU     54.73s WALL (      15 calls)
     sum_band     :     46.40s CPU     55.63s WALL (      15 calls)
     v_of_rho     :     34.77s CPU     42.25s WALL (      16 calls)
     newd         :     20.96s CPU     29.54s WALL (      16 calls)
     PAW_pot      :      0.22s CPU      0.23s WALL (      16 calls)
     mix_rho      :     10.87s CPU     11.46s WALL (      15 calls)

     Called by c_bands:
     init_us_2    :      0.99s CPU      1.04s WALL (      31 calls)
     init_us_2:cp :      0.98s CPU      1.04s WALL (      31 calls)
     regterg      :     50.46s CPU     53.52s WALL (      15 calls)

     Called by *egterg:
     rdiaghg      :      0.01s CPU      0.02s WALL (      54 calls)
     h_psi        :     45.78s CPU     48.90s WALL (      55 calls)
     s_psi        :      1.38s CPU      1.39s WALL (      55 calls)
     g_psi        :      0.16s CPU      0.16s WALL (      39 calls)

     Called by h_psi:
     h_psi:calbec :      1.13s CPU      1.17s WALL (      55 calls)
     vloc_psi     :     42.95s CPU     46.01s WALL (      55 calls)
     add_vuspsi   :      1.37s CPU      1.38s WALL (      55 calls)

     General routines
     calbec       :      1.43s CPU      1.47s WALL (      70 calls)
     fft          :     29.19s CPU     34.74s WALL (     144 calls)
     ffts         :      2.59s CPU      3.05s WALL (      15 calls)
     fftw         :     39.73s CPU     43.14s WALL (     436 calls)

     Parallel routines

     PWSCF        :   3m26.32s CPU   4m 0.53s WALL


   This run was terminated on:  14:44:20  12Oct2023            

=------------------------------------------------------------------------------=
   JOB DONE.
=------------------------------------------------------------------------------=
