
 Primary working directories    : /scratch/sirous/43926/molpro.iShaYtktnW
 Secondary working directories  : /scratch/sirous/43926/molpro.iShaYtktnW
 Wavefunction directory         : /scratch/sirous/43926/
 Main file repository           : /scratch/sirous/43926/molpro.iShaYtktnW/

 id        : karlovklimes

 Nodes                      nprocs
 nc-07.cc.karlov.mff.cuni.cz    4

 Using customized tuning parameters: mindgm=1; mindgv=20; mindgc=4; mindgr=1; noblas=0; minvec=7
 default implementation of scratch files=sf  


 Variables initialized (934), CPU time= 0.00 sec
 ***,CH3C6H4CN+CF3CN+BF3
 memory,500,m
 gdirect
 gthresh,energy=1.d-8,twoint=1.d-19,oneint=1.d-19,zero=1.d-15,orbital=1.d-8,grid=1.d-8
 symmetry,nosym
 geomtyp=xyz
                                                                                 ! Geometry
 geometry={
 O1        -0.636134928    -0.023282411     0.280599321
 H1        0.308097372    -0.047078748     0.076463691
 C1        -1.152065407    -1.311287783     0.015259549
 H2        -2.209945023    -1.296265392     0.263955863
 H3        -1.056610240    -1.592670859     -1.036190606
 H4        -0.674835746    -2.086272765     0.620511449
 O2        3.207917142    -0.161471187     -0.058543205
 H5        3.676706452    0.452913337     -0.628209159
 C2        3.716751068    -0.004452249     1.263174119
 H6        3.163181988    -0.692648676     1.893304999
 H7        4.775747170    -0.254891148     1.319897260
 H8        3.564311430    1.006241804     1.641066665
 }
 
 
 
 basis=avdz
 
 
 
                                                                                 ! Dimer Calculation
 {rks,pbe,accu=1.d-8;orbital,2101.2}
 eab_PBE=energy
 
 
                                                                                 !monomer A
 dummy,7,8,9,10,11,12;                                                           ! NOW MONOMER B IS DUMMY
 {rks,pbe,accu=1.d-8;orbital,2201.2}
 ea_PBE=energy
                                                                                 !monomer B
 dummy,1,2,3,4,5,6;                                                              !NOW MONOMER A IS DUMMY
 {rks,pbe,accu=1.d-8;orbital,2301.2}
 eb_PBE=energy
 
 E_AB_int=eab_PBE-ea_PBE-eb_PBE
 
 
 text,results in hartree
 show,E_AB_int
 
 Commands  initialized (763), CPU time= 0.01 sec, 617 directives.
 Default parameters read. Elapsed time= 0.20 sec

 Checking input...
 Passed
1


                                         ***  PROGRAM SYSTEM MOLPRO  ***
                                       Copyright, TTI GmbH Stuttgart, 2015
                                    Version 2019.2 linked Jun  8 2019 11:26:33


 **********************************************************************************************************************************
 LABEL *   CH3C6H4CN+CF3CN+BF3                                                           
  64 bit mpp version                                                                     DATE: 08-Oct-19          TIME: 18:55:36  
 **********************************************************************************************************************************

 SHA1:             8135a10abc80eafa5b3ae28ffc55be4890dc4c84
 **********************************************************************************************************************************

 THRESHOLDS:

 ZERO    =  1.00D-15  ONEINT  =  1.00D-19  TWOINT  =  1.00D-19  PREFAC  =  1.00D-14  XXXXXX  =  1.00D-09  EORDER  =  1.00D-04
 ENERGY  =  1.00D-08  ETEST   =  0.00D+00  EDENS   =  0.00D+00  THRDEDEF=  1.00D-06  GRADIENT=  1.00D-02  STEP    =  1.00D-03
 ORBITAL =  1.00D-08  CIVEC   =  1.00D-05  COEFF   =  1.00D-04  PRINTCI =  5.00D-02  PUNCHCI =  9.90D+01  OPTGRAD =  3.00D-04
 OPTENERG=  1.00D-06  OPTSTEP =  3.00D-04  THRGRAD =  1.00D-10  COMPRESS=  1.00D-11  VARMIN  =  1.00D-07  VARMAX  =  1.00D-03
 THRDOUB =  0.00D+00  THRDIV  =  1.00D-05  THRRED  =  1.00D-07  THRPSP  =  1.00D+00  THRDC   =  1.00D-10  THRCS   =  1.00D-10
 THRNRM  =  1.00D-08  THREQ   =  0.00D+00  THRDE   =  1.00D+00  THRREF  =  1.00D-05  SPARFAC =  1.00D+00  THRDLP  =  1.00D-07
 THRDIA  =  1.00D-10  THRDLS  =  1.00D-07  THRGPS  =  0.00D+00  THRKEX  =  0.00D+00  THRDIS  =  2.00D-01  THRVAR  =  1.00D-10
 THRLOC  =  1.00D-06  THRGAP  =  1.00D-06  THRLOCT = -1.00D+00  THRGAPT = -1.00D+00  THRORB  =  1.00D-06  THRMLTP =  0.00D+00
 THRCPQCI=  1.00D-10  KEXTA   =  0.00D+00  THRCOARS=  0.00D+00  SYMTOL  =  1.00D-06  GRADTOL =  1.00D-06  THROVL  =  1.00D-08
 THRORTH =  1.00D-08  GRID    =  1.00D-08  GRIDMAX =  1.00D-03  DTMAX   =  0.00D+00  THROCCDE=  1.00D-01  THROCCDE=  1.00D-01
 THRPRINT=  2.50D-01


 Variable memory set to  500000000 words,  buffer space 

 SETTING GEOMTYP        =    XYZ
 ZSYMEL=NOSYM

 SETTING BASIS          =    AVDZ


 Recomputing integrals since basis changed


 Using spherical harmonics

 Library entry O      S aug-cc-pVDZ          selected for orbital group  1
 Library entry O      P aug-cc-pVDZ          selected for orbital group  1
 Library entry O      D aug-cc-pVDZ          selected for orbital group  1
 Library entry H      S aug-cc-pVDZ          selected for orbital group  2
 Library entry H      P aug-cc-pVDZ          selected for orbital group  2
 Library entry C      S aug-cc-pVDZ          selected for orbital group  3
 Library entry C      P aug-cc-pVDZ          selected for orbital group  3
 Library entry C      D aug-cc-pVDZ          selected for orbital group  3


 PROGRAM * SEWARD (Integral evaluation for generally contracted gaussian basis sets)     Author: Roland Lindh, 1990

 Geometry written to block  1 of record 700


 Point group  C1  



 ATOMIC COORDINATES

 NR  ATOM    CHARGE       X              Y              Z

   1  O1      8.00   -1.202120792   -0.043997380    0.530255867
   2  H1      1.00    0.582219653   -0.088965940    0.144495434
   3  C1      6.00   -2.177088097   -2.477974780    0.028836368
   4  H2      1.00   -4.176190844   -2.449586576    0.498804290
   5  H3      1.00   -1.996703974   -3.009711730   -1.958116458
   6  H4      1.00   -1.275254739   -3.942484147    1.172596696
   7  O2      8.00    6.062084829   -0.305136320   -0.110630624
   8  H5      1.00    6.947968235    0.855882165   -1.187143259
   9  C2      6.00    7.023641592   -0.008413531    2.387053133
  10  H6      1.00    5.977547639   -1.308916298    3.577827918
  11  H7      1.00    9.024854191   -0.481674461    2.494244334
  12  H8      1.00    6.735572425    1.901521425    3.101166549

 Bond lengths in Bohr (Angstrom)

 1-2  1.826117221  1-3  2.669499718  3-4  2.053798318  3-5  2.064767336  3-6  2.065497223
     ( 0.966339618)     ( 1.412638415)     ( 1.086823266)     ( 1.092627820)     ( 1.093014059)

  7- 8  1.814285751   7- 9  2.692779228   9-10  2.050259641   9-11  2.059203179   9-12  2.059318662
       ( 0.960078674)       ( 1.424957401)       ( 1.084950678)       ( 1.089683395)       ( 1.089744506)

 Bond angles

  1-3-4  107.45243548   1-3-5  112.56023931   1-3-6  112.51984286   2-1-3  107.14181275

  4- 3- 5  107.98697639   4- 3- 6  107.94343217   5- 3- 6  108.18798930   7- 9-10  106.65583749

  7- 9-11  111.71494436   7- 9-12  111.95602748   8- 7- 9  107.78761842  10- 9-11  108.65333210

 10- 9-12  108.39236686  11- 9-12  109.33255661

 NUCLEAR CHARGE:                   36
 NUMBER OF PRIMITIVE AOS:         236
 NUMBER OF SYMMETRY AOS:          228
 NUMBER OF CONTRACTIONS:          164   (  164A   )
 NUMBER OF CORE ORBITALS:           4   (    4A   )
 NUMBER OF VALENCE ORBITALS:       24   (   24A   )


 NUCLEAR REPULSION ENERGY  118.93269002


 Eigenvalues of metric

         1 0.511E-03 0.590E-03 0.665E-03 0.715E-03 0.756E-03 0.783E-03 0.787E-03 0.938E-03


 OPERATOR DM      FOR CENTER  0  COORDINATES:    0.000000    0.000000    0.000000


 **********************************************************************************************************************************
 DATASETS  * FILE   NREC   LENGTH (MB)   RECORD NAMES
              1      18       31.16       500      610      700      900      950      970     1000      129      960     1100   
                                          VAR    BASINP    GEOM    SYMINP    ZMAT    AOBASIS   BASIS     P2S    ABASIS      S 
                                         1400     1410     1200     1210     1080     1600     1650     1700   
                                           T        V       H0       H01     AOSYM     SMH    MOLCAS    OPER   

 PROGRAMS   *        TOTAL       INT
 CPU TIMES  *         0.53      0.36
 REAL TIME  *         1.85 SEC
 DISK USED  *        31.66 MB (local),      126.63 MB (total)
 GA USED    *         0.00 MB       (max)       0.00 MB       (current)
 **********************************************************************************************************************************

 Density functional group PBE=PBEX+PBEC
 Functional: PBEX(Automatically generated (new) PBEX)                          Gradient terms: 1
 Functional: PBEC(Automatically generated (new) PBEC)                          Gradient terms: 1
 Use libxcgrid:  F
 Use grid at  1800.2

 Functional: PBEX                      Factor:  1.0000
 Functional: PBEC                      Factor:  1.0000

 Generated new metagrid on record  1800.2 with target accuracy 1.0D-08 and 98976 points in CPU time    0.3
 Computed new grid on record 1800.1 in CPU time    0.4
  134568 words reserved for DFT integration

 PROGRAM * RKS-SCF (Restricted closed shell Kohn-Sham)     Authors: W. Meyer, H.-J. Werner, P.J. Knowles, 1993

 NUMBER OF ELECTRONS:      18+   18-    SPACE SYMMETRY=1    SPIN SYMMETRY: Singlet 
 CONVERGENCE THRESHOLDS:    1.00E-04 (Density)    1.00E-08 (Energy)
 INTEGRAL THRESHOLDS:       1.00E-11 (Initial)    1.00E-11 (Final)
 MAX. NUMBER OF ITERATIONS:       60
 INTERPOLATION TYPE:            DIIS
 INTERPOLATION STEPS:              2 (START)      1 (STEP)
 LEVEL SHIFTS:                  0.00 (CLOSED)  0.00 (OPEN) 



 Use fine grid record 1800.2 for energy threshold  1.0D-08
 Orbital guess generated from atomic densities. Full valence occupancy:   28

 Molecular orbital dump at record        2101.2

 Initial occupancy:  18

 Direct Fock-matrix evaluation.        Authors: Roland Lindh & Martin Schuetz (1993/96)

 Integral Threshold:                  0.1D-10
 Threshold for writing integrals:     0.1D-06
 Prescreening on density matrix:        ON 
 Calculation will be performed fully direct        

 ITERATION   DDIFF            GRAD            ENERGY        2-EL.EN.            DIPOLE MOMENTS         DIIS   CPU(IT)  CPU(TOT)
    1      0.000D+00      0.000D+00      -231.02674336    474.376747    1.30091   -0.06529   -0.12945    0      3.9      6.4     start
    2      0.000D+00      0.820D-02      -230.65875830    438.401614    0.12223    0.03275    0.13606    1      2.7      9.1     diag
    3      0.254D-01      0.152D-01      -231.18923202    462.245483    0.95880   -0.11840    0.03098    2      2.7     11.8     diag
    4      0.156D-01      0.213D-02      -231.19861528    461.729677    0.90954   -0.04268   -0.03531    3      2.6     14.4     diag
    5      0.268D-02      0.597D-03      -231.19938471    461.528892    0.91604   -0.04825   -0.02616    4      2.6     17.0     diag
    6      0.682D-03      0.934D-04      -231.19940422    461.573459    0.91307   -0.05285   -0.02515    5      2.6     19.6     diag
    7      0.880D-04      0.194D-04      -231.19940464    461.583061    0.91438   -0.05068   -0.02396    6      2.6     22.2     diag
    8      0.259D-04      0.134D-04      -231.19940500    461.588043    0.91457   -0.05169   -0.02466    7      2.5     24.7     diag
    9      0.121D-04      0.119D-05      -231.19940500    461.588604    0.91443   -0.05167   -0.02461    8      2.5     27.2     diag
   10      0.207D-05      0.451D-06      -231.19940500    461.588711    0.91443   -0.05167   -0.02462    0      2.5     29.7     orth

 Final occupancy:  18

 !RKS STATE  1.1 Energy              -231.199404998933
 Nuclear energy                       118.93269002
 One-electron energy                 -550.22649051
 Two-electron energy                  230.79435536
 Density functional                   -30.69995987     PBEX=-29.53209790 PBEC= -1.16786197
 Virial quotient                       -1.00576025
 !RKS STATE  1.1 Dipole moment          0.91442900    -0.05167012    -0.02462119
 Dipole moment /Debye                   2.32409447    -0.13132373    -0.06257674

 Orbital energies:

         1.1          2.1          3.1          4.1          5.1          6.1          7.1          8.1          9.1         10.1
    -18.785979   -18.764462    -9.940486    -9.924165    -0.949318    -0.930454    -0.630150    -0.611069    -0.469894    -0.451460

        11.1         12.1         13.1         14.1         15.1         16.1         17.1         18.1         19.1         20.1
     -0.400037    -0.390254    -0.382071    -0.372875    -0.305686    -0.285050    -0.241257    -0.220060    -0.034197    -0.006543


 HOMO     18.1    -0.220060 =      -5.9881eV
 LUMO     19.1    -0.034197 =      -0.9305eV
 LUMO-HOMO         0.185864 =       5.0576eV


 **********************************************************************************************************************************
 DATASETS  * FILE   NREC   LENGTH (MB)   RECORD NAMES
              1      19       31.16       500      610      700      900      950      970     1000      129      960     1100   
                                          VAR    BASINP    GEOM    SYMINP    ZMAT    AOBASIS   BASIS     P2S    ABASIS      S 
                                         1400     1410     1200     1210     1080     1600     1650     1700     1800   
                                           T        V       H0       H01     AOSYM     SMH    MOLCAS    OPER     GRID   

              2       5        3.51       700     1000      520     1800     2101   
                                         GEOM     BASIS   MCVARS    GRID      RKS  

 PROGRAMS   *        TOTAL   RKS-SCF       INT
 CPU TIMES  *        30.69     30.16      0.36
 REAL TIME  *        33.70 SEC
 DISK USED  *        36.57 MB (local),      146.28 MB (total)
 SF USED    *         0.32 MB
 GA USED    *         3.23 MB       (max)       3.23 MB       (current)
 **********************************************************************************************************************************
 SETTING EAB_PBE        =      -231.19940500  AU                              

 Dummy atoms: O2  H5  C2  H6  H7  H8


 Recomputing one-electron integrals since nuclear charges changed


 PROGRAM * SEWARD (Integral evaluation for generally contracted gaussian basis sets)     Author: Roland Lindh, 1990

 Geometry written to block  1 of record 700


 Point group  C1  



 ATOMIC COORDINATES

 NR  ATOM    CHARGE       X              Y              Z

   1  O1      8.00   -1.202120792   -0.043997380    0.530255867
   2  H1      1.00    0.582219653   -0.088965940    0.144495434
   3  C1      6.00   -2.177088097   -2.477974780    0.028836368
   4  H2      1.00   -4.176190844   -2.449586576    0.498804290
   5  H3      1.00   -1.996703974   -3.009711730   -1.958116458
   6  H4      1.00   -1.275254739   -3.942484147    1.172596696
   7  O2      0.00    6.062084829   -0.305136320   -0.110630624
   8  H5      0.00    6.947968235    0.855882165   -1.187143259
   9  C2      0.00    7.023641592   -0.008413531    2.387053133
  10  H6      0.00    5.977547639   -1.308916298    3.577827918
  11  H7      0.00    9.024854191   -0.481674461    2.494244334
  12  H8      0.00    6.735572425    1.901521425    3.101166549

 Bond lengths in Bohr (Angstrom)

 1-2  1.826117221  1-3  2.669499718  3-4  2.053798318  3-5  2.064767336  3-6  2.065497223
     ( 0.966339618)     ( 1.412638415)     ( 1.086823266)     ( 1.092627820)     ( 1.093014059)

  7- 8  1.814285751   7- 9  2.692779228   9-10  2.050259641   9-11  2.059203179   9-12  2.059318662
       ( 0.960078674)       ( 1.424957401)       ( 1.084950678)       ( 1.089683395)       ( 1.089744506)

 Bond angles

  1-3-4  107.45243548   1-3-5  112.56023931   1-3-6  112.51984286   2-1-3  107.14181275

  4- 3- 5  107.98697639   4- 3- 6  107.94343217   5- 3- 6  108.18798930   7- 9-10  106.65583749

  7- 9-11  111.71494436   7- 9-12  111.95602748   8- 7- 9  107.78761842  10- 9-11  108.65333210

 10- 9-12  108.39236686  11- 9-12  109.33255661

 NUCLEAR CHARGE:                   18
 NUMBER OF PRIMITIVE AOS:         236
 NUMBER OF SYMMETRY AOS:          228
 NUMBER OF CONTRACTIONS:          164   (  164A   )
 NUMBER OF CORE ORBITALS:           2   (    2A   )
 NUMBER OF VALENCE ORBITALS:       12   (   12A   )

 MOLECULE CHANGED: INITIALIZING OCCUPATION AND DUMP RECORDS


 NUCLEAR REPULSION ENERGY   40.41731286


 Eigenvalues of metric

         1 0.511E-03 0.590E-03 0.665E-03 0.715E-03 0.756E-03 0.783E-03 0.787E-03 0.938E-03


 OPERATOR DM      FOR CENTER  0  COORDINATES:    0.000000    0.000000    0.000000


 **********************************************************************************************************************************
 DATASETS  * FILE   NREC   LENGTH (MB)   RECORD NAMES
              1      19       31.16       500      610      700      900      950      970     1000      129      960     1100   
                                          VAR    BASINP    GEOM    SYMINP    ZMAT    AOBASIS   BASIS     P2S    ABASIS      S 
                                         1400     1410     1200     1210     1080     1600     1650     1700     1800   
                                           T        V       H0       H01     AOSYM     SMH    MOLCAS    OPER     GRID   

              2       5        3.51       700     1000      520     1800     2101   
                                         GEOM     BASIS   MCVARS    GRID      RKS  

 PROGRAMS   *        TOTAL       INT   RKS-SCF       INT
 CPU TIMES  *        30.77      0.07     30.16      0.36
 REAL TIME  *        33.92 SEC
 DISK USED  *        36.57 MB (local),      146.28 MB (total)
 SF USED    *         0.32 MB
 GA USED    *         3.23 MB       (max)       3.23 MB       (current)
 **********************************************************************************************************************************

 Density functional group PBE=PBEX+PBEC
 Functional: PBEX(Automatically generated (new) PBEX)                          Gradient terms: 1
 Functional: PBEC(Automatically generated (new) PBEC)                          Gradient terms: 1
 Use libxcgrid:  F
 Use grid at  1800.2

 Functional: PBEX                      Factor:  1.0000
 Functional: PBEC                      Factor:  1.0000

 Generated new metagrid on record  1800.2 with target accuracy 1.0D-08 and 98976 points in CPU time    0.3
 Computed new grid on record 1800.1 in CPU time    0.4
  134568 words reserved for DFT integration

 PROGRAM * RKS-SCF (Restricted closed shell Kohn-Sham)     Authors: W. Meyer, H.-J. Werner, P.J. Knowles, 1993

 NUMBER OF ELECTRONS:       9+    9-    SPACE SYMMETRY=1    SPIN SYMMETRY: Singlet 
 CONVERGENCE THRESHOLDS:    1.00E-04 (Density)    1.00E-08 (Energy)
 INTEGRAL THRESHOLDS:       1.00E-11 (Initial)    1.00E-11 (Final)
 MAX. NUMBER OF ITERATIONS:       60
 INTERPOLATION TYPE:            DIIS
 INTERPOLATION STEPS:              2 (START)      1 (STEP)
 LEVEL SHIFTS:                  0.00 (CLOSED)  0.00 (OPEN) 



 Use fine grid record 1800.2 for energy threshold  1.0D-08
 Orbital guess generated from atomic densities. Full valence occupancy:   14

 Molecular orbital dump at record        2201.2

 Initial occupancy:   9

 Direct Fock-matrix evaluation.        Authors: Roland Lindh & Martin Schuetz (1993/96)

 Integral Threshold:                  0.1D-10
 Threshold for writing integrals:     0.1D-06
 Prescreening on density matrix:        ON 
 Calculation will be performed fully direct        

 ITERATION   DDIFF            GRAD            ENERGY        2-EL.EN.            DIPOLE MOMENTS         DIIS   CPU(IT)  CPU(TOT)
    1      0.000D+00      0.000D+00      -115.50976605    199.090202    0.58581   -0.70873   -0.32633    0      3.8      6.9     start
    2      0.000D+00      0.803D-02      -115.31403722    180.922258   -0.15623    0.10336    0.06410    1      2.7      9.6     diag
    3      0.180D-01      0.151D-01      -115.59257994    192.955858    0.34209   -0.58461   -0.24022    2      2.6     12.2     diag
    4      0.110D-01      0.211D-02      -115.59747527    192.738158    0.34801   -0.46746   -0.20703    3      2.6     14.9     diag
    5      0.194D-02      0.595D-03      -115.59787861    192.633507    0.34624   -0.47560   -0.20912    4      2.6     17.4     diag
    6      0.492D-03      0.929D-04      -115.59788906    192.657248    0.34415   -0.47817   -0.20941    5      2.6     20.0     diag
    7      0.611D-04      0.119D-04      -115.59788923    192.664964    0.34504   -0.47886   -0.20981    6      2.5     22.5     diag
    8      0.107D-04      0.131D-05      -115.59788923    192.665435    0.34481   -0.47879   -0.20973    7      2.4     24.9     diag
    9      0.174D-05      0.264D-06      -115.59788923    192.665460    0.34488   -0.47881   -0.20975    0      2.4     27.2     orth

 Final occupancy:   9

 !RKS STATE  1.1 Energy              -115.597889233424
 Nuclear energy                        40.41731286
 One-electron energy                 -236.99839674
 Two-electron energy                   96.33273013
 Density functional                   -15.34953548     PBEX=-14.76556722 PBEC= -0.58396826
 Virial quotient                       -1.00572030
 !RKS STATE  1.1 Dipole moment          0.34488014    -0.47880769    -0.20975323
 Dipole moment /Debye                   0.87654046    -1.21692805    -0.53310461

 Orbital energies:

         1.1          2.1          3.1          4.1          5.1          6.1          7.1          8.1          9.1         10.1
    -18.776218    -9.933020    -0.942018    -0.620721    -0.462592    -0.391324    -0.382413    -0.295415    -0.230433    -0.025074

        11.1
     -0.000668


 HOMO      9.1    -0.230433 =      -6.2704eV
 LUMO     10.1    -0.025074 =      -0.6823eV
 LUMO-HOMO         0.205359 =       5.5881eV


 **********************************************************************************************************************************
 DATASETS  * FILE   NREC   LENGTH (MB)   RECORD NAMES
              1      19       31.16       500      610      700      900      950      970     1000      129      960     1100   
                                          VAR    BASINP    GEOM    SYMINP    ZMAT    AOBASIS   BASIS     P2S    ABASIS      S 
                                         1400     1410     1200     1210     1080     1600     1650     1700     1800   
                                           T        V       H0       H01     AOSYM     SMH    MOLCAS    OPER     GRID   

              2       6        7.08       700     1000      520     1800     2101     2201   
                                         GEOM     BASIS   MCVARS    GRID      RKS      RKS  

 PROGRAMS   *        TOTAL   RKS-SCF       INT   RKS-SCF       INT
 CPU TIMES  *        58.39     27.62      0.07     30.16      0.36
 REAL TIME  *        62.05 SEC
 DISK USED  *        40.04 MB (local),      160.15 MB (total)
 SF USED    *         0.32 MB
 GA USED    *         3.23 MB       (max)       3.23 MB       (current)
 **********************************************************************************************************************************
 SETTING EA_PBE         =      -115.59788923  AU                              

 Dummy atoms: O1  H1  C1  H2  H3  H4


 Recomputing one-electron integrals since nuclear charges changed


 PROGRAM * SEWARD (Integral evaluation for generally contracted gaussian basis sets)     Author: Roland Lindh, 1990

 Geometry written to block  1 of record 700


 Point group  C1  



 ATOMIC COORDINATES

 NR  ATOM    CHARGE       X              Y              Z

   1  O1      0.00   -1.202120792   -0.043997380    0.530255867
   2  H1      0.00    0.582219653   -0.088965940    0.144495434
   3  C1      0.00   -2.177088097   -2.477974780    0.028836368
   4  H2      0.00   -4.176190844   -2.449586576    0.498804290
   5  H3      0.00   -1.996703974   -3.009711730   -1.958116458
   6  H4      0.00   -1.275254739   -3.942484147    1.172596696
   7  O2      8.00    6.062084829   -0.305136320   -0.110630624
   8  H5      1.00    6.947968235    0.855882165   -1.187143259
   9  C2      6.00    7.023641592   -0.008413531    2.387053133
  10  H6      1.00    5.977547639   -1.308916298    3.577827918
  11  H7      1.00    9.024854191   -0.481674461    2.494244334
  12  H8      1.00    6.735572425    1.901521425    3.101166549

 Bond lengths in Bohr (Angstrom)

 1-2  1.826117221  1-3  2.669499718  3-4  2.053798318  3-5  2.064767336  3-6  2.065497223
     ( 0.966339618)     ( 1.412638415)     ( 1.086823266)     ( 1.092627820)     ( 1.093014059)

  7- 8  1.814285751   7- 9  2.692779228   9-10  2.050259641   9-11  2.059203179   9-12  2.059318662
       ( 0.960078674)       ( 1.424957401)       ( 1.084950678)       ( 1.089683395)       ( 1.089744506)

 Bond angles

  1-3-4  107.45243548   1-3-5  112.56023931   1-3-6  112.51984286   2-1-3  107.14181275

  4- 3- 5  107.98697639   4- 3- 6  107.94343217   5- 3- 6  108.18798930   7- 9-10  106.65583749

  7- 9-11  111.71494436   7- 9-12  111.95602748   8- 7- 9  107.78761842  10- 9-11  108.65333210

 10- 9-12  108.39236686  11- 9-12  109.33255661

 NUCLEAR CHARGE:                   18
 NUMBER OF PRIMITIVE AOS:         236
 NUMBER OF SYMMETRY AOS:          228
 NUMBER OF CONTRACTIONS:          164   (  164A   )
 NUMBER OF CORE ORBITALS:           2   (    2A   )
 NUMBER OF VALENCE ORBITALS:       12   (   12A   )

 MOLECULE CHANGED: INITIALIZING OCCUPATION AND DUMP RECORDS


 NUCLEAR REPULSION ENERGY   40.29806389


 Eigenvalues of metric

         1 0.511E-03 0.590E-03 0.665E-03 0.715E-03 0.756E-03 0.783E-03 0.787E-03 0.938E-03


 OPERATOR DM      FOR CENTER  0  COORDINATES:    0.000000    0.000000    0.000000


 **********************************************************************************************************************************
 DATASETS  * FILE   NREC   LENGTH (MB)   RECORD NAMES
              1      19       31.16       500      610      700      900      950      970     1000      129      960     1100   
                                          VAR    BASINP    GEOM    SYMINP    ZMAT    AOBASIS   BASIS     P2S    ABASIS      S 
                                         1400     1410     1200     1210     1080     1600     1650     1700     1800   
                                           T        V       H0       H01     AOSYM     SMH    MOLCAS    OPER     GRID   

              2       6        7.08       700     1000      520     1800     2101     2201   
                                         GEOM     BASIS   MCVARS    GRID      RKS      RKS  

 PROGRAMS   *        TOTAL       INT   RKS-SCF       INT   RKS-SCF       INT
 CPU TIMES  *        58.47      0.07     27.62      0.07     30.16      0.36
 REAL TIME  *        62.26 SEC
 DISK USED  *        40.04 MB (local),      160.15 MB (total)
 SF USED    *         0.32 MB
 GA USED    *         3.23 MB       (max)       3.23 MB       (current)
 **********************************************************************************************************************************

 Density functional group PBE=PBEX+PBEC
 Functional: PBEX(Automatically generated (new) PBEX)                          Gradient terms: 1
 Functional: PBEC(Automatically generated (new) PBEC)                          Gradient terms: 1
 Use libxcgrid:  F
 Use grid at  1800.2

 Functional: PBEX                      Factor:  1.0000
 Functional: PBEC                      Factor:  1.0000

 Generated new metagrid on record  1800.2 with target accuracy 1.0D-08 and 98976 points in CPU time    0.3
 Computed new grid on record 1800.1 in CPU time    0.4
  134568 words reserved for DFT integration

 PROGRAM * RKS-SCF (Restricted closed shell Kohn-Sham)     Authors: W. Meyer, H.-J. Werner, P.J. Knowles, 1993

 NUMBER OF ELECTRONS:       9+    9-    SPACE SYMMETRY=1    SPIN SYMMETRY: Singlet 
 CONVERGENCE THRESHOLDS:    1.00E-04 (Density)    1.00E-08 (Energy)
 INTEGRAL THRESHOLDS:       1.00E-11 (Initial)    1.00E-11 (Final)
 MAX. NUMBER OF ITERATIONS:       60
 INTERPOLATION TYPE:            DIIS
 INTERPOLATION STEPS:              2 (START)      1 (STEP)
 LEVEL SHIFTS:                  0.00 (CLOSED)  0.00 (OPEN) 



 Use fine grid record 1800.2 for energy threshold  1.0D-08
 Orbital guess generated from atomic densities. Full valence occupancy:   14

 Molecular orbital dump at record        2301.2

 Initial occupancy:   9

 Direct Fock-matrix evaluation.        Authors: Roland Lindh & Martin Schuetz (1993/96)

 Integral Threshold:                  0.1D-10
 Threshold for writing integrals:     0.1D-06
 Prescreening on density matrix:        ON 
 Calculation will be performed fully direct        

 ITERATION   DDIFF            GRAD            ENERGY        2-EL.EN.            DIPOLE MOMENTS         DIIS   CPU(IT)  CPU(TOT)
    1      0.000D+00      0.000D+00      -115.51026430    198.854368    0.69905    0.64384    0.19684    0      3.8      6.8     start
    2      0.000D+00      0.802D-02      -115.31743406    180.787250   -0.11124   -0.12335    0.03801    1      2.6      9.5     diag
    3      0.181D-01      0.151D-01      -115.59245440    192.740990    0.51257    0.44378    0.25602    2      2.6     12.1     diag
    4      0.111D-01      0.213D-02      -115.59748710    192.522188    0.44538    0.40324    0.15712    3      2.6     14.7     diag
    5      0.197D-02      0.593D-03      -115.59788902    192.419494    0.45021    0.40540    0.16683    4      2.5     17.2     diag
    6      0.488D-03      0.928D-04      -115.59789941    192.442679    0.45057    0.40505    0.16968    5      2.5     19.7     diag
    7      0.597D-04      0.119D-04      -115.59789958    192.450365    0.45139    0.40583    0.16973    6      2.4     22.2     diag
    8      0.109D-04      0.118D-05      -115.59789958    192.450809    0.45124    0.40567    0.16980    7      2.4     24.6     diag
    9      0.166D-05      0.261D-06      -115.59789958    192.450851    0.45129    0.40573    0.16977    0      2.3     26.9     orth

 Final occupancy:   9

 !RKS STATE  1.1 Energy              -115.597899583949
 Nuclear energy                        40.29806389
 One-electron energy                 -236.77178141
 Two-electron energy                   96.22542539
 Density functional                   -15.34960746     PBEX=-14.76593771 PBEC= -0.58366975
 Virial quotient                       -1.00571418
 !RKS STATE  1.1 Dipole moment          0.45128872     0.40572504     0.16976507
 Dipole moment /Debye                   1.14698637     1.03118264     0.43147151

 Orbital energies:

         1.1          2.1          3.1          4.1          5.1          6.1          7.1          8.1          9.1         10.1
    -18.774529    -9.933266    -0.938591    -0.622142    -0.460408    -0.392210    -0.381279    -0.295190    -0.230495    -0.024084

        11.1
     -0.000498


 HOMO      9.1    -0.230495 =      -6.2721eV
 LUMO     10.1    -0.024084 =      -0.6554eV
 LUMO-HOMO         0.206411 =       5.6167eV


 **********************************************************************************************************************************
 DATASETS  * FILE   NREC   LENGTH (MB)   RECORD NAMES
              1      19       31.16       500      610      700      900      950      970     1000      129      960     1100   
                                          VAR    BASINP    GEOM    SYMINP    ZMAT    AOBASIS   BASIS     P2S    ABASIS      S 
                                         1400     1410     1200     1210     1080     1600     1650     1700     1800   
                                           T        V       H0       H01     AOSYM     SMH    MOLCAS    OPER     GRID   

              2       7       10.66       700     1000      520     1800     2101     2201     2301   
                                         GEOM     BASIS   MCVARS    GRID      RKS      RKS      RKS  

 PROGRAMS   *        TOTAL   RKS-SCF       INT   RKS-SCF       INT   RKS-SCF       INT
 CPU TIMES  *        85.75     27.28      0.07     27.62      0.07     30.16      0.36
 REAL TIME  *        90.09 SEC
 DISK USED  *        43.61 MB (local),      174.46 MB (total)
 SF USED    *         0.32 MB
 GA USED    *         3.23 MB       (max)       3.23 MB       (current)
 **********************************************************************************************************************************
 SETTING EB_PBE         =      -115.59789958  AU                              
 SETTING E_AB_INT       =        -0.00361618  AU                              

 *** results in hartree
 E_AB_INT         =        -0.00361618 AU
 Molecular orbitals read from record     2301.2  Type=RKS/CANONICAL (state 1.1)
 Occupation numbers read from record     2301.2  Type=RKS/RHF (state 1.1)
 Orbital energies read from record       2301.2  Type=RKS/CANONICAL (state 1.1)
 Redundancy group numbers read from rec  2301.2  Type=RKS/RHF (state 1.1)

 RPBE/aug-cc-pVDZ energy=   -115.597899583949

         RKS-SCF         RKS-SCF         RKS-SCF
   -115.59789958   -115.59788923   -231.19940500
 **********************************************************************************************************************************
 Molpro calculation terminated
