 vasp.5.4.1 24Jun15 (build Jan 02 2020 16:21:29) gamma-only                     
  
 executed on           IFC15_impi date 2020.04.23  21:03:12
 running on   32 total cores
 distrk:  each k-point on   32 cores,    1 groups
 distr:  one band on NCORES_PER_BAND=   8 cores,    4 groups


--------------------------------------------------------------------------------------------------------


 INCAR:
 POTCAR:    PAW_PBE N_h 06Feb2004                 
 POTCAR:    PAW_PBE C_h 06Feb2004                 
 POTCAR:    PAW_PBE H_h 06Feb2004                 
 POTCAR:    PAW_PBE N_h 06Feb2004                 
   VRHFIN =N: s2p3                                                              
   LEXCH  = PE                                                                  
   EATOM  =   264.5486 eV,   19.4438 Ry                                         
                                                                                
   TITEL  = PAW_PBE N_h 06Feb2004                                               
   LULTRA =        F    use ultrasoft PP ?                                      
   IUNSCR =        1    unscreen: 0-lin 1-nonlin 2-no                           
   RPACOR =    0.800    partial core radius                                     
   POMASS =   14.001; ZVAL   =    5.000    mass and valenz                      
   RCORE  =    1.100    outmost cutoff radius                                   
   RWIGS  =    1.480; RWIGS  =    0.783    wigner-seitz radius (au A)           
   ENMAX  =  700.000; ENMIN  =  500.000 eV                                      
   ICORE  =        2    local potential                                         
   LCOR   =        T    correct aug charges                                     
   LPAW   =        T    paw PP                                                  
   EAUG   =  904.640                                                            
   DEXC   =    0.000                                                            
   RMAX   =    1.127    core radius for proj-oper                               
   RAUG   =    1.300    factor for augmentation sphere                          
   RDEP   =    1.115    radius for radial grids                                 
   RDEPT  =    1.106    core radius for aug-charge                              
                                                                                
   Atomic configuration                                                         
    4 entries                                                                   
     n  l   j            E        occ.                                          
     1  0  0.50      -384.7179   2.0000                                         
     2  0  0.50       -18.5828   2.0000                                         
     2  1  0.50        -7.0898   3.0000                                         
     3  2  1.50        -6.8029   0.0000                                         
   Description                                                                  
     l       E           TYP  RCUT    TYP  RCUT                                 
     0    -18.5828117     23  1.100                                             
     0    -15.0750597     23  1.100                                             
     1     -7.0897851     23  1.100                                             
     1     -1.9663412     23  1.100                                             
     2     -6.8029130      7  1.100                                             
  local pseudopotential read in
  partial core-charges read in
  partial kinetic energy density read in
  kinetic energy density of atom read in
  atomic valenz-charges read in
  non local Contribution for L=           0  read in
    real space projection operators read in
  non local Contribution for L=           0  read in
    real space projection operators read in
  non local Contribution for L=           1  read in
    real space projection operators read in
  non local Contribution for L=           1  read in
    real space projection operators read in
    PAW grid and wavefunctions read in
 
   number of l-projection  operators is LMAX  =           4
   number of lm-projection operators is LMMAX =           8
 
 POTCAR:    PAW_PBE C_h 06Feb2004                 
   VRHFIN =C: s2p2                                                              
   LEXCH  = PE                                                                  
   EATOM  =   147.1560 eV,   10.8157 Ry                                         
                                                                                
   TITEL  = PAW_PBE C_h 06Feb2004                                               
   LULTRA =        F    use ultrasoft PP ?                                      
   IUNSCR =        1    unscreen: 0-lin 1-nonlin 2-no                           
   RPACOR =    0.800    partial core radius                                     
   POMASS =   12.011; ZVAL   =    4.000    mass and valenz                      
   RCORE  =    1.100    outmost cutoff radius                                   
   RWIGS  =    1.630; RWIGS  =    0.863    wigner-seitz radius (au A)           
   ENMAX  =  700.000; ENMIN  =  500.000 eV                                      
   ICORE  =        2    local potential                                         
   LCOR   =        T    correct aug charges                                     
   LPAW   =        T    paw PP                                                  
   EAUG   =  946.768                                                            
   DEXC   =    0.000                                                            
   RMAX   =    1.128    core radius for proj-oper                               
   RAUG   =    1.300    factor for augmentation sphere                          
   RDEP   =    1.162    radius for radial grids                                 
   RDEPT  =    1.088    core radius for aug-charge                              
                                                                                
   Atomic configuration                                                         
    4 entries                                                                   
     n  l   j            E        occ.                                          
     1  0  0.50      -273.3789   2.0000                                         
     2  0  0.50       -13.7508   2.0000                                         
     2  1  0.50        -5.2854   2.0000                                         
     3  2  1.50        -5.4423   0.0000                                         
   Description                                                                  
     l       E           TYP  RCUT    TYP  RCUT                                 
     0    -13.7508458     23  1.100                                             
     0     -8.2022199     23  1.100                                             
     1     -5.2854383     23  1.100                                             
     1      1.1560700     23  1.100                                             
     2     -5.4423304      7  1.100                                             
  local pseudopotential read in
  partial core-charges read in
  partial kinetic energy density read in
  atomic valenz-charges read in
  non local Contribution for L=           0  read in
    real space projection operators read in
  non local Contribution for L=           0  read in
    real space projection operators read in
  non local Contribution for L=           1  read in
    real space projection operators read in
  non local Contribution for L=           1  read in
    real space projection operators read in
    PAW grid and wavefunctions read in
 
   number of l-projection  operators is LMAX  =           4
   number of lm-projection operators is LMMAX =           8
 
 POTCAR:    PAW_PBE H_h 06Feb2004                 
   VRHFIN =H: ultrasoft test                                                    
   LEXCH  = PE                                                                  
   EATOM  =    12.4884 eV,    0.9179 Ry                                         
                                                                                
   TITEL  = PAW_PBE H_h 06Feb2004                                               
   LULTRA =        F    use ultrasoft PP ?                                      
   IUNSCR =        0    unscreen: 0-lin 1-nonlin 2-no                           
   RPACOR =    0.000    partial core radius                                     
   POMASS =    1.000; ZVAL   =    1.000    mass and valenz                      
   RCORE  =    0.800    outmost cutoff radius                                   
   RWIGS  =    0.700; RWIGS  =    0.370    wigner-seitz radius (au A)           
   ENMAX  =  700.000; ENMIN  =  350.000 eV                                      
   RCLOC  =    0.701    cutoff for local pot                                    
   LCOR   =        T    correct aug charges                                     
   LPAW   =        T    paw PP                                                  
   EAUG   = 1000.000                                                            
   RMAX   =    0.819    core radius for proj-oper                               
   RAUG   =    1.000    factor for augmentation sphere                          
   RDEP   =    0.817    radius for radial grids                                 
   RDEPT  =    0.817    core radius for aug-charge                              
                                                                                
   Atomic configuration                                                         
    2 entries                                                                   
     n  l   j            E        occ.                                          
     1  0  0.50        -6.4927   1.0000                                         
     2  1  0.50        -3.4015   0.0000                                         
   Description                                                                  
     l       E           TYP  RCUT    TYP  RCUT                                 
     0     -6.4927493     23  0.800                                             
     0      6.8029130     23  0.800                                             
     1     -6.8029130     23  0.800                                             
  local pseudopotential read in
  atomic valenz-charges read in
  non local Contribution for L=           0  read in
    real space projection operators read in
  non local Contribution for L=           0  read in
    real space projection operators read in
  non local Contribution for L=           1  read in
    real space projection operators read in
    PAW grid and wavefunctions read in
 
   number of l-projection  operators is LMAX  =           3
   number of lm-projection operators is LMMAX =           5
 
  PAW_PBE N_h 06Feb2004                 :
 energy of atom  1       EATOM= -264.5486
 kinetic energy error for atom=    0.0009 (will be added to EATOM!!)
  PAW_PBE C_h 06Feb2004                 :
 energy of atom  2       EATOM= -147.1560
 kinetic energy error for atom=    0.0004 (will be added to EATOM!!)
  PAW_PBE H_h 06Feb2004                 :
 energy of atom  3       EATOM=  -12.4884
 kinetic energy error for atom=    0.0001 (will be added to EATOM!!)
 
 
 POSCAR: N C H                                   
  positions in cartesian coordinates
  No initial velocities read in
 exchange correlation table for  LEXCH =        8
   RHO(1)=    0.500       N(1)  =     2000
   RHO(2)=  100.500       N(2)  =     4000
 


--------------------------------------------------------------------------------------------------------


 ion  position               nearest neighbor table
   1  0.045  0.965  0.022-  15 1.00   7 1.37   6 1.37
   2  0.942  0.012  0.054-  10 1.08   3 1.39   9 1.41
   3  0.977  0.031  0.060-  11 1.08   2 1.39   4 1.40
   4  0.011  0.013  0.048-   3 1.40   7 1.42   5 1.43
   5  0.050  0.023  0.049-  12 1.08   6 1.38   4 1.43
   6  0.070  0.993  0.032-  16 1.08   1 1.37   5 1.38
   7  0.008  0.976  0.030-   1 1.37   8 1.40   4 1.42
   8  0.973  0.958  0.025-  13 1.08   9 1.39   7 1.40
   9  0.941  0.976  0.037-  14 1.08   8 1.39   2 1.41
  10  0.916  0.026  0.064-   2 1.08
  11  0.978  0.058  0.074-   3 1.08
  12  0.062  0.049  0.061-   5 1.08
  13  0.972  0.930  0.011-   8 1.08
  14  0.913  0.962  0.033-   9 1.08
  15  0.052  0.942  0.007-   1 1.00
  16  0.100  0.990  0.028-   6 1.08
 
  LATTYP: Found a simple cubic cell.
 ALAT       =    35.0000000000
  
  Lattice vectors:
  
 A1 = (  35.0000000000,   0.0000000000,   0.0000000000)
 A2 = (   0.0000000000,  35.0000000000,   0.0000000000)
 A3 = (   0.0000000000,   0.0000000000,  35.0000000000)


Analysis of symmetry for initial positions (statically):
=====================================================================
 Subroutine PRICEL returns:
 Original cell was already a primitive cell.
 

 Routine SETGRP: Setting up the symmetry group for a 
 simple cubic supercell.


 Subroutine GETGRP returns: Found  1 space group operations
 (whereof  1 operations were pure point group operations)
 out of a pool of 48 trial point group operations.


The static configuration has the point symmetry C_1 .


Analysis of symmetry for dynamics (positions and initial velocities):
=====================================================================
 Subroutine PRICEL returns:
 Original cell was already a primitive cell.
 

 Routine SETGRP: Setting up the symmetry group for a 
 simple cubic supercell.


 Subroutine GETGRP returns: Found  1 space group operations
 (whereof  1 operations were pure point group operations)
 out of a pool of 48 trial point group operations.


The dynamic configuration has the point symmetry C_1 .
 
 
 KPOINTS: automatic mesh                          

Automatic generation of k-mesh.
Space group operators:
 irot       det(A)        alpha          n_x          n_y          n_z        tau_x        tau_y        tau_z
    1     1.000000     0.000000     1.000000     0.000000     0.000000     0.000000     0.000000     0.000000
 
 Subroutine IBZKPT returns following result:
 ===========================================
 
 Found      1 irreducible k-points:
 
 Following reciprocal coordinates:
            Coordinates               Weight
  0.000000  0.000000  0.000000      1.000000
 
 Following cartesian coordinates:
            Coordinates               Weight
  0.000000  0.000000  0.000000      1.000000
 


--------------------------------------------------------------------------------------------------------




 Dimension of arrays:
   k-points           NKPTS =      1   k-points in BZ     NKDIM =      1   number of bands    NBANDS=     32
   number of dos      NEDOS =    301   number of ions     NIONS =     16
   non local maximal  LDIM  =      4   non local SUM 2l+1 LMDIM =      8
   total plane-waves  NPLWV = ******
   max r-space proj   IRMAX =      1   max aug-charges    IRDMAX=  22431
   dimension x,y,z NGX =   512 NGY =  512 NGZ =  512
   dimension x,y,z NGXF=  1024 NGYF= 1024 NGZF= 1024
   support grid    NGXF=  1024 NGYF= 1024 NGZF= 1024
   ions per type =               1   8   7
 NGX,Y,Z   is equivalent  to a cutoff of  24.32, 24.32, 24.32 a.u.
 NGXF,Y,Z  is equivalent  to a cutoff of  48.64, 48.64, 48.64 a.u.


 I would recommend the setting:
   dimension x,y,z NGX =   511 NGY =  511 NGZ =  511
 SYSTEM =  C                                       
 POSCAR =  N C H                                   

 Startparameter for this run:
   NWRITE =      2    write-flag & timer
   PREC   = acc       normal or accurate (medium, high low for compatibility)
   ISTART =      0    job   : 0-new  1-cont  2-samecut
   ICHARG =      2    charge: 1-file 2-atom 10-const
   ISPIN  =      1    spin polarized calculation?
   LNONCOLLINEAR =      F non collinear calculations
   LSORBIT =      F    spin-orbit coupling
   INIWAV =      1    electr: 0-lowe 1-rand  2-diag
   LASPH  =      T    aspherical Exc in radial PAW
   METAGGA=      F    non-selfconsistent MetaGGA calc.

 Electronic Relaxation 1
   ENCUT  = 2000.0 eV 147.00 Ry   12.12 a.u. 127.63127.63127.63*2*pi/ulx,y,z
   ENINI  = 2000.0     initial cutoff
   ENAUG  = 1000.0 eV  augmentation charge cutoff
   NELM   =     60;   NELMIN=  2; NELMDL= -5     # of ELM steps 
   EDIFF  = 0.1E-06   stopping-criterion for ELM
   LREAL  =      F    real-space projection
   NLSPLINE    = F    spline interpolate recip. space projectors
   LCOMPAT=      F    compatible to vasp.4.4
   GGA_COMPAT  = T    GGA compatible to vasp.4.4-vasp.4.6
   LMAXPAW     = -100 max onsite density
   LMAXMIX     =    2 max onsite mixed and CHGCAR
   VOSKOWN=      0    Vosko Wilk Nusair interpolation
   ROPT   =    0.00000   0.00000   0.00000
 Ionic relaxation
   EDIFFG = 0.1E-05   stopping-criterion for IOM
   NSW    =      0    number of steps for IOM
   NBLOCK =      1;   KBLOCK =      1    inner block; outer block 
   IBRION =     -1    ionic relax: 0-MD 1-quasi-New 2-CG
   NFREE  =      0    steps in history (QN), initial steepest desc. (CG)
   ISIF   =      2    stress and relaxation
   IWAVPR =     10    prediction:  0-non 1-charg 2-wave 3-comb
   ISYM   =      2    0-nonsym 1-usesym 2-fastsym
   LCORR  =      T    Harris-Foulkes like correction to forces

   POTIM  = 0.5000    time-step for ionic-motion
   TEIN   =    0.0    initial temperature
   TEBEG  =    0.0;   TEEND  =   0.0 temperature during run
   SMASS  =  -3.00    Nose mass-parameter (am)
   estimated Nose-frequenzy (Omega)   =  0.10E-29 period in steps =****** mass=  -0.280E-25a.u.
   SCALEE = 1.0000    scale energy and forces
   NPACO  =    256;   APACO  = 16.0  distance and # of slots for P.C.
   PSTRESS=    0.0 pullay stress

  Mass of Ions in am
   POMASS =  14.00 12.01  1.00
  Ionic Valenz
   ZVAL   =   5.00  4.00  1.00
  Atomic Wigner-Seitz radii
   RWIGS  =  -1.00 -1.00 -1.00
  virtual crystal weights 
   VCA    =   1.00  1.00  1.00
   NELECT =      44.0000    total number of electrons
   NUPDOWN=      -1.0000    fix difference up-down

 DOS related values:
   EMIN   =  10.00;   EMAX   =-10.00  energy-range for DOS
   EFERMI =   0.00
   ISMEAR =     0;   SIGMA  =   0.01  broadening in eV -4-tet -1-fermi 0-gaus

 Electronic relaxation 2 (details)
   IALGO  =     38    algorithm
   LDIAG  =      T    sub-space diagonalisation (order eigenvalues)
   LSUBROT=      F    optimize rotation matrix (better conditioning)
   TURBO    =      0    0=normal 1=particle mesh
   IRESTART =      0    0=no restart 2=restart with 2 vectors
   NREBOOT  =      0    no. of reboots
   NMIN     =      0    reboot dimension
   EREF     =   0.00    reference energy to select bands
   IMIX   =      4    mixing-type and parameters
     AMIX     =   0.40;   BMIX     =  1.00
     AMIX_MAG =   1.60;   BMIX_MAG =  1.00
     AMIN     =   0.10
     WC   =   100.;   INIMIX=   1;  MIXPRE=   1;  MAXMIX= -45

 Intra band minimization:
   WEIMIN = 0.0000     energy-eigenvalue tresh-hold
   EBREAK =  0.78E-09  absolut break condition
   DEPER  =   0.30     relativ break condition  

   TIME   =   0.40     timestep for ELM

  volume/ion in A,a.u.               =    2679.69     18083.42
  Fermi-wavevector in a.u.,A,eV,Ry     =   0.165129  0.312049  0.371000  0.027268
  Thomas-Fermi vector in A             =   0.866495
 
 Write flags
   LWAVE  =      T    write WAVECAR
   LCHARG =      T    write CHGCAR
   LVTOT  =      F    write LOCPOT, total local potential
   LVHAR  =      F    write LOCPOT, Hartree potential only
   LELF   =      F    write electronic localiz. function (ELF)
   LORBIT =      0    0 simple, 1 ext, 2 COOP (PROOUT)


 Dipole corrections
   LMONO  =      F    monopole corrections only (constant potential shift)
   LDIPOL =      F    correct potential (dipole corrections)
   IDIPOL =      0    1-x, 2-y, 3-z, 4-all directions 
   EPSILON=  1.0000000 bulk dielectric constant

 Exchange correlation treatment:
   GGA     =    --    GGA type
   LEXCH   =     8    internal setting for exchange type
   VOSKOWN=      0    Vosko Wilk Nusair interpolation
   LHFCALC =     F    Hartree Fock is set to
   LHFONE  =     F    Hartree Fock one center treatment
   AEXX    =    0.0000 exact exchange contribution

 Linear response parameters
   LEPSILON=     F    determine dielectric tensor
   LRPA    =     F    only Hartree local field effects (RPA)
   LNABLA  =     F    use nabla operator in PAW spheres
   LVEL    =     F    velocity operator in full k-point grid
   LINTERFAST=   F  fast interpolation
   KINTER  =     0    interpolate to denser k-point grid
   CSHIFT  =0.1000    complex shift for real part using Kramers Kronig
   OMEGAMAX=  -1.0    maximum frequency
   DEG_THRESHOLD= 0.2000000E-02 threshold for treating states as degnerate
   RTIME   =    0.100 relaxation time in fs

 Orbital magnetization related:
   ORBITALMAG=     F  switch on orbital magnetization
   LCHIMAG   =     F  perturbation theory with respect to B field
   DQ        =  0.001000  dq finite difference perturbation B field



--------------------------------------------------------------------------------------------------------


 Static calculation
 charge density and potential will be updated during run
 non-spin polarized calculation
 Variant of blocked Davidson
 Davidson routine will perform the subspace rotation
 perform sub-space diagonalisation
    after iterative eigenvector-optimisation
 modified Broyden-mixing scheme, WC =      100.0
 initial mixing is a Kerker type mixing with AMIX =  0.4000 and BMIX =      1.0000
 Hartree-type preconditioning will be used
 using additional bands           10
 reciprocal scheme for non local part
 use partial core corrections
 calculate Harris-corrections to forces 
   (improved forces if not selfconsistent)
 use gradient corrections 
 use of overlap-Matrix (Vanderbilt PP)
 Gauss-broadening in eV      SIGMA  =   0.01


--------------------------------------------------------------------------------------------------------


  energy-cutoff  :     2000.00
  volume of cell :    42875.00
      direct lattice vectors                 reciprocal lattice vectors
    35.000000000  0.000000000  0.000000000     0.028571429  0.000000000  0.000000000
     0.000000000 35.000000000  0.000000000     0.000000000  0.028571429  0.000000000
     0.000000000  0.000000000 35.000000000     0.000000000  0.000000000  0.028571429

  length of vectors
    35.000000000 35.000000000 35.000000000     0.028571429  0.028571429  0.028571429


 
 k-points in units of 2pi/SCALE and weight: automatic mesh                          
   0.00000000  0.00000000  0.00000000       1.000
 
 k-points in reciprocal lattice and weights: automatic mesh                          
   0.00000000  0.00000000  0.00000000       1.000
 
 position of ions in fractional coordinates (direct lattice) 
   0.04470417  0.96532054  0.02158680
   0.94222666  0.01216726  0.05432443
   0.97671594  0.03068700  0.06019137
   0.01058369  0.01283671  0.04813560
   0.05002463  0.02296840  0.04912571
   0.06986103  0.99339789  0.03243803
   0.00817489  0.97637289  0.03033929
   0.97347237  0.95756251  0.02459126
   0.94059186  0.97594951  0.03678983
   0.91594957  0.02558237  0.06354014
   0.97756706  0.05841089  0.07387454
   0.06248603  0.04856651  0.06078829
   0.97220229  0.92984329  0.01095431
   0.91317151  0.96227471  0.03276686
   0.05164497  0.94180869  0.00666583
   0.10008226  0.99004189  0.02770066
 
 position of ions in cartesian coordinates  (Angst):
   1.56464600 33.78621900  0.75553800
  32.97793300  0.42585400  1.90135500
  34.18505800  1.07404500  2.10669800
   0.37042900  0.44928500  1.68474600
   1.75086200  0.80389400  1.71940000
   2.44513600 34.76892600  1.13533100
   0.28612100 34.17305100  1.06187500
  34.07153300 33.51468800  0.86069400
  32.92071500 34.15823300  1.28764400
  32.05823500  0.89538300  2.22390500
  34.21484700  2.04438100  2.58560900
   2.18701100  1.69982800  2.12759000
  34.02708000 32.54451500  0.38340100
  31.96100300 33.67961500  1.14684000
   1.80757400 32.96330400  0.23330400
   3.50287900 34.65146600  0.96952300
 


--------------------------------------------------------------------------------------------------------


 use parallel FFT for wavefunctions z direction half grid
 k-point  1 :   0.0000 0.0000 0.0000  plane waves: 4353902

 maximum and minimum number of plane-waves per node :    544247   544233

 maximum number of plane-waves:   4353902
 maximum index in each direction: 
   IXMAX=  127   IYMAX=  127   IZMAX=  127
   IXMIN= -127   IYMIN= -127   IZMIN=    0

 NGX is ok and might be reduce to 510
 NGY is ok and might be reduce to 510
 NGZ is ok and might be reduce to 510

 parallel 3D FFT for wavefunctions:
    minimum data exchange during FFTs selected (reduces bandwidth)
 parallel 3D FFT for charge:
    minimum data exchange during FFTs selected (reduces bandwidth)


 total amount of memory used by VASP on root node  4641527. kBytes
========================================================================

   base      :      30000. kBytes
   nonl-proj :     243817. kBytes
   fftplans  :    1475802. kBytes
   grid      :    2822242. kBytes
   one-center:          3. kBytes
   wavefun   :      69663. kBytes
 
     INWAV:  cpu time    0.0001: real time    0.0003
 Broyden mixing: mesh for mixing (old mesh)
   NGX =255   NGY =255   NGZ =255
  (NGX  =***   NGY  =***   NGZ  =***)
  gives a total of ****** points

 initial charge density was supplied:
 charge density of overlapping atoms calculated
 number of electron      44.0000000 magnetization 
 keeping initial charge density in first step


--------------------------------------------------------------------------------------------------------


 Maximum index for augmentation-charges          863 (set IRDMAX)


--------------------------------------------------------------------------------------------------------


 First call to EWALD:  gamma=   0.051
 Maximum number of real-space cells 3x 3x 3
 Maximum number of reciprocal cells 3x 3x 3

 FEWALD executed in parallel
    FEWALD:  cpu time    0.0027: real time    0.0027


----------------------------------------- Iteration    1(   1)  ---------------------------------------


    POTLOK:  cpu time   17.8940: real time   17.9450
    SETDIJ:  cpu time    0.0552: real time    0.0553
     EDDAV:  cpu time   21.8554: real time   21.9263
       DOS:  cpu time    0.0008: real time    0.0008
    --------------------------------------------
      LOOP:  cpu time   39.8080: real time   39.9325

 eigenvalue-minimisations  :    80
 total energy-change (2. order) : 0.4146131E+03  (-0.1059412E+04)
 number of electron      44.0000000 magnetization 
 augmentation part       44.0000000 magnetization 

 Free energy of the ion-electron system (eV)
  ---------------------------------------------------
  alpha Z        PSCENC =         0.14515801
  Ewald energy   TEWEN  =      4317.26604713
  -Hartree energ DENC   =     -5317.96298765
  -exchange      EXHF   =         0.00000000
  -V(xc)+E(xc)   XCENC  =        89.84746639
  PAW double counting   =      1127.73053072    -1084.38766619
  entropy T*S    EENTRO =        -0.00000000
  eigenvalues    EBANDS =      -247.23624590
  atomic energy  EATOM  =      1529.21079761
  Solvation  Ediel_sol  =         0.00000000
  ---------------------------------------------------
  free energy    TOTEN  =       414.61310011 eV

  energy without entropy =      414.61310011  energy(sigma->0) =      414.61310011


--------------------------------------------------------------------------------------------------------




----------------------------------------- Iteration    1(   2)  ---------------------------------------


     EDDAV:  cpu time   26.6411: real time   26.7264
       DOS:  cpu time    0.0010: real time    0.0010
    --------------------------------------------
      LOOP:  cpu time   26.6446: real time   26.7323

 eigenvalue-minimisations  :   104
 total energy-change (2. order) :-0.1868975E+03  (-0.1850017E+03)
 number of electron      44.0000000 magnetization 
 augmentation part       44.0000000 magnetization 

 Free energy of the ion-electron system (eV)
  ---------------------------------------------------
  alpha Z        PSCENC =         0.14515801
  Ewald energy   TEWEN  =      4317.26604713
  -Hartree energ DENC   =     -5317.96298765
  -exchange      EXHF   =         0.00000000
  -V(xc)+E(xc)   XCENC  =        89.84746639
  PAW double counting   =      1127.73053072    -1084.38766619
  entropy T*S    EENTRO =        -0.00217219
  eigenvalues    EBANDS =      -434.13159688
  atomic energy  EATOM  =      1529.21079761
  Solvation  Ediel_sol  =         0.00000000
  ---------------------------------------------------
  free energy    TOTEN  =       227.71557694 eV

  energy without entropy =      227.71774914  energy(sigma->0) =      227.71666304


--------------------------------------------------------------------------------------------------------




----------------------------------------- Iteration    1(   3)  ---------------------------------------


     EDDAV:  cpu time   26.6310: real time   26.7155
       DOS:  cpu time    0.0010: real time    0.0010
    --------------------------------------------
      LOOP:  cpu time   26.6345: real time   26.7211

 eigenvalue-minimisations  :   104
 total energy-change (2. order) :-0.2220687E+03  (-0.2085485E+03)
 number of electron      44.0000000 magnetization 
 augmentation part       44.0000000 magnetization 

 Free energy of the ion-electron system (eV)
  ---------------------------------------------------
  alpha Z        PSCENC =         0.14515801
  Ewald energy   TEWEN  =      4317.26604713
  -Hartree energ DENC   =     -5317.96298765
  -exchange      EXHF   =         0.00000000
  -V(xc)+E(xc)   XCENC  =        89.84746639
  PAW double counting   =      1127.73053072    -1084.38766619
  entropy T*S    EENTRO =        -0.00000000
  eigenvalues    EBANDS =      -656.20247357
  atomic energy  EATOM  =      1529.21079761
  Solvation  Ediel_sol  =         0.00000000
  ---------------------------------------------------
  free energy    TOTEN  =         5.64687244 eV

  energy without entropy =        5.64687244  energy(sigma->0) =        5.64687244


--------------------------------------------------------------------------------------------------------




----------------------------------------- Iteration    1(   4)  ---------------------------------------


     EDDAV:  cpu time   25.0228: real time   25.1024
       DOS:  cpu time    0.0010: real time    0.0010
    --------------------------------------------
      LOOP:  cpu time   25.0263: real time   25.1085

 eigenvalue-minimisations  :    96
 total energy-change (2. order) :-0.1063018E+03  (-0.1059305E+03)
 number of electron      44.0000000 magnetization 
 augmentation part       44.0000000 magnetization 

 Free energy of the ion-electron system (eV)
  ---------------------------------------------------
  alpha Z        PSCENC =         0.14515801
  Ewald energy   TEWEN  =      4317.26604713
  -Hartree energ DENC   =     -5317.96298765
  -exchange      EXHF   =         0.00000000
  -V(xc)+E(xc)   XCENC  =        89.84746639
  PAW double counting   =      1127.73053072    -1084.38766619
  entropy T*S    EENTRO =        -0.00000000
  eigenvalues    EBANDS =      -762.50428635
  atomic energy  EATOM  =      1529.21079761
  Solvation  Ediel_sol  =         0.00000000
  ---------------------------------------------------
  free energy    TOTEN  =      -100.65494034 eV

  energy without entropy =     -100.65494034  energy(sigma->0) =     -100.65494034


--------------------------------------------------------------------------------------------------------




----------------------------------------- Iteration    1(   5)  ---------------------------------------


     EDDAV:  cpu time   21.7858: real time   21.8552
       DOS:  cpu time    0.0008: real time    0.0008
    CHARGE:  cpu time    3.5455: real time    3.5586
    MIXING:  cpu time    0.4403: real time    0.4417
    --------------------------------------------
      LOOP:  cpu time   25.7749: real time   25.8615

 eigenvalue-minimisations  :    80
 total energy-change (2. order) :-0.1597521E+02  (-0.1589918E+02)
 number of electron      44.0000000 magnetization 
 augmentation part       -0.0388894 magnetization 

 Broyden mixing:
  rms(total) = 0.21955E+01    rms(broyden)= 0.21955E+01
  rms(prec ) = 0.22361E+01
  weight for this iteration     100.00

 Free energy of the ion-electron system (eV)
  ---------------------------------------------------
  alpha Z        PSCENC =         0.14515801
  Ewald energy   TEWEN  =      4317.26604713
  -Hartree energ DENC   =     -5317.96298765
  -exchange      EXHF   =         0.00000000
  -V(xc)+E(xc)   XCENC  =        89.84746639
  PAW double counting   =      1127.73053072    -1084.38766619
  entropy T*S    EENTRO =        -0.00000000
  eigenvalues    EBANDS =      -778.47949287
  atomic energy  EATOM  =      1529.21079761
  Solvation  Ediel_sol  =         0.00000000
  ---------------------------------------------------
  free energy    TOTEN  =      -116.63014686 eV

  energy without entropy =     -116.63014686  energy(sigma->0) =     -116.63014686


--------------------------------------------------------------------------------------------------------




----------------------------------------- Iteration    1(   6)  ---------------------------------------


    POTLOK:  cpu time   17.6497: real time   17.6980
    SETDIJ:  cpu time    0.0556: real time    0.0557
     EDDAV:  cpu time   24.2174: real time   24.2943
       DOS:  cpu time    0.0006: real time    0.0006
    CHARGE:  cpu time    3.4848: real time    3.4980
    MIXING:  cpu time    0.5441: real time    0.5458
    --------------------------------------------
      LOOP:  cpu time   45.9549: real time   46.0974

 eigenvalue-minimisations  :    88
 total energy-change (2. order) : 0.7673162E+01  (-0.1513887E+01)
 number of electron      44.0000000 magnetization 
 augmentation part       -0.0413329 magnetization 

 Broyden mixing:
  rms(total) = 0.14035E+01    rms(broyden)= 0.14035E+01
  rms(prec ) = 0.14205E+01
  weight for this iteration     100.00

 eigenvalues of (default mixing * dielectric matrix)
  average eigenvalue GAMMA=   2.1766
  2.1766

 Free energy of the ion-electron system (eV)
  ---------------------------------------------------
  alpha Z        PSCENC =         0.14515801
  Ewald energy   TEWEN  =      4317.26604713
  -Hartree energ DENC   =     -5405.58292957
  -exchange      EXHF   =         0.00000000
  -V(xc)+E(xc)   XCENC  =        93.50092639
  PAW double counting   =      4648.31960398    -4605.71140610
  entropy T*S    EENTRO =        -0.00000000
  eigenvalues    EBANDS =      -686.10518230
  atomic energy  EATOM  =      1529.21079761
  Solvation  Ediel_sol  =         0.00000000
  ---------------------------------------------------
  free energy    TOTEN  =      -108.95698485 eV

  energy without entropy =     -108.95698485  energy(sigma->0) =     -108.95698485


--------------------------------------------------------------------------------------------------------




----------------------------------------- Iteration    1(   7)  ---------------------------------------


    POTLOK:  cpu time   18.6541: real time   18.7051
    SETDIJ:  cpu time    0.2138: real time    0.2146
     EDDAV:  cpu time   25.5660: real time   25.6434
       DOS:  cpu time    0.0005: real time    0.0005
    CHARGE:  cpu time    3.4803: real time    3.4938
    MIXING:  cpu time    0.5525: real time    0.5538
    --------------------------------------------
      LOOP:  cpu time   48.4698: real time   48.6163

 eigenvalue-minimisations  :    80
 total energy-change (2. order) : 0.2514638E+01  (-0.1375266E+01)
 number of electron      44.0000000 magnetization 
 augmentation part       -0.0576170 magnetization 

 Broyden mixing:
  rms(total) = 0.51790E+00    rms(broyden)= 0.51790E+00
  rms(prec ) = 0.52306E+00
  weight for this iteration     100.00

 eigenvalues of (default mixing * dielectric matrix)
  average eigenvalue GAMMA=   1.7960
  1.2808  2.3113

 Free energy of the ion-electron system (eV)
  ---------------------------------------------------
  alpha Z        PSCENC =         0.14515801
  Ewald energy   TEWEN  =      4317.26604713
  -Hartree energ DENC   =     -5515.31845727
  -exchange      EXHF   =         0.00000000
  -V(xc)+E(xc)   XCENC  =        98.45906693
  PAW double counting   =     15007.01079175   -14964.90154105
  entropy T*S    EENTRO =        -0.00000000
  eigenvalues    EBANDS =      -578.31421007
  atomic energy  EATOM  =      1529.21079761
  Solvation  Ediel_sol  =         0.00000000
  ---------------------------------------------------
  free energy    TOTEN  =      -106.44234696 eV

  energy without entropy =     -106.44234696  energy(sigma->0) =     -106.44234696


--------------------------------------------------------------------------------------------------------




----------------------------------------- Iteration    1(   8)  ---------------------------------------


    POTLOK:  cpu time   18.6555: real time   18.7069
    SETDIJ:  cpu time    0.2136: real time    0.2141
     EDDAV:  cpu time   25.5680: real time   25.6465
       DOS:  cpu time    0.0005: real time    0.0005
    CHARGE:  cpu time    3.4861: real time    3.4992
    MIXING:  cpu time    0.5651: real time    0.5668
    --------------------------------------------
      LOOP:  cpu time   48.4914: real time   48.6391

 eigenvalue-minimisations  :    80
 total energy-change (2. order) : 0.2057527E+00  (-0.7824109E-01)
 number of electron      44.0000000 magnetization 
 augmentation part       -0.0578647 magnetization 

 Broyden mixing:
  rms(total) = 0.18203E+00    rms(broyden)= 0.18203E+00
  rms(prec ) = 0.18562E+00
  weight for this iteration     100.00

 eigenvalues of (default mixing * dielectric matrix)
  average eigenvalue GAMMA=   1.6771
  2.5041  1.0204  1.5070

 Free energy of the ion-electron system (eV)
  ---------------------------------------------------
  alpha Z        PSCENC =         0.14515801
  Ewald energy   TEWEN  =      4317.26604713
  -Hartree energ DENC   =     -5514.82963647
  -exchange      EXHF   =         0.00000000
  -V(xc)+E(xc)   XCENC  =        98.50976047
  PAW double counting   =     18190.90673169   -18148.56237063
  entropy T*S    EENTRO =        -0.00000000
  eigenvalues    EBANDS =      -578.88308204
  atomic energy  EATOM  =      1529.21079761
  Solvation  Ediel_sol  =         0.00000000
  ---------------------------------------------------
  free energy    TOTEN  =      -106.23659424 eV

  energy without entropy =     -106.23659424  energy(sigma->0) =     -106.23659424


--------------------------------------------------------------------------------------------------------




----------------------------------------- Iteration    1(   9)  ---------------------------------------


    POTLOK:  cpu time   18.6876: real time   18.7390
    SETDIJ:  cpu time    0.2132: real time    0.2137
     EDDAV:  cpu time   25.5702: real time   25.6478
       DOS:  cpu time    0.0007: real time    0.0007
    CHARGE:  cpu time    3.4908: real time    3.5040
    MIXING:  cpu time    0.5799: real time    0.5816
    --------------------------------------------
      LOOP:  cpu time   48.5447: real time   48.6914

 eigenvalue-minimisations  :    80
 total energy-change (2. order) : 0.3849557E-01  (-0.1743642E-01)
 number of electron      44.0000000 magnetization 
 augmentation part       -0.0560051 magnetization 

 Broyden mixing:
  rms(total) = 0.77218E-01    rms(broyden)= 0.77218E-01
  rms(prec ) = 0.81440E-01
  weight for this iteration     100.00

 eigenvalues of (default mixing * dielectric matrix)
  average eigenvalue GAMMA=   1.4785
  2.1917  1.0035  1.3593  1.3593

 Free energy of the ion-electron system (eV)
  ---------------------------------------------------
  alpha Z        PSCENC =         0.14515801
  Ewald energy   TEWEN  =      4317.26604713
  -Hartree energ DENC   =     -5519.91346847
  -exchange      EXHF   =         0.00000000
  -V(xc)+E(xc)   XCENC  =        98.67328104
  PAW double counting   =     19563.88459758   -19521.44623388
  entropy T*S    EENTRO =        -0.00000000
  eigenvalues    EBANDS =      -574.01827770
  atomic energy  EATOM  =      1529.21079761
  Solvation  Ediel_sol  =         0.00000000
  ---------------------------------------------------
  free energy    TOTEN  =      -106.19809867 eV

  energy without entropy =     -106.19809867  energy(sigma->0) =     -106.19809867


--------------------------------------------------------------------------------------------------------




----------------------------------------- Iteration    1(  10)  ---------------------------------------


    POTLOK:  cpu time   18.7122: real time   18.7633
    SETDIJ:  cpu time    0.2101: real time    0.2109
     EDDAV:  cpu time   29.3603: real time   29.4498
       DOS:  cpu time    0.0008: real time    0.0008
    CHARGE:  cpu time    3.4736: real time    3.4870
    MIXING:  cpu time    0.5977: real time    0.5992
    --------------------------------------------
      LOOP:  cpu time   52.3573: real time   52.5164

 eigenvalue-minimisations  :    96
 total energy-change (2. order) : 0.5123954E-02  (-0.1749809E-02)
 number of electron      44.0000000 magnetization 
 augmentation part       -0.0560367 magnetization 

 Broyden mixing:
  rms(total) = 0.37420E-01    rms(broyden)= 0.37420E-01
  rms(prec ) = 0.43429E-01
  weight for this iteration     100.00

 eigenvalues of (default mixing * dielectric matrix)
  average eigenvalue GAMMA=   1.6040
  2.3250  2.3250  1.3380  1.0161  1.0161

 Free energy of the ion-electron system (eV)
  ---------------------------------------------------
  alpha Z        PSCENC =         0.14515801
  Ewald energy   TEWEN  =      4317.26604713
  -Hartree energ DENC   =     -5522.96096699
  -exchange      EXHF   =         0.00000000
  -V(xc)+E(xc)   XCENC  =        98.68246378
  PAW double counting   =     18944.46556425   -18902.03878462
  entropy T*S    EENTRO =        -0.00000000
  eigenvalues    EBANDS =      -570.96325388
  atomic energy  EATOM  =      1529.21079761
  Solvation  Ediel_sol  =         0.00000000
  ---------------------------------------------------
  free energy    TOTEN  =      -106.19297472 eV

  energy without entropy =     -106.19297472  energy(sigma->0) =     -106.19297472


--------------------------------------------------------------------------------------------------------




----------------------------------------- Iteration    1(  11)  ---------------------------------------


    POTLOK:  cpu time   18.7421: real time   18.7937
    SETDIJ:  cpu time    0.2096: real time    0.2101
     EDDAV:  cpu time   27.2837: real time   27.3692
       DOS:  cpu time    0.0007: real time    0.0007
    CHARGE:  cpu time    3.4829: real time    3.4960
    MIXING:  cpu time    0.6159: real time    0.6177
    --------------------------------------------
      LOOP:  cpu time   50.3375: real time   50.4928

 eigenvalue-minimisations  :    88
 total energy-change (2. order) : 0.1355219E-01  (-0.1022262E-02)
 number of electron      44.0000000 magnetization 
 augmentation part       -0.0562828 magnetization 

 Broyden mixing:
  rms(total) = 0.20856E-01    rms(broyden)= 0.20856E-01
  rms(prec ) = 0.25814E-01
  weight for this iteration     100.00

 eigenvalues of (default mixing * dielectric matrix)
  average eigenvalue GAMMA=   1.4601
  2.2848  2.2848  1.3498  0.9578  0.9417  0.9417

 Free energy of the ion-electron system (eV)
  ---------------------------------------------------
  alpha Z        PSCENC =         0.14515801
  Ewald energy   TEWEN  =      4317.26604713
  -Hartree energ DENC   =     -5530.10300264
  -exchange      EXHF   =         0.00000000
  -V(xc)+E(xc)   XCENC  =        98.81367412
  PAW double counting   =     18936.39052052   -18893.94581884
  entropy T*S    EENTRO =        -0.00000000
  eigenvalues    EBANDS =      -563.95679844
  atomic energy  EATOM  =      1529.21079761
  Solvation  Ediel_sol  =         0.00000000
  ---------------------------------------------------
  free energy    TOTEN  =      -106.17942253 eV

  energy without entropy =     -106.17942253  energy(sigma->0) =     -106.17942253


--------------------------------------------------------------------------------------------------------




----------------------------------------- Iteration    1(  12)  ---------------------------------------


    POTLOK:  cpu time   18.7576: real time   18.8089
    SETDIJ:  cpu time    0.2092: real time    0.2100
     EDDAV:  cpu time   27.2853: real time   27.3711
       DOS:  cpu time    0.0005: real time    0.0006
    CHARGE:  cpu time    3.4830: real time    3.4963
    MIXING:  cpu time    0.6318: real time    0.6334
    --------------------------------------------
      LOOP:  cpu time   50.3702: real time   50.5255

 eigenvalue-minimisations  :    88
 total energy-change (2. order) :-0.6709101E-03  (-0.9472388E-04)
 number of electron      44.0000000 magnetization 
 augmentation part       -0.0563262 magnetization 

 Broyden mixing:
  rms(total) = 0.15485E-01    rms(broyden)= 0.15485E-01
  rms(prec ) = 0.20629E-01
  weight for this iteration     100.00

 eigenvalues of (default mixing * dielectric matrix)
  average eigenvalue GAMMA=   1.6564
  2.7678  2.7678  1.4831  1.4831  0.9279  1.0827  1.0827

 Free energy of the ion-electron system (eV)
  ---------------------------------------------------
  alpha Z        PSCENC =         0.14515801
  Ewald energy   TEWEN  =      4317.26604713
  -Hartree energ DENC   =     -5531.54712366
  -exchange      EXHF   =         0.00000000
  -V(xc)+E(xc)   XCENC  =        98.82840277
  PAW double counting   =     18898.53208073   -18856.08749120
  entropy T*S    EENTRO =        -0.00000000
  eigenvalues    EBANDS =      -562.52796482
  atomic energy  EATOM  =      1529.21079761
  Solvation  Ediel_sol  =         0.00000000
  ---------------------------------------------------
  free energy    TOTEN  =      -106.18009344 eV

  energy without entropy =     -106.18009344  energy(sigma->0) =     -106.18009344


--------------------------------------------------------------------------------------------------------




----------------------------------------- Iteration    1(  13)  ---------------------------------------


    POTLOK:  cpu time   18.7424: real time   18.7937
    SETDIJ:  cpu time    0.2118: real time    0.2124
     EDDAV:  cpu time   25.4122: real time   25.4933
       DOS:  cpu time    0.0005: real time    0.0005
    CHARGE:  cpu time    3.4780: real time    3.4911
    MIXING:  cpu time    0.6539: real time    0.6558
    --------------------------------------------
      LOOP:  cpu time   48.5015: real time   48.6519

 eigenvalue-minimisations  :    80
 total energy-change (2. order) :-0.9046531E-03  (-0.6949516E-03)
 number of electron      44.0000000 magnetization 
 augmentation part       -0.0561181 magnetization 

 Broyden mixing:
  rms(total) = 0.12106E-01    rms(broyden)= 0.12106E-01
  rms(prec ) = 0.14007E-01
  weight for this iteration     100.00

 eigenvalues of (default mixing * dielectric matrix)
  average eigenvalue GAMMA=   1.5950
  3.1083  2.6247  1.6302  1.6302  1.0500  1.0500  0.9290  0.7376

 Free energy of the ion-electron system (eV)
  ---------------------------------------------------
  alpha Z        PSCENC =         0.14515801
  Ewald energy   TEWEN  =      4317.26604713
  -Hartree energ DENC   =     -5539.09024556
  -exchange      EXHF   =         0.00000000
  -V(xc)+E(xc)   XCENC  =        98.93422497
  PAW double counting   =     18870.68312699   -18828.22783832
  entropy T*S    EENTRO =        -0.00000000
  eigenvalues    EBANDS =      -555.10226892
  atomic energy  EATOM  =      1529.21079761
  Solvation  Ediel_sol  =         0.00000000
  ---------------------------------------------------
  free energy    TOTEN  =      -106.18099809 eV

  energy without entropy =     -106.18099809  energy(sigma->0) =     -106.18099809


--------------------------------------------------------------------------------------------------------




----------------------------------------- Iteration    1(  14)  ---------------------------------------


    POTLOK:  cpu time   18.7557: real time   18.8073
    SETDIJ:  cpu time    0.2107: real time    0.2113
     EDDAV:  cpu time   27.2851: real time   27.3706
       DOS:  cpu time    0.0008: real time    0.0008
    CHARGE:  cpu time    3.4863: real time    3.4996
    MIXING:  cpu time    0.6745: real time    0.6762
    --------------------------------------------
      LOOP:  cpu time   50.4158: real time   50.5709

 eigenvalue-minimisations  :    88
 total energy-change (2. order) :-0.2876139E-02  (-0.1171662E-03)
 number of electron      44.0000000 magnetization 
 augmentation part       -0.0562611 magnetization 

 Broyden mixing:
  rms(total) = 0.12588E-01    rms(broyden)= 0.12588E-01
  rms(prec ) = 0.13835E-01
  weight for this iteration     100.00

 eigenvalues of (default mixing * dielectric matrix)
  average eigenvalue GAMMA=   1.5936
  3.4465  2.5417  1.6027  1.6027  1.2509  1.2509  0.9454  0.9454  0.7564

 Free energy of the ion-electron system (eV)
  ---------------------------------------------------
  alpha Z        PSCENC =         0.14515801
  Ewald energy   TEWEN  =      4317.26604713
  -Hartree energ DENC   =     -5540.64473562
  -exchange      EXHF   =         0.00000000
  -V(xc)+E(xc)   XCENC  =        98.95296937
  PAW double counting   =     18869.54579682   -18827.09049495
  entropy T*S    EENTRO =        -0.00000000
  eigenvalues    EBANDS =      -553.56941260
  atomic energy  EATOM  =      1529.21079761
  Solvation  Ediel_sol  =         0.00000000
  ---------------------------------------------------
  free energy    TOTEN  =      -106.18387423 eV

  energy without entropy =     -106.18387423  energy(sigma->0) =     -106.18387423


--------------------------------------------------------------------------------------------------------




----------------------------------------- Iteration    1(  15)  ---------------------------------------


    POTLOK:  cpu time   18.7540: real time   18.8056
    SETDIJ:  cpu time    0.2094: real time    0.2099
     EDDAV:  cpu time   25.4070: real time   25.4872
       DOS:  cpu time    0.0006: real time    0.0006
    CHARGE:  cpu time    3.4779: real time    3.4909
    MIXING:  cpu time    0.6974: real time    0.6994
    --------------------------------------------
      LOOP:  cpu time   48.5489: real time   48.6987

 eigenvalue-minimisations  :    80
 total energy-change (2. order) :-0.4402753E-02  (-0.8861085E-04)
 number of electron      44.0000000 magnetization 
 augmentation part       -0.0563864 magnetization 

 Broyden mixing:
  rms(total) = 0.43745E-02    rms(broyden)= 0.43745E-02
  rms(prec ) = 0.60779E-02
  weight for this iteration     100.00

 eigenvalues of (default mixing * dielectric matrix)
  average eigenvalue GAMMA=   1.7503
  4.8217  2.5970  2.1830  1.3172  1.3172  1.2987  1.2987  0.9332  0.9332  0.8029

 Free energy of the ion-electron system (eV)
  ---------------------------------------------------
  alpha Z        PSCENC =         0.14515801
  Ewald energy   TEWEN  =      4317.26604713
  -Hartree energ DENC   =     -5542.18554167
  -exchange      EXHF   =         0.00000000
  -V(xc)+E(xc)   XCENC  =        98.96725338
  PAW double counting   =     18845.26376479   -18802.80931646
  entropy T*S    EENTRO =        -0.00000000
  eigenvalues    EBANDS =      -552.04643976
  atomic energy  EATOM  =      1529.21079761
  Solvation  Ediel_sol  =         0.00000000
  ---------------------------------------------------
  free energy    TOTEN  =      -106.18827699 eV

  energy without entropy =     -106.18827699  energy(sigma->0) =     -106.18827699


--------------------------------------------------------------------------------------------------------




----------------------------------------- Iteration    1(  16)  ---------------------------------------


    POTLOK:  cpu time   18.7577: real time   18.8093
    SETDIJ:  cpu time    0.2146: real time    0.2152
     EDDAV:  cpu time   25.4071: real time   25.4877
       DOS:  cpu time    0.0007: real time    0.0007
    CHARGE:  cpu time    3.4824: real time    3.4954
    MIXING:  cpu time    0.7183: real time    0.7203
    --------------------------------------------
      LOOP:  cpu time   48.5833: real time   48.7340

 eigenvalue-minimisations  :    80
 total energy-change (2. order) :-0.7766617E-02  (-0.1269561E-03)
 number of electron      44.0000000 magnetization 
 augmentation part       -0.0565021 magnetization 

 Broyden mixing:
  rms(total) = 0.50618E-02    rms(broyden)= 0.50618E-02
  rms(prec ) = 0.55166E-02
  weight for this iteration     100.00

 eigenvalues of (default mixing * dielectric matrix)
  average eigenvalue GAMMA=   1.7616
  5.6068  2.3914  2.3914  1.2319  1.2319  1.4651  1.4651  0.9437  0.9437  0.9089
  0.7977

 Free energy of the ion-electron system (eV)
  ---------------------------------------------------
  alpha Z        PSCENC =         0.14515801
  Ewald energy   TEWEN  =      4317.26604713
  -Hartree energ DENC   =     -5544.62500763
  -exchange      EXHF   =         0.00000000
  -V(xc)+E(xc)   XCENC  =        98.98302315
  PAW double counting   =     18807.54417142   -18765.09108251
  entropy T*S    EENTRO =        -0.00000000
  eigenvalues    EBANDS =      -549.62915077
  atomic energy  EATOM  =      1529.21079761
  Solvation  Ediel_sol  =         0.00000000
  ---------------------------------------------------
  free energy    TOTEN  =      -106.19604360 eV

  energy without entropy =     -106.19604360  energy(sigma->0) =     -106.19604360


--------------------------------------------------------------------------------------------------------




----------------------------------------- Iteration    1(  17)  ---------------------------------------


    POTLOK:  cpu time   18.7716: real time   18.8233
    SETDIJ:  cpu time    0.2095: real time    0.2100
     EDDAV:  cpu time   29.1757: real time   29.2678
       DOS:  cpu time    0.0006: real time    0.0006
    CHARGE:  cpu time    3.4799: real time    3.4934
    MIXING:  cpu time    0.7475: real time    0.7493
    --------------------------------------------
      LOOP:  cpu time   52.3875: real time   52.5497

 eigenvalue-minimisations  :    96
 total energy-change (2. order) :-0.2846081E-02  (-0.1678568E-04)
 number of electron      44.0000000 magnetization 
 augmentation part       -0.0565458 magnetization 

 Broyden mixing:
  rms(total) = 0.35145E-02    rms(broyden)= 0.35145E-02
  rms(prec ) = 0.39140E-02
  weight for this iteration     100.00

 eigenvalues of (default mixing * dielectric matrix)
  average eigenvalue GAMMA=   1.8126
  5.9484  2.4310  2.4310  2.0598  1.3643  1.3643  1.4515  1.0795  1.0795  0.8561
  0.8428  0.8428

 Free energy of the ion-electron system (eV)
  ---------------------------------------------------
  alpha Z        PSCENC =         0.14515801
  Ewald energy   TEWEN  =      4317.26604713
  -Hartree energ DENC   =     -5545.07713804
  -exchange      EXHF   =         0.00000000
  -V(xc)+E(xc)   XCENC  =        98.98290813
  PAW double counting   =     18820.73984705   -18778.28601840
  entropy T*S    EENTRO =        -0.00000000
  eigenvalues    EBANDS =      -549.18049117
  atomic energy  EATOM  =      1529.21079761
  Solvation  Ediel_sol  =         0.00000000
  ---------------------------------------------------
  free energy    TOTEN  =      -106.19888968 eV

  energy without entropy =     -106.19888968  energy(sigma->0) =     -106.19888968


--------------------------------------------------------------------------------------------------------




----------------------------------------- Iteration    1(  18)  ---------------------------------------


    POTLOK:  cpu time   18.7808: real time   18.8324
    SETDIJ:  cpu time    0.2096: real time    0.2101
     EDDAV:  cpu time   27.2869: real time   27.3741
       DOS:  cpu time    0.0005: real time    0.0005
    CHARGE:  cpu time    3.4766: real time    3.4900
    MIXING:  cpu time    0.7756: real time    0.7778
    --------------------------------------------
      LOOP:  cpu time   50.5327: real time   50.6905

 eigenvalue-minimisations  :    88
 total energy-change (2. order) :-0.5017347E-02  (-0.4974741E-04)
 number of electron      44.0000000 magnetization 
 augmentation part       -0.0565035 magnetization 

 Broyden mixing:
  rms(total) = 0.21274E-02    rms(broyden)= 0.21274E-02
  rms(prec ) = 0.23348E-02
  weight for this iteration     100.00

 eigenvalues of (default mixing * dielectric matrix)
  average eigenvalue GAMMA=   1.9390
  7.0096  3.7466  2.1631  2.1631  1.7358  1.3322  1.3322  1.1164  1.1164  0.9764
  0.8494  0.8494  0.8164

 Free energy of the ion-electron system (eV)
  ---------------------------------------------------
  alpha Z        PSCENC =         0.14515801
  Ewald energy   TEWEN  =      4317.26604713
  -Hartree energ DENC   =     -5545.30312046
  -exchange      EXHF   =         0.00000000
  -V(xc)+E(xc)   XCENC  =        98.97177223
  PAW double counting   =     18839.80980889   -18797.35496539
  entropy T*S    EENTRO =        -0.00000000
  eigenvalues    EBANDS =      -548.94940504
  atomic energy  EATOM  =      1529.21079761
  Solvation  Ediel_sol  =         0.00000000
  ---------------------------------------------------
  free energy    TOTEN  =      -106.20390703 eV

  energy without entropy =     -106.20390703  energy(sigma->0) =     -106.20390703


--------------------------------------------------------------------------------------------------------




----------------------------------------- Iteration    1(  19)  ---------------------------------------


    POTLOK:  cpu time   18.7556: real time   18.8072
    SETDIJ:  cpu time    0.2096: real time    0.2101
     EDDAV:  cpu time   23.4993: real time   23.5743
       DOS:  cpu time    0.0005: real time    0.0005
    CHARGE:  cpu time    3.4704: real time    3.4838
    MIXING:  cpu time    0.7981: real time    0.8003
    --------------------------------------------
      LOOP:  cpu time   46.7361: real time   46.8814

 eigenvalue-minimisations  :    72
 total energy-change (2. order) :-0.2371428E-02  (-0.1848686E-04)
 number of electron      44.0000000 magnetization 
 augmentation part       -0.0565105 magnetization 

 Broyden mixing:
  rms(total) = 0.20265E-02    rms(broyden)= 0.20265E-02
  rms(prec ) = 0.21023E-02
  weight for this iteration     100.00

 eigenvalues of (default mixing * dielectric matrix)
  average eigenvalue GAMMA=   1.8894
  7.2918  3.8088  2.2780  2.2780  1.3129  1.3129  1.5316  1.2080  1.0098  1.0098
  0.8391  0.8391  0.8662  0.8662

 Free energy of the ion-electron system (eV)
  ---------------------------------------------------
  alpha Z        PSCENC =         0.14515801
  Ewald energy   TEWEN  =      4317.26604713
  -Hartree energ DENC   =     -5545.53424445
  -exchange      EXHF   =         0.00000000
  -V(xc)+E(xc)   XCENC  =        98.96788610
  PAW double counting   =     18836.52750418   -18794.07316576
  entropy T*S    EENTRO =        -0.00000000
  eigenvalues    EBANDS =      -548.71626128
  atomic energy  EATOM  =      1529.21079761
  Solvation  Ediel_sol  =         0.00000000
  ---------------------------------------------------
  free energy    TOTEN  =      -106.20627846 eV

  energy without entropy =     -106.20627846  energy(sigma->0) =     -106.20627846


--------------------------------------------------------------------------------------------------------




----------------------------------------- Iteration    1(  20)  ---------------------------------------


    POTLOK:  cpu time   18.7516: real time   18.8032
    SETDIJ:  cpu time    0.2092: real time    0.2097
     EDDAV:  cpu time   29.1542: real time   29.2473
       DOS:  cpu time    0.0009: real time    0.0009
    CHARGE:  cpu time    3.4777: real time    3.4914
    MIXING:  cpu time    0.8261: real time    0.8284
    --------------------------------------------
      LOOP:  cpu time   52.4222: real time   52.5861

 eigenvalue-minimisations  :    96
 total energy-change (2. order) :-0.6156227E-03  (-0.1692905E-05)
 number of electron      44.0000000 magnetization 
 augmentation part       -0.0565203 magnetization 

 Broyden mixing:
  rms(total) = 0.11880E-02    rms(broyden)= 0.11880E-02
  rms(prec ) = 0.12653E-02
  weight for this iteration     100.00

 eigenvalues of (default mixing * dielectric matrix)
  average eigenvalue GAMMA=   1.9214
  7.5899  4.0464  2.1472  2.1472  1.3902  1.3902  1.7958  1.3918  1.3918  1.0535
  1.0535  0.9381  0.8436  0.8436  0.7987

 Free energy of the ion-electron system (eV)
  ---------------------------------------------------
  alpha Z        PSCENC =         0.14515801
  Ewald energy   TEWEN  =      4317.26604713
  -Hartree energ DENC   =     -5545.55661679
  -exchange      EXHF   =         0.00000000
  -V(xc)+E(xc)   XCENC  =        98.96675103
  PAW double counting   =     18834.66369383   -18792.20921209
  entropy T*S    EENTRO =        -0.00000000
  eigenvalues    EBANDS =      -548.69351281
  atomic energy  EATOM  =      1529.21079761
  Solvation  Ediel_sol  =         0.00000000
  ---------------------------------------------------
  free energy    TOTEN  =      -106.20689408 eV

  energy without entropy =     -106.20689408  energy(sigma->0) =     -106.20689408


--------------------------------------------------------------------------------------------------------




----------------------------------------- Iteration    1(  21)  ---------------------------------------


    POTLOK:  cpu time   18.7256: real time   18.7769
    SETDIJ:  cpu time    0.2092: real time    0.2100
     EDDAV:  cpu time   23.5180: real time   23.5924
       DOS:  cpu time    0.0007: real time    0.0007
    CHARGE:  cpu time    3.4729: real time    3.4867
    MIXING:  cpu time    0.8559: real time    0.8580
    --------------------------------------------
      LOOP:  cpu time   46.7850: real time   46.9300

 eigenvalue-minimisations  :    72
 total energy-change (2. order) :-0.8379501E-03  (-0.3524576E-05)
 number of electron      44.0000000 magnetization 
 augmentation part       -0.0565365 magnetization 

 Broyden mixing:
  rms(total) = 0.69211E-03    rms(broyden)= 0.69211E-03
  rms(prec ) = 0.74337E-03
  weight for this iteration     100.00

 eigenvalues of (default mixing * dielectric matrix)
  average eigenvalue GAMMA=   2.0049
  8.0846  4.9293  2.6276  2.3911  2.0183  1.3672  1.3672  1.6088  1.1526  1.1526
  0.9667  0.9667  0.9652  0.8572  0.8120  0.8120

 Free energy of the ion-electron system (eV)
  ---------------------------------------------------
  alpha Z        PSCENC =         0.14515801
  Ewald energy   TEWEN  =      4317.26604713
  -Hartree energ DENC   =     -5545.61290570
  -exchange      EXHF   =         0.00000000
  -V(xc)+E(xc)   XCENC  =        98.96601789
  PAW double counting   =     18829.14912413   -18786.69484143
  entropy T*S    EENTRO =        -0.00000000
  eigenvalues    EBANDS =      -548.63712967
  atomic energy  EATOM  =      1529.21079761
  Solvation  Ediel_sol  =         0.00000000
  ---------------------------------------------------
  free energy    TOTEN  =      -106.20773203 eV

  energy without entropy =     -106.20773203  energy(sigma->0) =     -106.20773203


--------------------------------------------------------------------------------------------------------




----------------------------------------- Iteration    1(  22)  ---------------------------------------


    POTLOK:  cpu time   18.6974: real time   18.7489
    SETDIJ:  cpu time    0.2091: real time    0.2097
     EDDAV:  cpu time   25.4070: real time   25.4866
       DOS:  cpu time    0.0008: real time    0.0008
    CHARGE:  cpu time    3.4866: real time    3.4998
    MIXING:  cpu time    0.8844: real time    0.8869
    --------------------------------------------
      LOOP:  cpu time   48.6880: real time   48.8374

 eigenvalue-minimisations  :    80
 total energy-change (2. order) :-0.5674077E-03  (-0.2980850E-05)
 number of electron      44.0000000 magnetization 
 augmentation part       -0.0565400 magnetization 

 Broyden mixing:
  rms(total) = 0.77769E-03    rms(broyden)= 0.77769E-03
  rms(prec ) = 0.79380E-03
  weight for this iteration     100.00

 eigenvalues of (default mixing * dielectric matrix)
  average eigenvalue GAMMA=   1.9605
  8.2946  4.9976  2.6029  2.5386  1.7743  1.7743  1.3672  1.3672  1.1446  1.1446
  1.0695  1.0695  0.9417  0.8508  0.8508  0.8100  0.7297

 Free energy of the ion-electron system (eV)
  ---------------------------------------------------
  alpha Z        PSCENC =         0.14515801
  Ewald energy   TEWEN  =      4317.26604713
  -Hartree energ DENC   =     -5545.63982869
  -exchange      EXHF   =         0.00000000
  -V(xc)+E(xc)   XCENC  =        98.96540632
  PAW double counting   =     18829.88322669   -18787.42887732
  entropy T*S    EENTRO =        -0.00000000
  eigenvalues    EBANDS =      -548.61022918
  atomic energy  EATOM  =      1529.21079761
  Solvation  Ediel_sol  =         0.00000000
  ---------------------------------------------------
  free energy    TOTEN  =      -106.20829944 eV

  energy without entropy =     -106.20829944  energy(sigma->0) =     -106.20829944


--------------------------------------------------------------------------------------------------------




----------------------------------------- Iteration    1(  23)  ---------------------------------------


    POTLOK:  cpu time   18.6857: real time   18.7371
    SETDIJ:  cpu time    0.2126: real time    0.2131
     EDDAV:  cpu time   31.0499: real time   31.1470
       DOS:  cpu time    0.0006: real time    0.0006
    CHARGE:  cpu time    3.4862: real time    3.4997
    MIXING:  cpu time    0.9248: real time    0.9271
    --------------------------------------------
      LOOP:  cpu time   54.3624: real time   54.5301

 eigenvalue-minimisations  :   104
 total energy-change (2. order) :-0.9438061E-04  (-0.1695862E-06)
 number of electron      44.0000000 magnetization 
 augmentation part       -0.0565366 magnetization 

 Broyden mixing:
  rms(total) = 0.35439E-03    rms(broyden)= 0.35439E-03
  rms(prec ) = 0.37435E-03
  weight for this iteration     100.00

 eigenvalues of (default mixing * dielectric matrix)
  average eigenvalue GAMMA=   2.0282
  8.5600  5.4445  3.0040  2.4431  1.7230  1.7230  1.6797  1.6797  1.4227  1.4227
  1.0680  1.0680  0.9561  0.9561  0.9267  0.8252  0.8252  0.7808

 Free energy of the ion-electron system (eV)
  ---------------------------------------------------
  alpha Z        PSCENC =         0.14515801
  Ewald energy   TEWEN  =      4317.26604713
  -Hartree energ DENC   =     -5545.64172704
  -exchange      EXHF   =         0.00000000
  -V(xc)+E(xc)   XCENC  =        98.96511875
  PAW double counting   =     18830.52750018   -18788.07310893
  entropy T*S    EENTRO =        -0.00000000
  eigenvalues    EBANDS =      -548.60817953
  atomic energy  EATOM  =      1529.21079761
  Solvation  Ediel_sol  =         0.00000000
  ---------------------------------------------------
  free energy    TOTEN  =      -106.20839382 eV

  energy without entropy =     -106.20839382  energy(sigma->0) =     -106.20839382


--------------------------------------------------------------------------------------------------------




----------------------------------------- Iteration    1(  24)  ---------------------------------------


    POTLOK:  cpu time   18.6852: real time   18.7366
    SETDIJ:  cpu time    0.2091: real time    0.2096
     EDDAV:  cpu time   23.5147: real time   23.5884
       DOS:  cpu time    0.0005: real time    0.0005
    CHARGE:  cpu time    3.4750: real time    3.4885
    MIXING:  cpu time    0.9510: real time    0.9537
    --------------------------------------------
      LOOP:  cpu time   46.8382: real time   46.9828

 eigenvalue-minimisations  :    72
 total energy-change (2. order) :-0.2016530E-03  (-0.3433598E-06)
 number of electron      44.0000000 magnetization 
 augmentation part       -0.0565346 magnetization 

 Broyden mixing:
  rms(total) = 0.18582E-03    rms(broyden)= 0.18582E-03
  rms(prec ) = 0.19682E-03
  weight for this iteration     100.00

 eigenvalues of (default mixing * dielectric matrix)
  average eigenvalue GAMMA=   2.0248
  8.6319  5.8901  3.3521  2.3420  2.3420  1.4014  1.4014  1.5968  1.5968  1.2959
  1.2959  1.0177  1.0177  0.9497  0.9497  0.9800  0.8202  0.8202  0.7693

 Free energy of the ion-electron system (eV)
  ---------------------------------------------------
  alpha Z        PSCENC =         0.14515801
  Ewald energy   TEWEN  =      4317.26604713
  -Hartree energ DENC   =     -5545.65113210
  -exchange      EXHF   =         0.00000000
  -V(xc)+E(xc)   XCENC  =        98.96479948
  PAW double counting   =     18831.07520429   -18788.62079296
  entropy T*S    EENTRO =        -0.00000000
  eigenvalues    EBANDS =      -548.59867692
  atomic energy  EATOM  =      1529.21079761
  Solvation  Ediel_sol  =         0.00000000
  ---------------------------------------------------
  free energy    TOTEN  =      -106.20859547 eV

  energy without entropy =     -106.20859547  energy(sigma->0) =     -106.20859547


--------------------------------------------------------------------------------------------------------




----------------------------------------- Iteration    1(  25)  ---------------------------------------


    POTLOK:  cpu time   18.6565: real time   18.7078
    SETDIJ:  cpu time    0.2118: real time    0.2123
     EDDAV:  cpu time   25.4114: real time   25.4922
       DOS:  cpu time    0.0007: real time    0.0007
    CHARGE:  cpu time    3.4785: real time    3.4921
    MIXING:  cpu time    0.9818: real time    0.9845
    --------------------------------------------
      LOOP:  cpu time   48.7433: real time   48.8949

 eigenvalue-minimisations  :    80
 total energy-change (2. order) :-0.6890259E-04  (-0.1110793E-06)
 number of electron      44.0000000 magnetization 
 augmentation part       -0.0565339 magnetization 

 Broyden mixing:
  rms(total) = 0.27079E-03    rms(broyden)= 0.27079E-03
  rms(prec ) = 0.27533E-03
  weight for this iteration     100.00

 eigenvalues of (default mixing * dielectric matrix)
  average eigenvalue GAMMA=   2.0069
  8.7563  5.9705  3.5082  2.4317  2.2634  1.9407  1.4412  1.4412  1.3852  1.3852
  1.3693  1.0335  1.0335  0.9709  0.9709  1.0273  0.8789  0.7976  0.7976  0.7346

 Free energy of the ion-electron system (eV)
  ---------------------------------------------------
  alpha Z        PSCENC =         0.14515801
  Ewald energy   TEWEN  =      4317.26604713
  -Hartree energ DENC   =     -5545.66331097
  -exchange      EXHF   =         0.00000000
  -V(xc)+E(xc)   XCENC  =        98.96491223
  PAW double counting   =     18830.76532035   -18788.31095171
  entropy T*S    EENTRO =        -0.00000000
  eigenvalues    EBANDS =      -548.58663702
  atomic energy  EATOM  =      1529.21079761
  Solvation  Ediel_sol  =         0.00000000
  ---------------------------------------------------
  free energy    TOTEN  =      -106.20866438 eV

  energy without entropy =     -106.20866438  energy(sigma->0) =     -106.20866438


--------------------------------------------------------------------------------------------------------




----------------------------------------- Iteration    1(  26)  ---------------------------------------


    POTLOK:  cpu time   18.6237: real time   18.6746
    SETDIJ:  cpu time    0.2120: real time    0.2129
     EDDAV:  cpu time   17.8812: real time   17.9370
       DOS:  cpu time    0.0003: real time    0.0003
    CHARGE:  cpu time    3.4688: real time    3.4821
    MIXING:  cpu time    1.0215: real time    1.0243
    --------------------------------------------
      LOOP:  cpu time   41.2102: real time   41.3367

 eigenvalue-minimisations  :    48
 total energy-change (2. order) :-0.2942342E-04  (-0.1272908E-07)
 number of electron      44.0000000 magnetization 
 augmentation part       -0.0565346 magnetization 

 Broyden mixing:
  rms(total) = 0.12046E-03    rms(broyden)= 0.12046E-03
  rms(prec ) = 0.12507E-03
  weight for this iteration     100.00

 eigenvalues of (default mixing * dielectric matrix)
  average eigenvalue GAMMA=   2.0458
  8.7819  6.3674  3.8327  2.5256  2.5256  1.7732  1.7732  1.6460  1.6460  1.4329
  1.4329  1.1178  1.1178  0.9675  0.9675  0.9172  0.9172  0.8161  0.8161  0.7935
  0.7935

 Free energy of the ion-electron system (eV)
  ---------------------------------------------------
  alpha Z        PSCENC =         0.14515801
  Ewald energy   TEWEN  =      4317.26604713
  -Hartree energ DENC   =     -5545.66513525
  -exchange      EXHF   =         0.00000000
  -V(xc)+E(xc)   XCENC  =        98.96484086
  PAW double counting   =     18830.31868370   -18787.86431181
  entropy T*S    EENTRO =        -0.00000000
  eigenvalues    EBANDS =      -548.58477405
  atomic energy  EATOM  =      1529.21079761
  Solvation  Ediel_sol  =         0.00000000
  ---------------------------------------------------
  free energy    TOTEN  =      -106.20869380 eV

  energy without entropy =     -106.20869380  energy(sigma->0) =     -106.20869380


--------------------------------------------------------------------------------------------------------




----------------------------------------- Iteration    1(  27)  ---------------------------------------


    POTLOK:  cpu time   18.6288: real time   18.6801
    SETDIJ:  cpu time    0.2109: real time    0.2115
     EDDAV:  cpu time   21.6298: real time   21.6975
       DOS:  cpu time    0.0004: real time    0.0004
    CHARGE:  cpu time    3.4811: real time    3.4943
    MIXING:  cpu time    1.0603: real time    1.0632
    --------------------------------------------
      LOOP:  cpu time   45.0140: real time   45.1518

 eigenvalue-minimisations  :    64
 total energy-change (2. order) :-0.3254933E-04  (-0.5719185E-07)
 number of electron      44.0000000 magnetization 
 augmentation part       -0.0565379 magnetization 

 Broyden mixing:
  rms(total) = 0.20439E-03    rms(broyden)= 0.20439E-03
  rms(prec ) = 0.20660E-03
  weight for this iteration     100.00

 eigenvalues of (default mixing * dielectric matrix)
  average eigenvalue GAMMA=   2.0220
  8.9163  6.5268  4.1754  2.6809  2.4182  1.8458  1.8458  1.4946  1.4946  1.4167
  1.4167  1.1464  1.1464  0.9618  0.9618  0.9890  0.8718  0.8718  0.8569  0.8569
  0.7618  0.8269

 Free energy of the ion-electron system (eV)
  ---------------------------------------------------
  alpha Z        PSCENC =         0.14515801
  Ewald energy   TEWEN  =      4317.26604713
  -Hartree energ DENC   =     -5545.67105278
  -exchange      EXHF   =         0.00000000
  -V(xc)+E(xc)   XCENC  =        98.96489824
  PAW double counting   =     18830.03586045   -18787.58150947
  entropy T*S    EENTRO =        -0.00000000
  eigenvalues    EBANDS =      -548.57892553
  atomic energy  EATOM  =      1529.21079761
  Solvation  Ediel_sol  =         0.00000000
  ---------------------------------------------------
  free energy    TOTEN  =      -106.20872635 eV

  energy without entropy =     -106.20872635  energy(sigma->0) =     -106.20872635


--------------------------------------------------------------------------------------------------------




----------------------------------------- Iteration    1(  28)  ---------------------------------------


    POTLOK:  cpu time   18.6323: real time   18.6837
    SETDIJ:  cpu time    0.2118: real time    0.2123
     EDDAV:  cpu time   23.5472: real time   23.6216
       DOS:  cpu time    0.0008: real time    0.0008
    CHARGE:  cpu time    3.4821: real time    3.4952
    MIXING:  cpu time    1.1004: real time    1.1034
    --------------------------------------------
      LOOP:  cpu time   46.9772: real time   47.1221

 eigenvalue-minimisations  :    72
 total energy-change (2. order) :-0.7252624E-05  (-0.1367841E-07)
 number of electron      44.0000000 magnetization 
 augmentation part       -0.0565367 magnetization 

 Broyden mixing:
  rms(total) = 0.52745E-04    rms(broyden)= 0.52745E-04
  rms(prec ) = 0.54774E-04
  weight for this iteration     100.00

 eigenvalues of (default mixing * dielectric matrix)
  average eigenvalue GAMMA=   1.9857
  8.9487  6.5415  4.2192  2.5343  2.5343  1.9737  1.5006  1.5006  1.7330  1.3681
  1.3681  1.0323  1.0323  1.1908  1.1186  1.1186  0.9352  0.9352  0.8711  0.8711
  0.7955  0.7955  0.7517

 Free energy of the ion-electron system (eV)
  ---------------------------------------------------
  alpha Z        PSCENC =         0.14515801
  Ewald energy   TEWEN  =      4317.26604713
  -Hartree energ DENC   =     -5545.67114070
  -exchange      EXHF   =         0.00000000
  -V(xc)+E(xc)   XCENC  =        98.96484485
  PAW double counting   =     18830.40661734   -18787.95225004
  entropy T*S    EENTRO =        -0.00000000
  eigenvalues    EBANDS =      -548.57880780
  atomic energy  EATOM  =      1529.21079761
  Solvation  Ediel_sol  =         0.00000000
  ---------------------------------------------------
  free energy    TOTEN  =      -106.20873360 eV

  energy without entropy =     -106.20873360  energy(sigma->0) =     -106.20873360


--------------------------------------------------------------------------------------------------------




----------------------------------------- Iteration    1(  29)  ---------------------------------------


    POTLOK:  cpu time   18.6230: real time   18.6742
    SETDIJ:  cpu time    0.2107: real time    0.2113
     EDDAV:  cpu time   21.6535: real time   21.7222
       DOS:  cpu time    0.0006: real time    0.0006
    CHARGE:  cpu time    3.4812: real time    3.4946
    MIXING:  cpu time    1.1364: real time    1.1398
    --------------------------------------------
      LOOP:  cpu time   45.1080: real time   45.2475

 eigenvalue-minimisations  :    64
 total energy-change (2. order) :-0.6331273E-05  (-0.8777324E-08)
 number of electron      44.0000000 magnetization 
 augmentation part       -0.0565352 magnetization 

 Broyden mixing:
  rms(total) = 0.53345E-04    rms(broyden)= 0.53345E-04
  rms(prec ) = 0.54690E-04
  weight for this iteration     100.00

 eigenvalues of (default mixing * dielectric matrix)
  average eigenvalue GAMMA=   2.0146
  9.0913  6.7747  4.7278  3.0187  2.2215  2.2215  1.9203  1.5141  1.5141  1.3812
  1.3812  1.5086  1.1414  1.1028  1.1028  0.9966  0.9966  0.7819  0.7819  0.8983
  0.8983  0.8263  0.8263  0.7234

 Free energy of the ion-electron system (eV)
  ---------------------------------------------------
  alpha Z        PSCENC =         0.14515801
  Ewald energy   TEWEN  =      4317.26604713
  -Hartree energ DENC   =     -5545.67151896
  -exchange      EXHF   =         0.00000000
  -V(xc)+E(xc)   XCENC  =        98.96483425
  PAW double counting   =     18830.58236172   -18788.12798573
  entropy T*S    EENTRO =        -0.00000000
  eigenvalues    EBANDS =      -548.57843395
  atomic energy  EATOM  =      1529.21079761
  Solvation  Ediel_sol  =         0.00000000
  ---------------------------------------------------
  free energy    TOTEN  =      -106.20873993 eV

  energy without entropy =     -106.20873993  energy(sigma->0) =     -106.20873993


--------------------------------------------------------------------------------------------------------




----------------------------------------- Iteration    1(  30)  ---------------------------------------


    POTLOK:  cpu time   18.6523: real time   18.7033
[...]




----------------------------------------- Iteration    1(  35)  ---------------------------------------


    POTLOK:  cpu time   18.6274: real time   18.6788
    SETDIJ:  cpu time    0.2151: real time    0.2156
     EDDAV:  cpu time   23.5368: real time   23.6109
       DOS:  cpu time    0.0008: real time    0.0008
    CHARGE:  cpu time    3.4795: real time    3.4928
    MIXING:  cpu time    1.4015: real time    1.4056
    --------------------------------------------
      LOOP:  cpu time   47.2638: real time   47.4094

 eigenvalue-minimisations  :    72
 total energy-change (2. order) :-0.3144123E-06  (-0.1502460E-09)
 number of electron      44.0000000 magnetization 
 augmentation part       -0.0565358 magnetization 

 Broyden mixing:
  rms(total) = 0.74928E-05    rms(broyden)= 0.74928E-05
  rms(prec ) = 0.75676E-05
  weight for this iteration     100.00

 eigenvalues of (default mixing * dielectric matrix)
  average eigenvalue GAMMA=   2.0648
  9.3716  7.7351  5.9936  4.4302  3.0769  2.3220  2.3220  2.2299  1.5089  1.5089
  1.7419  1.7419  1.3806  1.3806  1.2812  1.0329  1.0329  1.1299  1.1299  1.0646
  0.8983  0.8983  0.8444  0.8444  0.9062  0.9062  0.8641  0.8166  0.8166  0.7344

 Free energy of the ion-electron system (eV)
  ---------------------------------------------------
  alpha Z        PSCENC =         0.14515801
  Ewald energy   TEWEN  =      4317.26604713
  -Hartree energ DENC   =     -5545.67402662
  -exchange      EXHF   =         0.00000000
  -V(xc)+E(xc)   XCENC  =        98.96484170
  PAW double counting   =     18830.47997982   -18788.02561003
  entropy T*S    EENTRO =        -0.00000000
  eigenvalues    EBANDS =      -548.57594222
  atomic energy  EATOM  =      1529.21079761
  Solvation  Ediel_sol  =         0.00000000
  ---------------------------------------------------
  free energy    TOTEN  =      -106.20875461 eV

  energy without entropy =     -106.20875461  energy(sigma->0) =     -106.20875461


--------------------------------------------------------------------------------------------------------




----------------------------------------- Iteration    1(  36)  ---------------------------------------


    POTLOK:  cpu time   18.6318: real time   18.6831
    SETDIJ:  cpu time    0.2094: real time    0.2099
     EDDAV:  cpu time   23.5254: real time   23.5992
       DOS:  cpu time    0.0010: real time    0.0010
    CHARGE:  cpu time    3.4867: real time    3.5005
    MIXING:  cpu time    1.4475: real time    1.4513
    --------------------------------------------
      LOOP:  cpu time   47.3044: real time   47.4505

 eigenvalue-minimisations  :    72
 total energy-change (2. order) :-0.1673397E-06  (-0.1658051E-10)
 number of electron      44.0000000 magnetization 
 augmentation part       -0.0565358 magnetization 

 Broyden mixing:
  rms(total) = 0.34260E-05    rms(broyden)= 0.34260E-05
  rms(prec ) = 0.34763E-05
  weight for this iteration     100.00

 eigenvalues of (default mixing * dielectric matrix)
  average eigenvalue GAMMA=   2.0679
  9.3935  7.8400  6.0682  4.5503  2.8919  2.4971  2.4971  2.3336  1.5140  1.5140
  1.7696  1.7696  1.3950  1.3950  1.3427  1.3427  1.1301  1.1301  1.1544  1.0088
  1.0088  0.8414  0.8414  0.9255  0.9255  0.9184  0.8624  0.8624  0.8228  0.8228
  0.7349

 Free energy of the ion-electron system (eV)
  ---------------------------------------------------
  alpha Z        PSCENC =         0.14515801
  Ewald energy   TEWEN  =      4317.26604713
  -Hartree energ DENC   =     -5545.67398966
  -exchange      EXHF   =         0.00000000
  -V(xc)+E(xc)   XCENC  =        98.96484001
  PAW double counting   =     18830.49066914   -18788.03629859
  entropy T*S    EENTRO =        -0.00000000
  eigenvalues    EBANDS =      -548.57597843
  atomic energy  EATOM  =      1529.21079761
  Solvation  Ediel_sol  =         0.00000000
  ---------------------------------------------------
  free energy    TOTEN  =      -106.20875478 eV

  energy without entropy =     -106.20875478  energy(sigma->0) =     -106.20875478


--------------------------------------------------------------------------------------------------------




----------------------------------------- Iteration    1(  37)  ---------------------------------------


    POTLOK:  cpu time   18.6562: real time   18.7076
    SETDIJ:  cpu time    0.2104: real time    0.2109
     EDDAV:  cpu time   23.5236: real time   23.5983
       DOS:  cpu time    0.0009: real time    0.0009
    --------------------------------------------
      LOOP:  cpu time   42.3937: real time   42.5226

 eigenvalue-minimisations  :    72
 total energy-change (2. order) :-0.9468204E-07  ( 0.6398082E-10)
 number of electron      44.0000000 magnetization 
 augmentation part       -0.0565358 magnetization 

 Free energy of the ion-electron system (eV)
  ---------------------------------------------------
  alpha Z        PSCENC =         0.14515801
  Ewald energy   TEWEN  =      4317.26604713
  -Hartree energ DENC   =     -5545.67390071
  -exchange      EXHF   =         0.00000000
  -V(xc)+E(xc)   XCENC  =        98.96483701
  PAW double counting   =     18830.50027400   -18788.04590276
  entropy T*S    EENTRO =        -0.00000000
  eigenvalues    EBANDS =      -548.57606515
  atomic energy  EATOM  =      1529.21079761
  Solvation  Ediel_sol  =         0.00000000
  ---------------------------------------------------
  free energy    TOTEN  =      -106.20875487 eV

  energy without entropy =     -106.20875487  energy(sigma->0) =     -106.20875487


--------------------------------------------------------------------------------------------------------




 average (electrostatic) potential at core
  the test charge radii are     0.5902  0.5770  0.4325
  (the norm of the test charge is              1.0000)
       1-104.8739       2 -85.6948       3 -85.8235       4 -85.9300       5 -85.6826
       6 -86.7850       7 -86.7856       8 -85.9830       9 -85.8036      10 -44.6668
      11 -44.7875      12 -45.0024      13 -45.1113      14 -44.7595      15 -47.8288
      16 -45.6126
 
 
 
 E-fermi :  -4.9615     XC(G=0):  -0.0610     alpha+bet : -0.0263


 k-point     1 :       0.0000    0.0000    0.0000
  band No.  band energies     occupation 
      1     -24.6359      2.00000
      2     -20.7899      2.00000
      3     -19.3799      2.00000
      4     -18.1420      2.00000
      5     -17.6507      2.00000
      6     -15.4056      2.00000
      7     -14.6591      2.00000
      8     -14.2947      2.00000
      9     -13.2690      2.00000
     10     -11.7998      2.00000
     11     -11.4457      2.00000
     12     -10.6738      2.00000
     13     -10.4145      2.00000
     14     -10.3635      2.00000
     15      -9.8894      2.00000
     16      -9.4500      2.00000
     17      -8.4617      2.00000
     18      -8.1777      2.00000
     19      -7.9762      2.00000
     20      -6.8459      2.00000
     21      -5.5128      2.00000
     22      -5.0501      2.00000
     23      -1.2772      0.00000
     24      -0.6465      0.00000
     25      -0.3599      0.00000
     26      -0.2028      0.00000
     27      -0.0958      0.00000
     28       0.0202      0.00000
     29       0.1071      0.00000
     30       0.1228      0.00000
     31       0.1295      0.00000
     32       0.1351      0.00000


--------------------------------------------------------------------------------------------------------


 soft charge-density along one line, spin component           1
         0         1         2         3         4         5         6         7         8         9
 total charge-density along one line
 
 pseudopotential strength for first ion, spin component:           1
 20.407  28.586   0.003  -0.005  -0.001   0.005  -0.007  -0.002
 28.586  40.042   0.005  -0.007  -0.001   0.007  -0.010  -0.002
  0.003   0.005  -6.038  -0.003   0.000  -9.070  -0.005   0.001
 -0.005  -0.007  -0.003  -6.035   0.001  -0.005  -9.065   0.001
 -0.001  -0.001   0.000   0.001  -6.037   0.001   0.001  -9.069
  0.005   0.007  -9.070  -0.005   0.001 -13.606  -0.007   0.001
 -0.007  -0.010  -0.005  -9.065   0.001  -0.007 -13.597   0.002
 -0.002  -0.002   0.001   0.001  -9.069   0.001   0.002 -13.604
 total augmentation occupancy for first ion, spin component:           1
 12.368  -5.905   0.947   0.118  -0.308  -0.559  -0.121   0.180
 -5.905   2.927  -0.626  -0.089   0.201   0.365   0.098  -0.116
  0.947  -0.626   7.989   2.074   0.093  -3.261  -1.130  -0.053
  0.118  -0.089   2.074   5.349  -0.467  -1.131  -1.823   0.255
 -0.308   0.201   0.093  -0.467   8.622  -0.053   0.255  -3.620
 -0.559   0.365  -3.261  -1.131  -0.053   1.375   0.541   0.024
 -0.121   0.098  -1.130  -1.823   0.255   0.541   0.683  -0.123
  0.180  -0.116  -0.053   0.255  -3.620   0.024  -0.123   1.546


------------------------ aborting loop because EDIFF is reached ----------------------------------------


    CHARGE:  cpu time    3.4797: real time    3.4929
    FORLOC:  cpu time    2.7665: real time    2.7742
    FORNL :  cpu time    3.0827: real time    3.0911
    STRESS:  cpu time   15.1688: real time   15.2104
    FORCOR:  cpu time   19.4139: real time   19.4675
    FORHAR:  cpu time    6.9948: real time    7.0140
    MIXING:  cpu time    1.5036: real time    1.5076
    OFIELD:  cpu time    0.0000: real time    0.0000

  FORCE on cell =-STRESS in cart. coord.  units (eV):
  Direction    XX          YY          ZZ          XY          YZ          ZX
  --------------------------------------------------------------------------------------
  Alpha Z     0.14516     0.14516     0.14516
  Ewald    2683.42802  1522.80738   111.03008    76.34711   930.74442  -265.58457
  Hartree  2712.87483  1834.99682   997.80224    45.41134   547.37587  -174.32899
  E(xc)    -173.61194  -174.62300  -177.23946     0.17702     1.74886    -0.37186
  Local   -5958.08267 -3936.77331 -1748.21119  -118.46280 -1436.45633   431.20574
  n-local     5.17005     1.89306    -4.21871     0.47294     4.21718    -0.98433
  augment     0.68072     0.69422     0.72417    -0.00741    -0.02934     0.00522
  Kinetic   732.23328   752.62159   820.41922    -3.72358   -46.72676     9.87522
  Fock        0.00000     0.00000     0.00000     0.00000     0.00000     0.00000
  -------------------------------------------------------------------------------------
  Total       2.83743     1.76192     0.45151     0.21461     0.87391    -0.18357
  in kB       0.10603     0.06584     0.01687     0.00802     0.03266    -0.00686
  external pressure =        0.06 kB  Pullay stress =        0.00 kB


 VOLUME and BASIS-vectors are now :
 -----------------------------------------------------------------------------
  energy-cutoff  :     2000.00
  volume of cell :    42875.00
      direct lattice vectors                 reciprocal lattice vectors
    35.000000000  0.000000000  0.000000000     0.028571429  0.000000000  0.000000000
     0.000000000 35.000000000  0.000000000     0.000000000  0.028571429  0.000000000
     0.000000000  0.000000000 35.000000000     0.000000000  0.000000000  0.028571429

  length of vectors
    35.000000000 35.000000000 35.000000000     0.028571429  0.028571429  0.028571429


 FORCES acting on ions
    electron-ion (+dipol)            ewald-force                    non-local-force                 convergence-correction
 -----------------------------------------------------------------------------------------------
   -.148E+03 0.217E+03 0.113E+03   0.149E+03 -.218E+03 -.111E+03   -.463E+00 0.160E+01 -.207E+01   -.283E-05 -.465E-05 -.143E-05
   0.192E+03 -.824E+02 -.582E+02   -.191E+03 0.827E+02 0.582E+02   -.492E+00 -.358E+00 -.927E-01   0.236E-05 0.767E-06 0.288E-06
   0.481E+02 -.184E+03 -.955E+02   -.495E+02 0.184E+03 0.955E+02   0.144E+01 0.800E-01 -.815E-01   -.181E-05 -.119E-05 -.246E-06
   -.927E+01 -.115E+03 -.570E+02   0.870E+01 0.117E+03 0.576E+02   0.406E+00 -.111E+01 -.541E+00   -.595E-05 -.221E-05 -.372E-06
   -.137E+03 -.186E+03 -.777E+02   0.138E+03 0.186E+03 0.778E+02   -.202E+00 -.711E+00 -.167E+00   -.260E-05 -.259E-05 -.988E-06
   -.261E+03 -.140E+02 0.209E+02   0.264E+03 0.219E+02 -.176E+02   -.331E+01 -.763E+01 -.316E+01   -.423E-05 -.636E-05 -.255E-05
   0.286E+02 0.872E+02 0.408E+02   -.364E+02 -.837E+02 -.385E+02   0.754E+01 -.357E+01 -.221E+01   0.415E-05 -.800E-06 -.596E-06
   0.730E+02 0.184E+03 0.824E+02   -.753E+02 -.184E+03 -.819E+02   0.231E+01 -.114E+00 -.435E+00   0.157E-05 0.237E-05 0.100E-05
   0.200E+03 0.812E+02 0.201E+02   -.200E+03 -.808E+02 -.199E+02   -.676E-01 -.244E+00 -.129E+00   0.119E-05 0.327E-05 0.160E-05
   0.752E+02 -.368E+02 -.255E+02   -.805E+02 0.395E+02 0.273E+02   0.496E+01 -.254E+01 -.175E+01   0.730E-06 0.165E-06 0.576E-07
   0.754E+01 -.788E+02 -.398E+02   -.738E+01 0.843E+02 0.425E+02   -.145E+00 -.523E+01 -.259E+01   -.354E-06 0.469E-07 0.113E-06
   -.438E+02 -.707E+02 -.311E+02   0.463E+02 0.758E+02 0.334E+02   -.240E+01 -.492E+01 -.224E+01   0.116E-07 0.115E-05 0.575E-06
   0.156E+02 0.794E+02 0.377E+02   -.160E+02 -.849E+02 -.404E+02   0.306E+00 0.521E+01 0.256E+01   0.428E-06 -.669E-06 -.403E-06
   0.787E+02 0.371E+02 0.105E+02   -.842E+02 -.398E+02 -.113E+02   0.519E+01 0.258E+01 0.759E+00   0.470E-06 0.325E-06 0.146E-06
   -.379E+02 0.876E+02 0.546E+02   0.398E+02 -.942E+02 -.587E+02   -.186E+01 0.633E+01 0.401E+01   -.919E-06 0.156E-05 0.108E-05
   -.890E+02 0.505E+01 0.116E+02   0.952E+02 -.564E+01 -.125E+02   -.592E+01 0.555E+00 0.875E+00   -.391E-06 -.474E-06 -.218E-06
 -----------------------------------------------------------------------------------------------
   -.730E+01 0.101E+02 0.727E+01   0.156E-12 -.320E-13 0.711E-14   0.730E+01 -.101E+02 -.727E+01   -.817E-05 -.929E-05 -.194E-05
 
 
 POSITION                                       TOTAL-FORCE (eV/Angst)
 -----------------------------------------------------------------------------------
      1.56465     33.78622      0.75554         0.061436     -0.065683     -0.107715
     32.97793      0.42585      1.90135         0.071633     -0.120485     -0.026467
     34.18506      1.07405      2.10670         0.019170     -0.170570     -0.072382
      0.37043      0.44928      1.68475        -0.156553      0.087939      0.040377
      1.75086      0.80389      1.71940         0.198144     -0.201564     -0.108558
      2.44514     34.76893      1.13533         0.008221      0.296557      0.170235
      0.28612     34.17305      1.06187        -0.282586     -0.051451      0.048293
     34.07153     33.51469      0.86069         0.068691      0.156945      0.027494
     32.92071     34.15823      1.28764         0.060564      0.150098      0.051540
     32.05823      0.89538      2.22390        -0.252106      0.124932      0.078536
     34.21485      2.04438      2.58561         0.013943      0.252893      0.116372
      2.18701      1.69983      2.12759         0.101693      0.237997      0.099418
     34.02708     32.54451      0.38340        -0.014469     -0.274872     -0.117977
     31.96100     33.67961      1.14684        -0.260645     -0.122615     -0.037336
      1.80757     32.96330      0.23330         0.093798     -0.270978     -0.114256
      3.50288     34.65147      0.96952         0.269066     -0.029143     -0.047573
 -----------------------------------------------------------------------------------
    total drift:                               -0.000024      0.000011      0.000001


--------------------------------------------------------------------------------------------------------



  FREE ENERGIE OF THE ION-ELECTRON SYSTEM (eV)
  ---------------------------------------------------
  free  energy   TOTEN  =      -106.20875487 eV

  energy  without entropy=     -106.20875487  energy(sigma->0) =     -106.20875487
 


--------------------------------------------------------------------------------------------------------


    POTLOK:  cpu time   18.9390: real time   18.9910


--------------------------------------------------------------------------------------------------------


 writing wavefunctions
     LOOP+:  cpu time 2445.7086: real time 2453.1534
    4ORBIT:  cpu time    0.0000: real time    0.0000

 total amount of memory used by VASP on root node  4641527. kBytes
========================================================================

   base      :      30000. kBytes
   nonl-proj :     243817. kBytes
   fftplans  :    1475802. kBytes
   grid      :    2822242. kBytes
   one-center:          3. kBytes
   wavefun   :      69663. kBytes
 
  
  
 General timing and accounting informations for this job:
 ========================================================
  
                  Total CPU time used (sec):     3363.135
                            User time (sec):     3080.768
                          System time (sec):      282.367
                         Elapsed time (sec):     3373.626
  
                   Maximum memory used (kb):     6215356.
                   Average memory used (kb):           0.
  
                          Minor page faults:       238023
                          Major page faults:            5
                 Voluntary context switches:        49016
 
 PROFILE, used timers:      14
 =============================
 
 index                 routine                    time                            calls level
----------------------------------------------------------------------------------------------
    1    total_time                         3373.626921                                1   1
    2      w1_copy                               6.052302                           3104   2
    3      fftwav_mpi                          300.189438                           1238   2
    4      fftext_mpi                            1.346119                              8   2
    5      overl                                 0.001666                           1769   2
    6      orth1                                 9.375544                           1549   2
    7      lincom                                0.630432                             38   2
    8      eccp                                 13.603681                            296   2
    9      hamiltmu                            468.298809                            516   2
   10        vhamil                               61.773203                         1032   3
   11        overl1                                0.001178                         1032   3
   12        kinhamil                            236.899865                         1032   3
   13          fftext_mpi                          234.910231                       1032   4
   14      pdssyex_zheevx                        0.087406                             37   2
 
 Flat profile
 ============
 
             routine name                   CPU           calls
 ---------------------------------------------------------------
 total_time                           2574.041524           1
 fftwav_mpi                            300.189438        1238
 fftext_mpi                            236.256351        1040
 hamiltmu                              169.624562         516
 vhamil                                 61.773203        1032
 eccp                                   13.603681         296
 orth1                                   9.375544        1549
 w1_copy                                 6.052302        3104
 kinhamil                                1.989634        1032
 lincom                                  0.630432          38
 pdssyex_zheevx                          0.087406          37
 overl                                   0.001666        1769
 overl1                                  0.001178        1032
 ---------------------------------------------------------------
  summed up times    3373.62692093849     
 
Profiling took   0.010318  0.005313  0.003270  0.003262 seconds
Profiling took   0.006387 seconds
