 vasp.5.4.1 24Jun15 (build Jan 02 2020 16:21:29) gamma-only                     
  
 executed on           IFC15_impi date 2020.07.01  09:29:34
 running on   12 total cores
 distrk:  each k-point on   12 cores,    1 groups
 distr:  one band on NCORES_PER_BAND=  12 cores,    1 groups


--------------------------------------------------------------------------------------------------------


 INCAR:
 POTCAR:    PAW_PBE C_h 06Feb2004                 
 POTCAR:    PAW_PBE O_h 06Feb2004                 
 POTCAR:    PAW_PBE H_h 06Feb2004                 

 ----------------------------------------------------------------------------- 
|                                                                             |
|           W    W    AA    RRRRR   N    N  II  N    N   GGGG   !!!           |
|           W    W   A  A   R    R  NN   N  II  NN   N  G    G  !!!           |
|           W    W  A    A  R    R  N N  N  II  N N  N  G       !!!           |
|           W WW W  AAAAAA  RRRRR   N  N N  II  N  N N  G  GGG   !            |
|           WW  WW  A    A  R   R   N   NN  II  N   NN  G    G                |
|           W    W  A    A  R    R  N    N  II  N    N   GGGG   !!!           |
|                                                                             |
|      For optimal performance we recommend to set                            |
|        NCORE= 4 - approx SQRT( number of cores)                             |
|      NCORE specifies how many cores store one orbital (NPAR=cpu/NCORE).     |
|      This setting can  greatly improve the performance of VASP for DFT.     |
|      The default, NPAR=number of cores might be grossly inefficient         |
|      on modern multi-core architectures or massively parallel machines.     |
|      Do your own testing !!!!                                               |
|      Unfortunately you need to use the default for GW and RPA calculations. |
|      (for HF NCORE is supported but not extensively tested yet)             |
|                                                                             |
 ----------------------------------------------------------------------------- 

 POTCAR:    PAW_PBE C_h 06Feb2004                 
   VRHFIN =C: s2p2                                                              
   LEXCH  = PE                                                                  
   EATOM  =   147.1560 eV,   10.8157 Ry                                         
                                                                                
   TITEL  = PAW_PBE C_h 06Feb2004                                               
   LULTRA =        F    use ultrasoft PP ?                                      
   IUNSCR =        1    unscreen: 0-lin 1-nonlin 2-no                           
   RPACOR =    0.800    partial core radius                                     
   POMASS =   12.011; ZVAL   =    4.000    mass and valenz                      
   RCORE  =    1.100    outmost cutoff radius                                   
   RWIGS  =    1.630; RWIGS  =    0.863    wigner-seitz radius (au A)           
   ENMAX  =  700.000; ENMIN  =  500.000 eV                                      
   ICORE  =        2    local potential                                         
   LCOR   =        T    correct aug charges                                     
   LPAW   =        T    paw PP                                                  
   EAUG   =  946.768                                                            
   DEXC   =    0.000                                                            
   RMAX   =    1.128    core radius for proj-oper                               
   RAUG   =    1.300    factor for augmentation sphere                          
   RDEP   =    1.162    radius for radial grids                                 
   RDEPT  =    1.088    core radius for aug-charge                              
                                                                                
   Atomic configuration                                                         
    4 entries                                                                   
     n  l   j            E        occ.                                          
     1  0  0.50      -273.3789   2.0000                                         
     2  0  0.50       -13.7508   2.0000                                         
     2  1  0.50        -5.2854   2.0000                                         
     3  2  1.50        -5.4423   0.0000                                         
   Description                                                                  
     l       E           TYP  RCUT    TYP  RCUT                                 
     0    -13.7508458     23  1.100                                             
     0     -8.2022199     23  1.100                                             
     1     -5.2854383     23  1.100                                             
     1      1.1560700     23  1.100                                             
     2     -5.4423304      7  1.100                                             
  local pseudopotential read in
  partial core-charges read in
  partial kinetic energy density read in
  atomic valenz-charges read in
  non local Contribution for L=           0  read in
    real space projection operators read in
  non local Contribution for L=           0  read in
    real space projection operators read in
  non local Contribution for L=           1  read in
    real space projection operators read in
  non local Contribution for L=           1  read in
    real space projection operators read in
    PAW grid and wavefunctions read in
 
   number of l-projection  operators is LMAX  =           4
   number of lm-projection operators is LMMAX =           8
 
 POTCAR:    PAW_PBE O_h 06Feb2004                 
   VRHFIN =O: s2p4                                                              
   LEXCH  = PE                                                                  
   EATOM  =   432.3788 eV,   31.7789 Ry                                         
                                                                                
   TITEL  = PAW_PBE O_h 06Feb2004                                               
   LULTRA =        F    use ultrasoft PP ?                                      
   IUNSCR =        1    unscreen: 0-lin 1-nonlin 2-no                           
   RPACOR =    0.800    partial core radius                                     
   POMASS =   16.000; ZVAL   =    6.000    mass and valenz                      
   RCORE  =    1.100    outmost cutoff radius                                   
   RWIGS  =    1.400; RWIGS  =    0.741    wigner-seitz radius (au A)           
   ENMAX  =  700.000; ENMIN  =  500.000 eV                                      
   ICORE  =        2    local potential                                         
   LCOR   =        T    correct aug charges                                     
   LPAW   =        T    paw PP                                                  
   EAUG   =  888.804                                                            
   DEXC   =    0.000                                                            
   RMAX   =    1.128    core radius for proj-oper                               
   RAUG   =    1.300    factor for augmentation sphere                          
   RDEP   =    1.125    radius for radial grids                                 
   RDEPT  =    1.088    core radius for aug-charge                              
                                                                                
   Atomic configuration                                                         
    4 entries                                                                   
     n  l   j            E        occ.                                          
     1  0  0.50      -514.6923   2.0000                                         
     2  0  0.50       -23.9615   2.0000                                         
     2  1  0.50        -9.0305   4.0000                                         
     3  2  1.50        -9.5241   0.0000                                         
   Description                                                                  
     l       E           TYP  RCUT    TYP  RCUT                                 
     0    -23.9615319     23  1.100                                             
     0    -25.3221145     23  1.100                                             
     1     -9.0304911     23  1.100                                             
     1     -5.4802209     23  1.100                                             
     2     -9.5240782      7  1.100                                             
  local pseudopotential read in
  partial core-charges read in
  partial kinetic energy density read in
  atomic valenz-charges read in
  non local Contribution for L=           0  read in
    real space projection operators read in
  non local Contribution for L=           0  read in
    real space projection operators read in
  non local Contribution for L=           1  read in
    real space projection operators read in
  non local Contribution for L=           1  read in
    real space projection operators read in
    PAW grid and wavefunctions read in
 
   number of l-projection  operators is LMAX  =           4
   number of lm-projection operators is LMMAX =           8
 
 POTCAR:    PAW_PBE H_h 06Feb2004                 
   VRHFIN =H: ultrasoft test                                                    
   LEXCH  = PE                                                                  
   EATOM  =    12.4884 eV,    0.9179 Ry                                         
                                                                                
   TITEL  = PAW_PBE H_h 06Feb2004                                               
   LULTRA =        F    use ultrasoft PP ?                                      
   IUNSCR =        0    unscreen: 0-lin 1-nonlin 2-no                           
   RPACOR =    0.000    partial core radius                                     
   POMASS =    1.000; ZVAL   =    1.000    mass and valenz                      
   RCORE  =    0.800    outmost cutoff radius                                   
   RWIGS  =    0.700; RWIGS  =    0.370    wigner-seitz radius (au A)           
   ENMAX  =  700.000; ENMIN  =  350.000 eV                                      
   RCLOC  =    0.701    cutoff for local pot                                    
   LCOR   =        T    correct aug charges                                     
   LPAW   =        T    paw PP                                                  
   EAUG   = 1000.000                                                            
   RMAX   =    0.819    core radius for proj-oper                               
   RAUG   =    1.000    factor for augmentation sphere                          
   RDEP   =    0.817    radius for radial grids                                 
   RDEPT  =    0.817    core radius for aug-charge                              
                                                                                
   Atomic configuration                                                         
    2 entries                                                                   
     n  l   j            E        occ.                                          
     1  0  0.50        -6.4927   1.0000                                         
     2  1  0.50        -3.4015   0.0000                                         
   Description                                                                  
     l       E           TYP  RCUT    TYP  RCUT                                 
     0     -6.4927493     23  0.800                                             
     0      6.8029130     23  0.800                                             
     1     -6.8029130     23  0.800                                             
  local pseudopotential read in
  atomic valenz-charges read in
  non local Contribution for L=           0  read in
    real space projection operators read in
  non local Contribution for L=           0  read in
    real space projection operators read in
  non local Contribution for L=           1  read in
    real space projection operators read in
    PAW grid and wavefunctions read in
 
   number of l-projection  operators is LMAX  =           3
   number of lm-projection operators is LMMAX =           5
 
  PAW_PBE C_h 06Feb2004                 :
 energy of atom  1       EATOM= -147.1560
 kinetic energy error for atom=    0.0004 (will be added to EATOM!!)
  PAW_PBE O_h 06Feb2004                 :
 energy of atom  2       EATOM= -432.3788
 kinetic energy error for atom=    0.0016 (will be added to EATOM!!)
  PAW_PBE H_h 06Feb2004                 :
 energy of atom  3       EATOM=  -12.4884
 kinetic energy error for atom=    0.0001 (will be added to EATOM!!)
 
 
 POSCAR: C O H                                   
  positions in cartesian coordinates
  No initial velocities read in
 exchange correlation table for  LEXCH =        8
   RHO(1)=    0.500       N(1)  =     2000
   RHO(2)=  100.500       N(2)  =     4000
 


--------------------------------------------------------------------------------------------------------


 ion  position               nearest neighbor table
   1  0.970  0.037  0.008-   3 1.22   4 1.32   2 1.50
   2  0.927  0.038  0.008-   6 1.08   7 1.09   8 1.09   1 1.50
   3  0.990  0.065  0.015-   1 1.22
   4  0.983  0.003  0.000-   5 0.99   1 1.32
   5  0.012  0.004  0.001-   4 0.99
   6  0.917  0.067  0.015-   2 1.08
   7  0.916  0.029  0.981-   2 1.09
   8  0.916  0.018  0.030-   2 1.09
 
  LATTYP: Found a simple cubic cell.
 ALAT       =    35.0000000000
  
  Lattice vectors:
  
 A1 = (  35.0000000000,   0.0000000000,   0.0000000000)
 A2 = (   0.0000000000,  35.0000000000,   0.0000000000)
 A3 = (   0.0000000000,   0.0000000000,  35.0000000000)


Analysis of symmetry for initial positions (statically):
=====================================================================
 Subroutine PRICEL returns:
 Original cell was already a primitive cell.
 

 Routine SETGRP: Setting up the symmetry group for a 
 simple cubic supercell.


 Subroutine GETGRP returns: Found  1 space group operations
 (whereof  1 operations were pure point group operations)
 out of a pool of 48 trial point group operations.


The static configuration has the point symmetry C_1 .


Analysis of symmetry for dynamics (positions and initial velocities):
=====================================================================
 Subroutine PRICEL returns:
 Original cell was already a primitive cell.
 

 Routine SETGRP: Setting up the symmetry group for a 
 simple cubic supercell.


 Subroutine GETGRP returns: Found  1 space group operations
 (whereof  1 operations were pure point group operations)
 out of a pool of 48 trial point group operations.


The dynamic configuration has the point symmetry C_1 .
 
 
 KPOINTS: automatic mesh                          

Automatic generation of k-mesh.
Space group operators:
 irot       det(A)        alpha          n_x          n_y          n_z        tau_x        tau_y        tau_z
    1     1.000000     0.000000     1.000000     0.000000     0.000000     0.000000     0.000000     0.000000
 
 Subroutine IBZKPT returns following result:
 ===========================================
 
 Found      1 irreducible k-points:
 
 Following reciprocal coordinates:
            Coordinates               Weight
  0.000000  0.000000  0.000000      1.000000
 
 Following cartesian coordinates:
            Coordinates               Weight
  0.000000  0.000000  0.000000      1.000000
 


--------------------------------------------------------------------------------------------------------




 Dimension of arrays:
   k-points           NKPTS =      1   k-points in BZ     NKDIM =      1   number of bands    NBANDS=     17
   number of dos      NEDOS =    301   number of ions     NIONS =      8
   non local maximal  LDIM  =      4   non local SUM 2l+1 LMDIM =      8
   total plane-waves  NPLWV = ******
   max r-space proj   IRMAX =      1   max aug-charges    IRDMAX=  23028
   dimension x,y,z NGX =   512 NGY =  512 NGZ =  512
   dimension x,y,z NGXF=  1024 NGYF= 1024 NGZF= 1024
   support grid    NGXF=  1024 NGYF= 1024 NGZF= 1024
   ions per type =               2   2   4
 NGX,Y,Z   is equivalent  to a cutoff of  24.32, 24.32, 24.32 a.u.
 NGXF,Y,Z  is equivalent  to a cutoff of  48.64, 48.64, 48.64 a.u.


 I would recommend the setting:
   dimension x,y,z NGX =   511 NGY =  511 NGZ =  511
 SYSTEM =  C                                       
 POSCAR =  C O H                                   

 Startparameter for this run:
   NWRITE =      2    write-flag & timer
   PREC   = acc       normal or accurate (medium, high low for compatibility)
   ISTART =      0    job   : 0-new  1-cont  2-samecut
   ICHARG =      2    charge: 1-file 2-atom 10-const
   ISPIN  =      1    spin polarized calculation?
   LNONCOLLINEAR =      F non collinear calculations
   LSORBIT =      F    spin-orbit coupling
   INIWAV =      1    electr: 0-lowe 1-rand  2-diag
   LASPH  =      T    aspherical Exc in radial PAW
   METAGGA=      F    non-selfconsistent MetaGGA calc.

 Electronic Relaxation 1
   ENCUT  = 2000.0 eV 147.00 Ry   12.12 a.u. 127.63127.63127.63*2*pi/ulx,y,z
   ENINI  = 2000.0     initial cutoff
   ENAUG  = 1000.0 eV  augmentation charge cutoff
   NELM   =     60;   NELMIN=  2; NELMDL= -5     # of ELM steps 
   EDIFF  = 0.1E-06   stopping-criterion for ELM
   LREAL  =      F    real-space projection
   NLSPLINE    = F    spline interpolate recip. space projectors
   LCOMPAT=      F    compatible to vasp.4.4
   GGA_COMPAT  = T    GGA compatible to vasp.4.4-vasp.4.6
   LMAXPAW     = -100 max onsite density
   LMAXMIX     =    2 max onsite mixed and CHGCAR
   VOSKOWN=      0    Vosko Wilk Nusair interpolation
   ROPT   =    0.00000   0.00000   0.00000
 Ionic relaxation
   EDIFFG = 0.1E-05   stopping-criterion for IOM
   NSW    =      0    number of steps for IOM
   NBLOCK =      1;   KBLOCK =      1    inner block; outer block 
   IBRION =     -1    ionic relax: 0-MD 1-quasi-New 2-CG
   NFREE  =      0    steps in history (QN), initial steepest desc. (CG)
   ISIF   =      2    stress and relaxation
   IWAVPR =     10    prediction:  0-non 1-charg 2-wave 3-comb
   ISYM   =      2    0-nonsym 1-usesym 2-fastsym
   LCORR  =      T    Harris-Foulkes like correction to forces

   POTIM  = 0.5000    time-step for ionic-motion
   TEIN   =    0.0    initial temperature
   TEBEG  =    0.0;   TEEND  =   0.0 temperature during run
   SMASS  =  -3.00    Nose mass-parameter (am)
   estimated Nose-frequenzy (Omega)   =  0.10E-29 period in steps =****** mass=  -0.280E-25a.u.
   SCALEE = 1.0000    scale energy and forces
   NPACO  =    256;   APACO  = 16.0  distance and # of slots for P.C.
   PSTRESS=    0.0 pullay stress

  Mass of Ions in am
   POMASS =  12.01 16.00  1.00
  Ionic Valenz
   ZVAL   =   4.00  6.00  1.00
  Atomic Wigner-Seitz radii
   RWIGS  =  -1.00 -1.00 -1.00
  virtual crystal weights 
   VCA    =   1.00  1.00  1.00
   NELECT =      24.0000    total number of electrons
   NUPDOWN=      -1.0000    fix difference up-down

 DOS related values:
   EMIN   =  10.00;   EMAX   =-10.00  energy-range for DOS
   EFERMI =   0.00
   ISMEAR =     0;   SIGMA  =   0.01  broadening in eV -4-tet -1-fermi 0-gaus

 Electronic relaxation 2 (details)
   IALGO  =     38    algorithm
   LDIAG  =      T    sub-space diagonalisation (order eigenvalues)
   LSUBROT=      F    optimize rotation matrix (better conditioning)
   TURBO    =      0    0=normal 1=particle mesh
   IRESTART =      0    0=no restart 2=restart with 2 vectors
   NREBOOT  =      0    no. of reboots
   NMIN     =      0    reboot dimension
   EREF     =   0.00    reference energy to select bands
   IMIX   =      4    mixing-type and parameters
     AMIX     =   0.40;   BMIX     =  1.00
     AMIX_MAG =   1.60;   BMIX_MAG =  1.00
     AMIN     =   0.10
     WC   =   100.;   INIMIX=   1;  MIXPRE=   1;  MAXMIX= -45

 Intra band minimization:
   WEIMIN = 0.0000     energy-eigenvalue tresh-hold
   EBREAK =  0.15E-08  absolut break condition
   DEPER  =   0.30     relativ break condition  

   TIME   =   0.40     timestep for ELM

  volume/ion in A,a.u.               =    5359.38     36166.85
  Fermi-wavevector in a.u.,A,eV,Ry     =   0.134920  0.254962  0.247673  0.018203
  Thomas-Fermi vector in A             =   0.783236
 
 Write flags
   LWAVE  =      T    write WAVECAR
   LCHARG =      T    write CHGCAR
   LVTOT  =      F    write LOCPOT, total local potential
   LVHAR  =      F    write LOCPOT, Hartree potential only
   LELF   =      F    write electronic localiz. function (ELF)
   LORBIT =      0    0 simple, 1 ext, 2 COOP (PROOUT)


 Dipole corrections
   LMONO  =      F    monopole corrections only (constant potential shift)
   LDIPOL =      F    correct potential (dipole corrections)
   IDIPOL =      0    1-x, 2-y, 3-z, 4-all directions 
   EPSILON=  1.0000000 bulk dielectric constant

 Exchange correlation treatment:
   GGA     =    --    GGA type
   LEXCH   =     8    internal setting for exchange type
   VOSKOWN=      0    Vosko Wilk Nusair interpolation
   LHFCALC =     F    Hartree Fock is set to
   LHFONE  =     F    Hartree Fock one center treatment
   AEXX    =    0.0000 exact exchange contribution

 Linear response parameters
   LEPSILON=     F    determine dielectric tensor
   LRPA    =     F    only Hartree local field effects (RPA)
   LNABLA  =     F    use nabla operator in PAW spheres
   LVEL    =     F    velocity operator in full k-point grid
   LINTERFAST=   F  fast interpolation
   KINTER  =     0    interpolate to denser k-point grid
   CSHIFT  =0.1000    complex shift for real part using Kramers Kronig
   OMEGAMAX=  -1.0    maximum frequency
   DEG_THRESHOLD= 0.2000000E-02 threshold for treating states as degnerate
   RTIME   =    0.100 relaxation time in fs

 Orbital magnetization related:
   ORBITALMAG=     F  switch on orbital magnetization
   LCHIMAG   =     F  perturbation theory with respect to B field
   DQ        =  0.001000  dq finite difference perturbation B field



--------------------------------------------------------------------------------------------------------


 Static calculation
 charge density and potential will be updated during run
 non-spin polarized calculation
 Variant of blocked Davidson
 Davidson routine will perform the subspace rotation
 perform sub-space diagonalisation
    after iterative eigenvector-optimisation
 modified Broyden-mixing scheme, WC =      100.0
 initial mixing is a Kerker type mixing with AMIX =  0.4000 and BMIX =      1.0000
 Hartree-type preconditioning will be used
 using additional bands            5
 reciprocal scheme for non local part
 use partial core corrections
 calculate Harris-corrections to forces 
   (improved forces if not selfconsistent)
 use gradient corrections 
 use of overlap-Matrix (Vanderbilt PP)
 Gauss-broadening in eV      SIGMA  =   0.01


--------------------------------------------------------------------------------------------------------


  energy-cutoff  :     2000.00
  volume of cell :    42875.00
      direct lattice vectors                 reciprocal lattice vectors
    35.000000000  0.000000000  0.000000000     0.028571429  0.000000000  0.000000000
     0.000000000 35.000000000  0.000000000     0.000000000  0.028571429  0.000000000
     0.000000000  0.000000000 35.000000000     0.000000000  0.000000000  0.028571429

  length of vectors
    35.000000000 35.000000000 35.000000000     0.028571429  0.028571429  0.028571429


 
 k-points in units of 2pi/SCALE and weight: automatic mesh                          
   0.00000000  0.00000000  0.00000000       1.000
 
 k-points in reciprocal lattice and weights: automatic mesh                          
   0.00000000  0.00000000  0.00000000       1.000
 
 position of ions in fractional coordinates (direct lattice) 
   0.96966545  0.03706116  0.00834457
   0.92690206  0.03835857  0.00846449
   0.98976683  0.06487025  0.01519465
   0.98316276  0.00271194  0.00010825
   0.01155530  0.00364922  0.00052605
   0.91725720  0.06707040  0.01480904
   0.91620316  0.02921116  0.98077156
   0.91607966  0.01842601  0.02970163
 
 position of ions in cartesian coordinates  (Angst):
  33.93829080  1.29714057  0.29206000
  32.44157220  1.34254982  0.29625732
  34.64183888  2.27045861  0.53181267
  34.41069648  0.09491776  0.00378881
   0.40443566  0.12772262  0.01841184
  32.10400202  2.34746400  0.51831634
  32.06711072  1.02239045 34.32700445
  32.06278804  0.64491043  1.03955708
 


--------------------------------------------------------------------------------------------------------


 use parallel FFT for wavefunctions z direction half grid
 k-point  1 :   0.0000 0.0000 0.0000  plane waves: 4353902

 maximum and minimum number of plane-waves per node :    362837   362811

 maximum number of plane-waves:   4353902
 maximum index in each direction: 
   IXMAX=  127   IYMAX=  127   IZMAX=  127
   IXMIN= -127   IYMIN= -127   IZMIN=    0

 NGX is ok and might be reduce to 510
 NGY is ok and might be reduce to 510
 NGZ is ok and might be reduce to 510

 parallel 3D FFT for wavefunctions:
    minimum data exchange during FFTs selected (reduces bandwidth)
 parallel 3D FFT for charge:
    minimum data exchange during FFTs selected (reduces bandwidth)


 total amount of memory used by VASP on root node  9731702. kBytes
========================================================================

   base      :      30000. kBytes
   nonl-proj :     116099. kBytes
   fftplans  :    3255861. kBytes
   grid      :    6231056. kBytes
   one-center:          1. kBytes
   wavefun   :      98685. kBytes
 
     INWAV:  cpu time    0.0000: real time    0.0000
 Broyden mixing: mesh for mixing (old mesh)
   NGX =255   NGY =255   NGZ =255
  (NGX  =***   NGY  =***   NGZ  =***)
  gives a total of ****** points

 initial charge density was supplied:
 charge density of overlapping atoms calculated
 number of electron      24.0000000 magnetization 
 keeping initial charge density in first step


--------------------------------------------------------------------------------------------------------


 Maximum index for augmentation-charges         2288 (set IRDMAX)


--------------------------------------------------------------------------------------------------------


 First call to EWALD:  gamma=   0.051
 Maximum number of real-space cells 3x 3x 3
 Maximum number of reciprocal cells 3x 3x 3

 FEWALD executed in parallel
    FEWALD:  cpu time    0.0014: real time    0.0014


----------------------------------------- Iteration    1(   1)  ---------------------------------------


    POTLOK:  cpu time   43.5173: real time   43.6367
    SETDIJ:  cpu time    0.0626: real time    0.0628
     EDDAV:  cpu time   26.3534: real time   26.4259
       DOS:  cpu time    0.0001: real time    0.0001
    --------------------------------------------
      LOOP:  cpu time   69.9353: real time   70.7083

 eigenvalue-minimisations  :    42
 total energy-change (2. order) : 0.2661949E+03  (-0.5189653E+03)
 number of electron      24.0000000 magnetization 
 augmentation part       24.0000000 magnetization 

 Free energy of the ion-electron system (eV)
  ---------------------------------------------------
  alpha Z        PSCENC =         0.03818037
  Ewald energy   TEWEN  =      1514.39264394
  -Hartree energ DENC   =     -2428.21381023
  -exchange      EXHF   =         0.00000000
  -V(xc)+E(xc)   XCENC  =        75.52289643
  PAW double counting   =       926.11038280     -918.04053411
  entropy T*S    EENTRO =        -0.00000000
  eigenvalues    EBANDS =      -112.63376149
  atomic energy  EATOM  =      1209.01886776
  Solvation  Ediel_sol  =         0.00000000
  ---------------------------------------------------
  free energy    TOTEN  =       266.19486547 eV

  energy without entropy =      266.19486547  energy(sigma->0) =      266.19486547


--------------------------------------------------------------------------------------------------------




----------------------------------------- Iteration    1(   2)  ---------------------------------------


     EDDAV:  cpu time   33.2723: real time   33.3641
       DOS:  cpu time    0.0000: real time    0.0000
    --------------------------------------------
      LOOP:  cpu time   33.2749: real time   33.3699

 eigenvalue-minimisations  :    58
 total energy-change (2. order) :-0.1298263E+03  (-0.1288378E+03)
 number of electron      24.0000000 magnetization 
 augmentation part       24.0000000 magnetization 

 Free energy of the ion-electron system (eV)
  ---------------------------------------------------
  alpha Z        PSCENC =         0.03818037
  Ewald energy   TEWEN  =      1514.39264394
  -Hartree energ DENC   =     -2428.21381023
  -exchange      EXHF   =         0.00000000
  -V(xc)+E(xc)   XCENC  =        75.52289643
  PAW double counting   =       926.11038280     -918.04053411
  entropy T*S    EENTRO =        -0.00000000
  eigenvalues    EBANDS =      -242.46002535
  atomic energy  EATOM  =      1209.01886776
  Solvation  Ediel_sol  =         0.00000000
  ---------------------------------------------------
  free energy    TOTEN  =       136.36860160 eV

  energy without entropy =      136.36860160  energy(sigma->0) =      136.36860160


--------------------------------------------------------------------------------------------------------




----------------------------------------- Iteration    1(   3)  ---------------------------------------


     EDDAV:  cpu time   34.1805: real time   34.2744
       DOS:  cpu time    0.0000: real time    0.0000
    --------------------------------------------
      LOOP:  cpu time   34.1843: real time   34.2815

 eigenvalue-minimisations  :    60
 total energy-change (2. order) :-0.1199193E+03  (-0.1196066E+03)
 number of electron      24.0000000 magnetization 
 augmentation part       24.0000000 magnetization 

 Free energy of the ion-electron system (eV)
  ---------------------------------------------------
  alpha Z        PSCENC =         0.03818037
  Ewald energy   TEWEN  =      1514.39264394
  -Hartree energ DENC   =     -2428.21381023
  -exchange      EXHF   =         0.00000000
  -V(xc)+E(xc)   XCENC  =        75.52289643
  PAW double counting   =       926.11038280     -918.04053411
  entropy T*S    EENTRO =        -0.00000000
  eigenvalues    EBANDS =      -362.37935265
  atomic energy  EATOM  =      1209.01886776
  Solvation  Ediel_sol  =         0.00000000
  ---------------------------------------------------
  free energy    TOTEN  =        16.44927431 eV

  energy without entropy =       16.44927431  energy(sigma->0) =       16.44927431


--------------------------------------------------------------------------------------------------------




----------------------------------------- Iteration    1(   4)  ---------------------------------------


     EDDAV:  cpu time   27.0219: real time   27.0962
       DOS:  cpu time    0.0000: real time    0.0000
    --------------------------------------------
      LOOP:  cpu time   27.0251: real time   27.1027

 eigenvalue-minimisations  :    44
 total energy-change (2. order) :-0.5978978E+02  (-0.5972703E+02)
 number of electron      24.0000000 magnetization 
 augmentation part       24.0000000 magnetization 

 Free energy of the ion-electron system (eV)
  ---------------------------------------------------
  alpha Z        PSCENC =         0.03818037
  Ewald energy   TEWEN  =      1514.39264394
  -Hartree energ DENC   =     -2428.21381023
  -exchange      EXHF   =         0.00000000
  -V(xc)+E(xc)   XCENC  =        75.52289643
  PAW double counting   =       926.11038280     -918.04053411
  entropy T*S    EENTRO =        -0.00000000
  eigenvalues    EBANDS =      -422.16913682
  atomic energy  EATOM  =      1209.01886776
  Solvation  Ediel_sol  =         0.00000000
  ---------------------------------------------------
  free energy    TOTEN  =       -43.34050987 eV

  energy without entropy =      -43.34050987  energy(sigma->0) =      -43.34050987


--------------------------------------------------------------------------------------------------------




----------------------------------------- Iteration    1(   5)  ---------------------------------------


     EDDAV:  cpu time   30.6136: real time   30.6980
       DOS:  cpu time    0.0000: real time    0.0000
    CHARGE:  cpu time    5.7956: real time    5.8116
    MIXING:  cpu time    1.1728: real time    1.1759
    --------------------------------------------
      LOOP:  cpu time   37.5860: real time   37.6926

 eigenvalue-minimisations  :    52
 total energy-change (2. order) :-0.8393796E+01  (-0.8384824E+01)
 number of electron      24.0000000 magnetization 
 augmentation part        0.1549140 magnetization 

 Broyden mixing:
  rms(total) = 0.31087E+01    rms(broyden)= 0.31087E+01
  rms(prec ) = 0.31232E+01
  weight for this iteration     100.00

 Free energy of the ion-electron system (eV)
  ---------------------------------------------------
  alpha Z        PSCENC =         0.03818037
  Ewald energy   TEWEN  =      1514.39264394
  -Hartree energ DENC   =     -2428.21381023
  -exchange      EXHF   =         0.00000000
  -V(xc)+E(xc)   XCENC  =        75.52289643
  PAW double counting   =       926.11038280     -918.04053411
  entropy T*S    EENTRO =        -0.00000000
  eigenvalues    EBANDS =      -430.56293265
  atomic energy  EATOM  =      1209.01886776
  Solvation  Ediel_sol  =         0.00000000
  ---------------------------------------------------
  free energy    TOTEN  =       -51.73430570 eV

  energy without entropy =      -51.73430570  energy(sigma->0) =      -51.73430570


--------------------------------------------------------------------------------------------------------




----------------------------------------- Iteration    1(   6)  ---------------------------------------


    POTLOK:  cpu time   43.4631: real time   43.5821
    SETDIJ:  cpu time    0.0603: real time    0.0605
     EDDAV:  cpu time   30.6252: real time   30.7096
       DOS:  cpu time    0.0000: real time    0.0000
    CHARGE:  cpu time    5.6596: real time    5.6753
    MIXING:  cpu time    1.2165: real time    1.2198
    --------------------------------------------
      LOOP:  cpu time   81.0268: real time   81.2520

 eigenvalue-minimisations  :    52
 total energy-change (2. order) : 0.4087240E+01  (-0.1219343E+01)
 number of electron      24.0000000 magnetization 
 augmentation part        0.0929228 magnetization 

 Broyden mixing:
  rms(total) = 0.23581E+01    rms(broyden)= 0.23581E+01
  rms(prec ) = 0.23612E+01
  weight for this iteration     100.00

 eigenvalues of (default mixing * dielectric matrix)
  average eigenvalue GAMMA=   1.8171
  1.8171

 Free energy of the ion-electron system (eV)
  ---------------------------------------------------
  alpha Z        PSCENC =         0.03818037
  Ewald energy   TEWEN  =      1514.39264394
  -Hartree energ DENC   =     -2476.97943833
  -exchange      EXHF   =         0.00000000
  -V(xc)+E(xc)   XCENC  =        78.10055861
  PAW double counting   =      3351.83680859    -3344.36750824
  entropy T*S    EENTRO =        -0.00000000
  eigenvalues    EBANDS =      -379.68717815
  atomic energy  EATOM  =      1209.01886776
  Solvation  Ediel_sol  =         0.00000000
  ---------------------------------------------------
  free energy    TOTEN  =       -47.64706547 eV

  energy without entropy =      -47.64706547  energy(sigma->0) =      -47.64706547


--------------------------------------------------------------------------------------------------------




----------------------------------------- Iteration    1(   7)  ---------------------------------------


    POTLOK:  cpu time   43.5798: real time   43.6994
    SETDIJ:  cpu time    0.0660: real time    0.0662
     EDDAV:  cpu time   26.5910: real time   26.6639
       DOS:  cpu time    0.0000: real time    0.0000
    CHARGE:  cpu time    5.6670: real time    5.6826
    MIXING:  cpu time    1.2544: real time    1.2578
    --------------------------------------------
      LOOP:  cpu time   77.1604: real time   77.3753

 eigenvalue-minimisations  :    43
 total energy-change (2. order) : 0.6711249E+00  (-0.2653011E+00)
 number of electron      24.0000000 magnetization 
 augmentation part        0.0934041 magnetization 

 Broyden mixing:
  rms(total) = 0.65980E+00    rms(broyden)= 0.65980E+00
  rms(prec ) = 0.66138E+00
  weight for this iteration     100.00

 eigenvalues of (default mixing * dielectric matrix)
  average eigenvalue GAMMA=   1.6581
  1.0623  2.2539

 Free energy of the ion-electron system (eV)
  ---------------------------------------------------
  alpha Z        PSCENC =         0.03818037
  Ewald energy   TEWEN  =      1514.39264394
  -Hartree energ DENC   =     -2507.85224823
  -exchange      EXHF   =         0.00000000
  -V(xc)+E(xc)   XCENC  =        79.66834735
  PAW double counting   =      9687.24877665    -9679.88718392
  entropy T*S    EENTRO =        -0.00000000
  eigenvalues    EBANDS =      -349.60332453
  atomic energy  EATOM  =      1209.01886776
  Solvation  Ediel_sol  =         0.00000000
  ---------------------------------------------------
  free energy    TOTEN  =       -46.97594061 eV

  energy without entropy =      -46.97594061  energy(sigma->0) =      -46.97594061


--------------------------------------------------------------------------------------------------------




----------------------------------------- Iteration    1(   8)  ---------------------------------------


    POTLOK:  cpu time   43.5824: real time   43.7019
    SETDIJ:  cpu time    0.0603: real time    0.0604
     EDDAV:  cpu time   26.5699: real time   26.6431
       DOS:  cpu time    0.0000: real time    0.0000
    CHARGE:  cpu time    5.6669: real time    5.6826
    MIXING:  cpu time    1.2999: real time    1.3033
    --------------------------------------------
      LOOP:  cpu time   77.1815: real time   77.3968

 eigenvalue-minimisations  :    43
 total energy-change (2. order) : 0.8758107E-01  (-0.2881844E-01)
 number of electron      24.0000000 magnetization 
 augmentation part        0.0936803 magnetization 

 Broyden mixing:
  rms(total) = 0.15324E+00    rms(broyden)= 0.15324E+00
  rms(prec ) = 0.15484E+00
  weight for this iteration     100.00

 eigenvalues of (default mixing * dielectric matrix)
  average eigenvalue GAMMA=   1.4743
  2.4485  0.9872  0.9872

 Free energy of the ion-electron system (eV)
  ---------------------------------------------------
  alpha Z        PSCENC =         0.03818037
  Ewald energy   TEWEN  =      1514.39264394
  -Hartree energ DENC   =     -2514.79616751
  -exchange      EXHF   =         0.00000000
  -V(xc)+E(xc)   XCENC  =        80.06969358
  PAW double counting   =     12402.12277769   -12394.73188453
  entropy T*S    EENTRO =        -0.00000000
  eigenvalues    EBANDS =      -343.00247084
  atomic energy  EATOM  =      1209.01886776
  Solvation  Ediel_sol  =         0.00000000
  ---------------------------------------------------
  free energy    TOTEN  =       -46.88835954 eV

  energy without entropy =      -46.88835954  energy(sigma->0) =      -46.88835954


--------------------------------------------------------------------------------------------------------




----------------------------------------- Iteration    1(   9)  ---------------------------------------


    POTLOK:  cpu time   43.6223: real time   43.7417
    SETDIJ:  cpu time    0.0595: real time    0.0596
     EDDAV:  cpu time   27.0158: real time   27.0901
       DOS:  cpu time    0.0000: real time    0.0000
    CHARGE:  cpu time    5.6727: real time    5.6880
    MIXING:  cpu time    1.3432: real time    1.3471
    --------------------------------------------
      LOOP:  cpu time   77.7157: real time   77.9318

 eigenvalue-minimisations  :    44
 total energy-change (2. order) : 0.1090733E-01  (-0.3847410E-02)
 number of electron      24.0000000 magnetization 
 augmentation part        0.0944851 magnetization 

 Broyden mixing:
  rms(total) = 0.11145E+00    rms(broyden)= 0.11145E+00
  rms(prec ) = 0.11256E+00
  weight for this iteration     100.00

 eigenvalues of (default mixing * dielectric matrix)
  average eigenvalue GAMMA=   1.2823
  2.4848  0.9632  0.9632  0.7181

 Free energy of the ion-electron system (eV)
  ---------------------------------------------------
  alpha Z        PSCENC =         0.03818037
  Ewald energy   TEWEN  =      1514.39264394
  -Hartree energ DENC   =     -2516.93826096
  -exchange      EXHF   =         0.00000000
  -V(xc)+E(xc)   XCENC  =        80.15699570
  PAW double counting   =     12945.95916303   -12938.55553487
  entropy T*S    EENTRO =        -0.00000000
  eigenvalues    EBANDS =      -340.94950717
  atomic energy  EATOM  =      1209.01886776
  Solvation  Ediel_sol  =         0.00000000
  ---------------------------------------------------
  free energy    TOTEN  =       -46.87745221 eV

  energy without entropy =      -46.87745221  energy(sigma->0) =      -46.87745221


--------------------------------------------------------------------------------------------------------




----------------------------------------- Iteration    1(  10)  ---------------------------------------


    POTLOK:  cpu time   43.7148: real time   43.8347
    SETDIJ:  cpu time    0.0623: real time    0.0624
     EDDAV:  cpu time   29.7144: real time   29.7959
       DOS:  cpu time    0.0000: real time    0.0000
    CHARGE:  cpu time    5.6689: real time    5.6846
    MIXING:  cpu time    1.3951: real time    1.3991
    --------------------------------------------
      LOOP:  cpu time   80.5576: real time   80.8290

 eigenvalue-minimisations  :    50
 total energy-change (2. order) : 0.1035480E-02  (-0.4912958E-03)
 number of electron      24.0000000 magnetization 
 augmentation part        0.0941791 magnetization 

 Broyden mixing:
  rms(total) = 0.83768E-01    rms(broyden)= 0.83768E-01
  rms(prec ) = 0.84866E-01
  weight for this iteration     100.00

 eigenvalues of (default mixing * dielectric matrix)
  average eigenvalue GAMMA=   1.4241
  2.4358  1.3991  1.3991  0.9433  0.9433

 Free energy of the ion-electron system (eV)
  ---------------------------------------------------
  alpha Z        PSCENC =         0.03818037
  Ewald energy   TEWEN  =      1514.39264394
  -Hartree energ DENC   =     -2517.83883007
  -exchange      EXHF   =         0.00000000
  -V(xc)+E(xc)   XCENC  =        80.17661441
  PAW double counting   =     12953.87662688   -12946.47235224
  entropy T*S    EENTRO =        -0.00000000
  eigenvalues    EBANDS =      -340.06816777
  atomic energy  EATOM  =      1209.01886776
  Solvation  Ediel_sol  =         0.00000000
  ---------------------------------------------------
  free energy    TOTEN  =       -46.87641673 eV

  energy without entropy =      -46.87641673  energy(sigma->0) =      -46.87641673


--------------------------------------------------------------------------------------------------------




----------------------------------------- Iteration    1(  11)  ---------------------------------------


    POTLOK:  cpu time   43.6672: real time   43.7864
    SETDIJ:  cpu time    0.0616: real time    0.0617
     EDDAV:  cpu time   26.5641: real time   26.6374
       DOS:  cpu time    0.0000: real time    0.0000
    CHARGE:  cpu time    5.6664: real time    5.6821
    MIXING:  cpu time    1.4538: real time    1.4577
    --------------------------------------------
      LOOP:  cpu time   77.4152: real time   77.6304

 eigenvalue-minimisations  :    43
 total energy-change (2. order) :-0.9867521E-03  (-0.2992633E-03)
 number of electron      24.0000000 magnetization 
 augmentation part        0.0940076 magnetization 

 Broyden mixing:
  rms(total) = 0.29735E-01    rms(broyden)= 0.29735E-01
  rms(prec ) = 0.31304E-01
  weight for this iteration     100.00

 eigenvalues of (default mixing * dielectric matrix)
  average eigenvalue GAMMA=   1.4811
  2.4777  2.4777  1.0635  1.0635  0.9022  0.9022

 Free energy of the ion-electron system (eV)
  ---------------------------------------------------
  alpha Z        PSCENC =         0.03818037
  Ewald energy   TEWEN  =      1514.39264394
  -Hartree energ DENC   =     -2519.36681550
  -exchange      EXHF   =         0.00000000
  -V(xc)+E(xc)   XCENC  =        80.18712736
  PAW double counting   =     12791.31735087   -12783.90824543
  entropy T*S    EENTRO =        -0.00000000
  eigenvalues    EBANDS =      -338.55651285
  atomic energy  EATOM  =      1209.01886776
  Solvation  Ediel_sol  =         0.00000000
  ---------------------------------------------------
  free energy    TOTEN  =       -46.87740348 eV

  energy without entropy =      -46.87740348  energy(sigma->0) =      -46.87740348


--------------------------------------------------------------------------------------------------------




----------------------------------------- Iteration    1(  12)  ---------------------------------------


    POTLOK:  cpu time   43.7203: real time   43.8402
    SETDIJ:  cpu time    0.0603: real time    0.0604
     EDDAV:  cpu time   26.5518: real time   26.6250
       DOS:  cpu time    0.0000: real time    0.0000
    CHARGE:  cpu time    5.6742: real time    5.6896
    MIXING:  cpu time    1.5091: real time    1.5134
    --------------------------------------------
      LOOP:  cpu time   77.5179: real time   77.7338

 eigenvalue-minimisations  :    43
 total energy-change (2. order) :-0.2141213E-02  (-0.1892013E-03)
 number of electron      24.0000000 magnetization 
 augmentation part        0.0942327 magnetization 

 Broyden mixing:
  rms(total) = 0.13170E-01    rms(broyden)= 0.13170E-01
  rms(prec ) = 0.14842E-01
  weight for this iteration     100.00

 eigenvalues of (default mixing * dielectric matrix)
  average eigenvalue GAMMA=   1.4013
  2.6790  2.3526  1.2213  0.9743  0.9743  0.8037  0.8037

 Free energy of the ion-electron system (eV)
  ---------------------------------------------------
  alpha Z        PSCENC =         0.03818037
  Ewald energy   TEWEN  =      1514.39264394
  -Hartree energ DENC   =     -2520.87050222
  -exchange      EXHF   =         0.00000000
  -V(xc)+E(xc)   XCENC  =        80.20254761
  PAW double counting   =     12695.39421557   -12687.98172898
  entropy T*S    EENTRO =        -0.00000000
  eigenvalues    EBANDS =      -337.07376873
  atomic energy  EATOM  =      1209.01886776
  Solvation  Ediel_sol  =         0.00000000
  ---------------------------------------------------
  free energy    TOTEN  =       -46.87954469 eV

  energy without entropy =      -46.87954469  energy(sigma->0) =      -46.87954469


--------------------------------------------------------------------------------------------------------




----------------------------------------- Iteration    1(  13)  ---------------------------------------


    POTLOK:  cpu time   43.7375: real time   43.8575
    SETDIJ:  cpu time    0.0594: real time    0.0596
     EDDAV:  cpu time   27.0246: real time   27.0989
       DOS:  cpu time    0.0000: real time    0.0000
    CHARGE:  cpu time    5.6682: real time    5.6839
    MIXING:  cpu time    1.5793: real time    1.5835
    --------------------------------------------
      LOOP:  cpu time   78.0714: real time   78.2883

 eigenvalue-minimisations  :    44
 total energy-change (2. order) :-0.2003647E-02  (-0.7135840E-04)
 number of electron      24.0000000 magnetization 
 augmentation part        0.0939846 magnetization 

 Broyden mixing:
  rms(total) = 0.15447E-01    rms(broyden)= 0.15447E-01
  rms(prec ) = 0.16447E-01
  weight for this iteration     100.00

 eigenvalues of (default mixing * dielectric matrix)
  average eigenvalue GAMMA=   1.4634
  2.2621  2.2621  1.7970  1.7970  0.9862  0.9247  0.8390  0.8390

 Free energy of the ion-electron system (eV)
  ---------------------------------------------------
  alpha Z        PSCENC =         0.03818037
  Ewald energy   TEWEN  =      1514.39264394
  -Hartree energ DENC   =     -2521.78652300
  -exchange      EXHF   =         0.00000000
  -V(xc)+E(xc)   XCENC  =        80.22231901
  PAW double counting   =     12719.82196453   -12712.41059224
  entropy T*S    EENTRO =        -0.00000000
  eigenvalues    EBANDS =      -336.17840870
  atomic energy  EATOM  =      1209.01886776
  Solvation  Ediel_sol  =         0.00000000
  ---------------------------------------------------
  free energy    TOTEN  =       -46.88154834 eV

  energy without entropy =      -46.88154834  energy(sigma->0) =      -46.88154834


--------------------------------------------------------------------------------------------------------




----------------------------------------- Iteration    1(  14)  ---------------------------------------


    POTLOK:  cpu time   43.7833: real time   43.9033
    SETDIJ:  cpu time    0.0527: real time    0.0528
     EDDAV:  cpu time   27.0333: real time   27.1076
       DOS:  cpu time    0.0000: real time    0.0000
    CHARGE:  cpu time    5.6615: real time    5.6772
    MIXING:  cpu time    1.6495: real time    1.6541
    --------------------------------------------
      LOOP:  cpu time   78.1825: real time   78.4005

 eigenvalue-minimisations  :    44
 total energy-change (2. order) :-0.3826909E-02  (-0.3510054E-04)
 number of electron      24.0000000 magnetization 
 augmentation part        0.0940211 magnetization 

 Broyden mixing:
  rms(total) = 0.63552E-02    rms(broyden)= 0.63552E-02
  rms(prec ) = 0.76870E-02
  weight for this iteration     100.00

 eigenvalues of (default mixing * dielectric matrix)
  average eigenvalue GAMMA=   1.5926
  3.5471  2.6189  2.1204  1.2648  1.2648  0.8903  0.8903  0.8683  0.8683

 Free energy of the ion-electron system (eV)
  ---------------------------------------------------
  alpha Z        PSCENC =         0.03818037
  Ewald energy   TEWEN  =      1514.39264394
  -Hartree energ DENC   =     -2522.50510692
  -exchange      EXHF   =         0.00000000
  -V(xc)+E(xc)   XCENC  =        80.22588004
  PAW double counting   =     12703.00045326   -12695.58814547
  entropy T*S    EENTRO =        -0.00000000
  eigenvalues    EBANDS =      -335.46814823
  atomic energy  EATOM  =      1209.01886776
  Solvation  Ediel_sol  =         0.00000000
  ---------------------------------------------------
  free energy    TOTEN  =       -46.88537525 eV

  energy without entropy =      -46.88537525  energy(sigma->0) =      -46.88537525


--------------------------------------------------------------------------------------------------------




----------------------------------------- Iteration    1(  15)  ---------------------------------------


    POTLOK:  cpu time   43.8015: real time   43.9216
    SETDIJ:  cpu time    0.0481: real time    0.0482
     EDDAV:  cpu time   27.0218: real time   27.0962
       DOS:  cpu time    0.0000: real time    0.0000
    CHARGE:  cpu time    5.6660: real time    5.6814
    MIXING:  cpu time    1.7227: real time    1.7275
    --------------------------------------------
      LOOP:  cpu time   78.2623: real time   78.4802

 eigenvalue-minimisations  :    44
 total energy-change (2. order) :-0.3738461E-02  (-0.7572352E-04)
 number of electron      24.0000000 magnetization 
 augmentation part        0.0939462 magnetization 

 Broyden mixing:
  rms(total) = 0.60251E-02    rms(broyden)= 0.60251E-02
  rms(prec ) = 0.65332E-02
  weight for this iteration     100.00

 eigenvalues of (default mixing * dielectric matrix)
  average eigenvalue GAMMA=   1.5110
  3.6663  2.4317  2.0580  1.0884  1.0884  1.1456  1.1456  0.8852  0.8852  0.7157

 Free energy of the ion-electron system (eV)
  ---------------------------------------------------
  alpha Z        PSCENC =         0.03818037
  Ewald energy   TEWEN  =      1514.39264394
  -Hartree energ DENC   =     -2523.67809866
  -exchange      EXHF   =         0.00000000
  -V(xc)+E(xc)   XCENC  =        80.23911974
  PAW double counting   =     12671.98520512   -12664.57261602
  entropy T*S    EENTRO =        -0.00000000
  eigenvalues    EBANDS =      -334.31241597
  atomic energy  EATOM  =      1209.01886776
  Solvation  Ediel_sol  =         0.00000000
  ---------------------------------------------------
  free energy    TOTEN  =       -46.88911371 eV

  energy without entropy =      -46.88911371  energy(sigma->0) =      -46.88911371


--------------------------------------------------------------------------------------------------------




----------------------------------------- Iteration    1(  16)  ---------------------------------------


    POTLOK:  cpu time   43.8239: real time   43.9441
    SETDIJ:  cpu time    0.0600: real time    0.0601
     EDDAV:  cpu time   33.7282: real time   33.8210
       DOS:  cpu time    0.0000: real time    0.0000
    CHARGE:  cpu time    5.6647: real time    5.6804
    MIXING:  cpu time    1.7941: real time    1.7988
    --------------------------------------------
      LOOP:  cpu time   85.0731: real time   85.3095

 eigenvalue-minimisations  :    59
 total energy-change (2. order) :-0.1259991E-02  (-0.5896548E-05)
 number of electron      24.0000000 magnetization 
 augmentation part        0.0938774 magnetization 

 Broyden mixing:
  rms(total) = 0.47678E-02    rms(broyden)= 0.47678E-02
  rms(prec ) = 0.52386E-02
  weight for this iteration     100.00

 eigenvalues of (default mixing * dielectric matrix)
  average eigenvalue GAMMA=   1.5905
  2.8464  2.8464  2.3975  2.3975  1.3510  1.3510  0.8420  0.8420  0.8808  0.8703
  0.8703

 Free energy of the ion-electron system (eV)
  ---------------------------------------------------
  alpha Z        PSCENC =         0.03818037
  Ewald energy   TEWEN  =      1514.39264394
  -Hartree energ DENC   =     -2523.87423914
  -exchange      EXHF   =         0.00000000
  -V(xc)+E(xc)   XCENC  =        80.24014656
  PAW double counting   =     12674.01678477   -12666.60389369
  entropy T*S    EENTRO =        -0.00000000
  eigenvalues    EBANDS =      -334.11886426
  atomic energy  EATOM  =      1209.01886776
  Solvation  Ediel_sol  =         0.00000000
  ---------------------------------------------------
  free energy    TOTEN  =       -46.89037370 eV

  energy without entropy =      -46.89037370  energy(sigma->0) =      -46.89037370


--------------------------------------------------------------------------------------------------------




----------------------------------------- Iteration    1(  17)  ---------------------------------------


    POTLOK:  cpu time   43.8457: real time   43.9659
    SETDIJ:  cpu time    0.0594: real time    0.0595
     EDDAV:  cpu time   22.5262: real time   22.5883
       DOS:  cpu time    0.0000: real time    0.0000
    CHARGE:  cpu time    5.6698: real time    5.6855
    MIXING:  cpu time    1.8746: real time    1.8798
    --------------------------------------------
      LOOP:  cpu time   73.9779: real time   74.2082

 eigenvalue-minimisations  :    34
 total energy-change (2. order) :-0.3568252E-02  (-0.2407805E-04)
 number of electron      24.0000000 magnetization 
 augmentation part        0.0938927 magnetization 

 Broyden mixing:
  rms(total) = 0.92363E-02    rms(broyden)= 0.92363E-02
  rms(prec ) = 0.93322E-02
  weight for this iteration     100.00

 eigenvalues of (default mixing * dielectric matrix)
  average eigenvalue GAMMA=   1.7458
  5.9445  2.7883  2.3573  1.5087  1.5087  1.5195  0.9028  0.9028  0.9627  0.9627
  0.7958  0.7958

 Free energy of the ion-electron system (eV)
  ---------------------------------------------------
  alpha Z        PSCENC =         0.03818037
  Ewald energy   TEWEN  =      1514.39264394
  -Hartree energ DENC   =     -2524.18709641
  -exchange      EXHF   =         0.00000000
  -V(xc)+E(xc)   XCENC  =        80.23511926
  PAW double counting   =     12663.85022188   -12656.43609203
  entropy T*S    EENTRO =        -0.00000000
  eigenvalues    EBANDS =      -333.80578672
  atomic energy  EATOM  =      1209.01886776
  Solvation  Ediel_sol  =         0.00000000
  ---------------------------------------------------
  free energy    TOTEN  =       -46.89394195 eV

  energy without entropy =      -46.89394195  energy(sigma->0) =      -46.89394195


--------------------------------------------------------------------------------------------------------




----------------------------------------- Iteration    1(  18)  ---------------------------------------


    POTLOK:  cpu time   43.8155: real time   43.9357
    SETDIJ:  cpu time    0.0609: real time    0.0611
     EDDAV:  cpu time   26.5579: real time   26.6308
       DOS:  cpu time    0.0000: real time    0.0000
    CHARGE:  cpu time    5.6676: real time    5.6833
    MIXING:  cpu time    1.9661: real time    1.9715
    --------------------------------------------
      LOOP:  cpu time   78.0704: real time   78.2875

 eigenvalue-minimisations  :    43
 total energy-change (2. order) :-0.1082860E-02  (-0.2934119E-04)
 number of electron      24.0000000 magnetization 
 augmentation part        0.0938767 magnetization 

 Broyden mixing:
  rms(total) = 0.34544E-02    rms(broyden)= 0.34544E-02
  rms(prec ) = 0.35162E-02
  weight for this iteration     100.00

 eigenvalues of (default mixing * dielectric matrix)
  average eigenvalue GAMMA=   1.6425
  5.9595  2.7103  2.3617  1.4847  1.4847  1.5326  1.0327  1.0327  0.9024  0.9024
  0.7517  0.7517  0.4449

 Free energy of the ion-electron system (eV)
  ---------------------------------------------------
  alpha Z        PSCENC =         0.03818037
  Ewald energy   TEWEN  =      1514.39264394
  -Hartree energ DENC   =     -2524.69404825
  -exchange      EXHF   =         0.00000000
  -V(xc)+E(xc)   XCENC  =        80.24036009
  PAW double counting   =     12661.18280844   -12653.76823650
  entropy T*S    EENTRO =        -0.00000000
  eigenvalues    EBANDS =      -333.30560066
  atomic energy  EATOM  =      1209.01886776
  Solvation  Ediel_sol  =         0.00000000
  ---------------------------------------------------
  free energy    TOTEN  =       -46.89502481 eV

  energy without entropy =      -46.89502481  energy(sigma->0) =      -46.89502481


--------------------------------------------------------------------------------------------------------




----------------------------------------- Iteration    1(  19)  ---------------------------------------


    POTLOK:  cpu time   43.8181: real time   43.9380
    SETDIJ:  cpu time    0.0554: real time    0.0555
     EDDAV:  cpu time   30.6015: real time   30.6858
       DOS:  cpu time    0.0000: real time    0.0000
    CHARGE:  cpu time    5.6725: real time    5.6879
    MIXING:  cpu time    2.0494: real time    2.0550
    --------------------------------------------
      LOOP:  cpu time   82.1990: real time   82.4271

 eigenvalue-minimisations  :    52
 total energy-change (2. order) :-0.1254489E-03  (-0.2052338E-05)
 number of electron      24.0000000 magnetization 
 augmentation part        0.0938879 magnetization 

 Broyden mixing:
  rms(total) = 0.19044E-02    rms(broyden)= 0.19044E-02
  rms(prec ) = 0.20040E-02
  weight for this iteration     100.00

 eigenvalues of (default mixing * dielectric matrix)
  average eigenvalue GAMMA=   1.7328
  6.5936  3.2019  2.1070  2.1070  1.6713  1.6713  1.4025  0.8925  0.8925  0.8924
  0.8924  0.8590  0.5375  0.5375

 Free energy of the ion-electron system (eV)
  ---------------------------------------------------
  alpha Z        PSCENC =         0.03818037
  Ewald energy   TEWEN  =      1514.39264394
  -Hartree energ DENC   =     -2524.69918131
  -exchange      EXHF   =         0.00000000
  -V(xc)+E(xc)   XCENC  =        80.24014312
  PAW double counting   =     12662.14411344   -12654.72951076
  entropy T*S    EENTRO =        -0.00000000
  eigenvalues    EBANDS =      -333.30040683
  atomic energy  EATOM  =      1209.01886776
  Solvation  Ediel_sol  =         0.00000000
  ---------------------------------------------------
  free energy    TOTEN  =       -46.89515026 eV

  energy without entropy =      -46.89515026  energy(sigma->0) =      -46.89515026


--------------------------------------------------------------------------------------------------------




----------------------------------------- Iteration    1(  20)  ---------------------------------------


    POTLOK:  cpu time   43.8316: real time   43.9534
    SETDIJ:  cpu time    0.0498: real time    0.0499
     EDDAV:  cpu time   26.0993: real time   26.1711
       DOS:  cpu time    0.0000: real time    0.0000
    CHARGE:  cpu time    5.6688: real time    5.6841
    MIXING:  cpu time    2.1509: real time    2.1568
    --------------------------------------------
      LOOP:  cpu time   77.8025: real time   78.0203

 eigenvalue-minimisations  :    42
 total energy-change (2. order) :-0.1213761E-02  (-0.6662570E-05)
 number of electron      24.0000000 magnetization 
 augmentation part        0.0938793 magnetization 

 Broyden mixing:
  rms(total) = 0.18988E-02    rms(broyden)= 0.18988E-02
  rms(prec ) = 0.19278E-02
  weight for this iteration     100.00

 eigenvalues of (default mixing * dielectric matrix)
  average eigenvalue GAMMA=   1.8545
  7.7992  3.8784  2.6061  2.4109  1.5874  1.5874  1.4283  0.9095  0.9095  1.0253
  0.8835  0.8835  0.8198  0.5439  0.5439

 Free energy of the ion-electron system (eV)
  ---------------------------------------------------
  alpha Z        PSCENC =         0.03818037
  Ewald energy   TEWEN  =      1514.39264394
  -Hartree energ DENC   =     -2524.76847950
  -exchange      EXHF   =         0.00000000
  -V(xc)+E(xc)   XCENC  =        80.23830138
  PAW double counting   =     12660.51293515   -12653.09846941
  entropy T*S    EENTRO =        -0.00000000
  eigenvalues    EBANDS =      -333.23034371
  atomic energy  EATOM  =      1209.01886776
  Solvation  Ediel_sol  =         0.00000000
  ---------------------------------------------------
  free energy    TOTEN  =       -46.89636402 eV

  energy without entropy =      -46.89636402  energy(sigma->0) =      -46.89636402


--------------------------------------------------------------------------------------------------------




----------------------------------------- Iteration    1(  21)  ---------------------------------------


    POTLOK:  cpu time   43.7906: real time   43.9121
    SETDIJ:  cpu time    0.0579: real time    0.0581
     EDDAV:  cpu time   30.6152: real time   30.6996
       DOS:  cpu time    0.0000: real time    0.0000
    CHARGE:  cpu time    5.6659: real time    5.6816
    MIXING:  cpu time    2.2426: real time    2.2487
    --------------------------------------------
      LOOP:  cpu time   82.3744: real time   82.6045

 eigenvalue-minimisations  :    52
 total energy-change (2. order) :-0.6034230E-03  (-0.3447915E-05)
 number of electron      24.0000000 magnetization 
 augmentation part        0.0938730 magnetization 

 Broyden mixing:
  rms(total) = 0.16652E-02    rms(broyden)= 0.16652E-02
  rms(prec ) = 0.16742E-02
  weight for this iteration     100.00

 eigenvalues of (default mixing * dielectric matrix)
  average eigenvalue GAMMA=   1.8771
  8.0516  4.1216  2.4907  2.4907  1.6315  1.6315  1.7373  1.3029  1.0850  0.9075
  0.9075  0.8948  0.8948  0.8011  0.5427  0.5427

 Free energy of the ion-electron system (eV)
  ---------------------------------------------------
  alpha Z        PSCENC =         0.03818037
  Ewald energy   TEWEN  =      1514.39264394
  -Hartree energ DENC   =     -2524.78974344
  -exchange      EXHF   =         0.00000000
  -V(xc)+E(xc)   XCENC  =        80.23740617
  PAW double counting   =     12662.75786128   -12655.34343961
  entropy T*S    EENTRO =        -0.00000000
  eigenvalues    EBANDS =      -333.20874391
  atomic energy  EATOM  =      1209.01886776
  Solvation  Ediel_sol  =         0.00000000
  ---------------------------------------------------
  free energy    TOTEN  =       -46.89696744 eV

  energy without entropy =      -46.89696744  energy(sigma->0) =      -46.89696744


--------------------------------------------------------------------------------------------------------




----------------------------------------- Iteration    1(  22)  ---------------------------------------


    POTLOK:  cpu time   43.8441: real time   43.9643
    SETDIJ:  cpu time    0.0541: real time    0.0542
     EDDAV:  cpu time   33.2980: real time   33.3895
       DOS:  cpu time    0.0000: real time    0.0000
    CHARGE:  cpu time    5.6631: real time    5.6787
    MIXING:  cpu time    2.3596: real time    2.3660
    --------------------------------------------
      LOOP:  cpu time   85.2209: real time   85.4575

 eigenvalue-minimisations  :    58
 total energy-change (2. order) :-0.1948767E-03  (-0.3367321E-06)
 number of electron      24.0000000 magnetization 
 augmentation part        0.0938616 magnetization 

 Broyden mixing:
  rms(total) = 0.10134E-02    rms(broyden)= 0.10134E-02
  rms(prec ) = 0.10201E-02
  weight for this iteration     100.00

 eigenvalues of (default mixing * dielectric matrix)
  average eigenvalue GAMMA=   1.9521
  8.5207  4.6789  2.9641  2.3995  2.3995  1.6303  1.6303  1.4191  1.0526  1.0526
  0.9062  0.9062  0.8603  0.8603  0.8323  0.5366  0.5366

 Free energy of the ion-electron system (eV)
  ---------------------------------------------------
  alpha Z        PSCENC =         0.03818037
  Ewald energy   TEWEN  =      1514.39264394
  -Hartree energ DENC   =     -2524.78691397
  -exchange      EXHF   =         0.00000000
  -V(xc)+E(xc)   XCENC  =        80.23680460
  PAW double counting   =     12661.56060717   -12654.14614971
  entropy T*S    EENTRO =        -0.00000000
  eigenvalues    EBANDS =      -333.21120248
  atomic energy  EATOM  =      1209.01886776
  Solvation  Ediel_sol  =         0.00000000
  ---------------------------------------------------
  free energy    TOTEN  =       -46.89716232 eV

  energy without entropy =      -46.89716232  energy(sigma->0) =      -46.89716232


--------------------------------------------------------------------------------------------------------




----------------------------------------- Iteration    1(  23)  ---------------------------------------


    POTLOK:  cpu time   43.7213: real time   43.8477
    SETDIJ:  cpu time    0.0615: real time    0.0617
     EDDAV:  cpu time   30.5911: real time   30.6749
       DOS:  cpu time    0.0000: real time    0.0000
    CHARGE:  cpu time    5.6717: real time    5.6875
    MIXING:  cpu time    2.4536: real time    2.4602
    --------------------------------------------
      LOOP:  cpu time   82.5014: real time   82.7367

 eigenvalue-minimisations  :    52
 total energy-change (2. order) :-0.1677412E-03  (-0.3590949E-06)
 number of electron      24.0000000 magnetization 
 augmentation part        0.0938645 magnetization 

 Broyden mixing:
  rms(total) = 0.11463E-02    rms(broyden)= 0.11463E-02
  rms(prec ) = 0.11481E-02
  weight for this iteration     100.00

 eigenvalues of (default mixing * dielectric matrix)
  average eigenvalue GAMMA=   1.9594
  8.7282  5.2703  3.0390  2.3774  2.3774  1.5672  1.5672  1.4386  1.3352  0.9014
  0.9014  1.0575  1.0575  0.8770  0.8770  0.8154  0.5405  0.5405

 Free energy of the ion-electron system (eV)
  ---------------------------------------------------
  alpha Z        PSCENC =         0.03818037
  Ewald energy   TEWEN  =      1514.39264394
  -Hartree energ DENC   =     -2524.78582070
  -exchange      EXHF   =         0.00000000
  -V(xc)+E(xc)   XCENC  =        80.23642500
  PAW double counting   =     12662.35495137   -12654.94047429
  entropy T*S    EENTRO =        -0.00000000
  eigenvalues    EBANDS =      -333.21210351
  atomic energy  EATOM  =      1209.01886776
  Solvation  Ediel_sol  =         0.00000000
  ---------------------------------------------------
  free energy    TOTEN  =       -46.89733006 eV

  energy without entropy =      -46.89733006  energy(sigma->0) =      -46.89733006


--------------------------------------------------------------------------------------------------------




----------------------------------------- Iteration    1(  24)  ---------------------------------------


    POTLOK:  cpu time   43.6957: real time   43.8150
    SETDIJ:  cpu time    0.0598: real time    0.0599
     EDDAV:  cpu time   29.6852: real time   29.7669
       DOS:  cpu time    0.0000: real time    0.0000
    CHARGE:  cpu time    5.6658: real time    5.6811
    MIXING:  cpu time    2.5702: real time    2.5774
    --------------------------------------------
      LOOP:  cpu time   81.6788: real time   81.9048

 eigenvalue-minimisations  :    50
 total energy-change (2. order) :-0.4269674E-04  (-0.5814448E-07)
 number of electron      24.0000000 magnetization 
 augmentation part        0.0938655 magnetization 

 Broyden mixing:
  rms(total) = 0.14505E-03    rms(broyden)= 0.14505E-03
  rms(prec ) = 0.15084E-03
  weight for this iteration     100.00

 eigenvalues of (default mixing * dielectric matrix)
  average eigenvalue GAMMA=   1.9728
  8.7692  5.6880  3.0729  2.4261  2.2925  2.2925  1.5308  1.5308  1.2846  1.2846
  0.9035  0.9035  0.9595  0.9595  0.8587  0.8587  0.7873  0.5399  0.5399

 Free energy of the ion-electron system (eV)
  ---------------------------------------------------
  alpha Z        PSCENC =         0.03818037
  Ewald energy   TEWEN  =      1514.39264394
  -Hartree energ DENC   =     -2524.78758755
  -exchange      EXHF   =         0.00000000
  -V(xc)+E(xc)   XCENC  =        80.23642736
  PAW double counting   =     12662.76740526   -12655.35297331
  entropy T*S    EENTRO =        -0.00000000
  eigenvalues    EBANDS =      -333.21033658
  atomic energy  EATOM  =      1209.01886776
  Solvation  Ediel_sol  =         0.00000000
  ---------------------------------------------------
  free energy    TOTEN  =       -46.89737276 eV

  energy without entropy =      -46.89737276  energy(sigma->0) =      -46.89737276


--------------------------------------------------------------------------------------------------------




----------------------------------------- Iteration    1(  25)  ---------------------------------------


    POTLOK:  cpu time   43.6362: real time   43.7560
    SETDIJ:  cpu time    0.0611: real time    0.0612
     EDDAV:  cpu time   18.9849: real time   19.0372
       DOS:  cpu time    0.0000: real time    0.0000
    CHARGE:  cpu time    5.6692: real time    5.6849
    MIXING:  cpu time    2.6814: real time    2.6886
    --------------------------------------------
      LOOP:  cpu time   71.0351: real time   71.3011

 eigenvalue-minimisations  :    26
 total energy-change (2. order) :-0.3575085E-04  (-0.1303654E-07)
 number of electron      24.0000000 magnetization 
 augmentation part        0.0938645 magnetization 

 Broyden mixing:
  rms(total) = 0.11712E-03    rms(broyden)= 0.11712E-03
  rms(prec ) = 0.12012E-03
  weight for this iteration     100.00

 eigenvalues of (default mixing * dielectric matrix)
  average eigenvalue GAMMA=   2.0023
  9.0103  6.0284  3.6997  2.7519  2.3483  2.0390  1.5613  1.5613  1.3390  1.1979
  1.1979  0.8997  0.8997  0.9674  0.9674  0.8537  0.8537  0.7885  0.5403  0.5403

 Free energy of the ion-electron system (eV)
  ---------------------------------------------------
  alpha Z        PSCENC =         0.03818037
  Ewald energy   TEWEN  =      1514.39264394
  -Hartree energ DENC   =     -2524.78807485
  -exchange      EXHF   =         0.00000000
  -V(xc)+E(xc)   XCENC  =        80.23634789
  PAW double counting   =     12662.70103772   -12655.28659998
  entropy T*S    EENTRO =        -0.00000000
  eigenvalues    EBANDS =      -333.20981135
  atomic energy  EATOM  =      1209.01886776
  Solvation  Ediel_sol  =         0.00000000
  ---------------------------------------------------
  free energy    TOTEN  =       -46.89740851 eV

  energy without entropy =      -46.89740851  energy(sigma->0) =      -46.89740851


--------------------------------------------------------------------------------------------------------




----------------------------------------- Iteration    1(  26)  ---------------------------------------


    POTLOK:  cpu time   43.5966: real time   43.7162
    SETDIJ:  cpu time    0.0616: real time    0.0618
     EDDAV:  cpu time   26.1627: real time   26.2347
       DOS:  cpu time    0.0000: real time    0.0000
    CHARGE:  cpu time    5.6706: real time    5.6863
    MIXING:  cpu time    2.8042: real time    2.8120
    --------------------------------------------
      LOOP:  cpu time   78.2980: real time   78.5165

 eigenvalue-minimisations  :    42
 total energy-change (2. order) :-0.2347675E-04  (-0.1483684E-07)
 number of electron      24.0000000 magnetization 
 augmentation part        0.0938650 magnetization 

 Broyden mixing:
  rms(total) = 0.13037E-03    rms(broyden)= 0.13037E-03
  rms(prec ) = 0.13137E-03
  weight for this iteration     100.00

 eigenvalues of (default mixing * dielectric matrix)
  average eigenvalue GAMMA=   2.0214
  9.0785  6.1917  3.8534  2.8129  2.2306  2.1773  2.1773  1.5534  1.5534  1.2466
  1.2466  0.9013  0.9013  0.9914  0.9914  0.8759  0.8759  0.9136  0.7961  0.5403
  0.5403

 Free energy of the ion-electron system (eV)
  ---------------------------------------------------
  alpha Z        PSCENC =         0.03818037
  Ewald energy   TEWEN  =      1514.39264394
  -Hartree energ DENC   =     -2524.79129574
  -exchange      EXHF   =         0.00000000
  -V(xc)+E(xc)   XCENC  =        80.23636765
  PAW double counting   =     12662.69970813   -12655.28527005
  entropy T*S    EENTRO =        -0.00000000
  eigenvalues    EBANDS =      -333.20663405
  atomic energy  EATOM  =      1209.01886776
  Solvation  Ediel_sol  =         0.00000000
  ---------------------------------------------------
  free energy    TOTEN  =       -46.89743199 eV

  energy without entropy =      -46.89743199  energy(sigma->0) =      -46.89743199


--------------------------------------------------------------------------------------------------------




----------------------------------------- Iteration    1(  27)  ---------------------------------------


    POTLOK:  cpu time   43.6207: real time   43.7404
    SETDIJ:  cpu time    0.0609: real time    0.0610
     EDDAV:  cpu time   19.8984: real time   19.9532
       DOS:  cpu time    0.0000: real time    0.0000
    CHARGE:  cpu time    5.6680: real time    5.6834
    MIXING:  cpu time    2.9305: real time    2.9386
    --------------------------------------------
      LOOP:  cpu time   72.1808: real time   72.3817

 eigenvalue-minimisations  :    28
 total energy-change (2. order) :-0.1126572E-04  (-0.3127894E-08)
 number of electron      24.0000000 magnetization 
 augmentation part        0.0938651 magnetization 

 Broyden mixing:
  rms(total) = 0.58445E-04    rms(broyden)= 0.58445E-04
  rms(prec ) = 0.59194E-04
  weight for this iteration     100.00

 eigenvalues of (default mixing * dielectric matrix)
  average eigenvalue GAMMA=   2.0670
  9.3057  6.5897  4.4533  2.8590  2.8590  2.3606  2.0021  1.5636  1.5636  1.3536
  1.1363  1.0804  1.0804  0.9007  0.9007  1.0117  0.8684  0.8684  0.8505  0.7864
  0.5403  0.5403

 Free energy of the ion-electron system (eV)
  ---------------------------------------------------
  alpha Z        PSCENC =         0.03818037
  Ewald energy   TEWEN  =      1514.39264394
  -Hartree energ DENC   =     -2524.79277040
  -exchange      EXHF   =         0.00000000
  -V(xc)+E(xc)   XCENC  =        80.23638869
  PAW double counting   =     12662.55708655   -12655.14265048
  entropy T*S    EENTRO =        -0.00000000
  eigenvalues    EBANDS =      -333.20518968
  atomic energy  EATOM  =      1209.01886776
  Solvation  Ediel_sol  =         0.00000000
  ---------------------------------------------------
  free energy    TOTEN  =       -46.89744325 eV

  energy without entropy =      -46.89744325  energy(sigma->0) =      -46.89744325


--------------------------------------------------------------------------------------------------------




----------------------------------------- Iteration    1(  28)  ---------------------------------------


    POTLOK:  cpu time   43.6675: real time   43.7870
    SETDIJ:  cpu time    0.0617: real time    0.0619
     EDDAV:  cpu time   22.5590: real time   22.6212
       DOS:  cpu time    0.0000: real time    0.0000
    CHARGE:  cpu time    5.6626: real time    5.6780
    MIXING:  cpu time    3.0615: real time    3.0699
    --------------------------------------------
      LOOP:  cpu time   75.0145: real time   75.2229

 eigenvalue-minimisations  :    34
 total energy-change (2. order) :-0.5337983E-05  (-0.2685709E-08)
 number of electron      24.0000000 magnetization 
 augmentation part        0.0938645 magnetization 

 Broyden mixing:
  rms(total) = 0.28443E-04    rms(broyden)= 0.28443E-04
  rms(prec ) = 0.28876E-04
  weight for this iteration     100.00

 eigenvalues of (default mixing * dielectric matrix)
  average eigenvalue GAMMA=   2.0540
  9.3626  6.6750  4.5494  2.8807  2.8807  2.4466  2.1934  1.5614  1.5614  1.4950
  1.2274  1.2274  0.9029  0.9029  1.0140  1.0140  0.8542  0.8542  0.8598  0.8598
  0.8394  0.5402  0.5402

 Free energy of the ion-electron system (eV)
  ---------------------------------------------------
  alpha Z        PSCENC =         0.03818037
  Ewald energy   TEWEN  =      1514.39264394
  -Hartree energ DENC   =     -2524.79357317
  -exchange      EXHF   =         0.00000000
  -V(xc)+E(xc)   XCENC  =        80.23640023
  PAW double counting   =     12662.53927027   -12655.12483309
  entropy T*S    EENTRO =        -0.00000000
  eigenvalues    EBANDS =      -333.20440491
  atomic energy  EATOM  =      1209.01886776
  Solvation  Ediel_sol  =         0.00000000
  ---------------------------------------------------
  free energy    TOTEN  =       -46.89744859 eV

  energy without entropy =      -46.89744859  energy(sigma->0) =      -46.89744859


--------------------------------------------------------------------------------------------------------




----------------------------------------- Iteration    1(  29)  ---------------------------------------


    POTLOK:  cpu time   43.6588: real time   43.7834
    SETDIJ:  cpu time    0.0559: real time    0.0561
     EDDAV:  cpu time   26.1433: real time   26.2155
       DOS:  cpu time    0.0000: real time    0.0000
    CHARGE:  cpu time    5.6684: real time    5.6837
    MIXING:  cpu time    3.1903: real time    3.1990
    --------------------------------------------
      LOOP:  cpu time   78.7189: real time   78.9428

 eigenvalue-minimisations  :    42
 total energy-change (2. order) :-0.1845372E-05  (-0.8758914E-09)
 number of electron      24.0000000 magnetization 
 augmentation part        0.0938646 magnetization 

 Broyden mixing:
  rms(total) = 0.26103E-04    rms(broyden)= 0.26103E-04
  rms(prec ) = 0.26364E-04
  weight for this iteration     100.00

 eigenvalues of (default mixing * dielectric matrix)
  average eigenvalue GAMMA=   2.0708
  9.4486  6.9179  4.9908  3.2017  2.5365  2.5365  2.1262  2.1262  1.5647  1.5647
  1.3265  1.1917  1.0299  1.0299  0.9001  0.9001  0.9427  0.9427  0.8538  0.8538
  0.8169  0.8169  0.5403  0.5403

 Free energy of the ion-electron system (eV)
  ---------------------------------------------------
  alpha Z        PSCENC =         0.03818037
  Ewald energy   TEWEN  =      1514.39264394
  -Hartree energ DENC   =     -2524.79340002
  -exchange      EXHF   =         0.00000000
  -V(xc)+E(xc)   XCENC  =        80.23638596
  PAW double counting   =     12662.50771842   -12655.09327729
  entropy T*S    EENTRO =        -0.00000000
  eigenvalues    EBANDS =      -333.20456957
[...]
  eigenvalues    EBANDS =      -333.20443599
  atomic energy  EATOM  =      1209.01886776
  Solvation  Ediel_sol  =         0.00000000
  ---------------------------------------------------
  free energy    TOTEN  =       -46.89745242 eV

  energy without entropy =      -46.89745242  energy(sigma->0) =      -46.89745242


--------------------------------------------------------------------------------------------------------




----------------------------------------- Iteration    1(  32)  ---------------------------------------


    POTLOK:  cpu time   43.7159: real time   43.8378
    SETDIJ:  cpu time    0.0604: real time    0.0605
     EDDAV:  cpu time   18.9915: real time   19.0438
       DOS:  cpu time    0.0000: real time    0.0000
    CHARGE:  cpu time    5.6684: real time    5.6841
    MIXING:  cpu time    3.6203: real time    3.6303
    --------------------------------------------
      LOOP:  cpu time   72.0587: real time   72.2613

 eigenvalue-minimisations  :    26
 total energy-change (2. order) :-0.7643084E-06  (-0.5783178E-09)
 number of electron      24.0000000 magnetization 
 augmentation part        0.0938648 magnetization 

 Broyden mixing:
  rms(total) = 0.96700E-05    rms(broyden)= 0.96700E-05
  rms(prec ) = 0.97086E-05
  weight for this iteration     100.00

 eigenvalues of (default mixing * dielectric matrix)
  average eigenvalue GAMMA=   2.1109
  9.6240  7.4992  5.7292  4.1070  2.6572  2.6572  2.4082  2.4082  1.5652  1.5652
  1.6672  1.6672  1.1966  1.1966  0.9012  0.9012  1.0743  1.0743  0.5403  0.5403
  0.9285  0.9285  0.8647  0.8647  0.8077  0.8105  0.8105

 Free energy of the ion-electron system (eV)
  ---------------------------------------------------
  alpha Z        PSCENC =         0.03818037
  Ewald energy   TEWEN  =      1514.39264394
  -Hartree energ DENC   =     -2524.79348018
  -exchange      EXHF   =         0.00000000
  -V(xc)+E(xc)   XCENC  =        80.23637715
  PAW double counting   =     12662.49895091   -12655.08450876
  entropy T*S    EENTRO =        -0.00000000
  eigenvalues    EBANDS =      -333.20448437
  atomic energy  EATOM  =      1209.01886776
  Solvation  Ediel_sol  =         0.00000000
  ---------------------------------------------------
  free energy    TOTEN  =       -46.89745318 eV

  energy without entropy =      -46.89745318  energy(sigma->0) =      -46.89745318


--------------------------------------------------------------------------------------------------------




----------------------------------------- Iteration    1(  33)  ---------------------------------------


    POTLOK:  cpu time   43.6922: real time   43.8120
    SETDIJ:  cpu time    0.0594: real time    0.0596
     EDDAV:  cpu time   27.0660: real time   27.1404
       DOS:  cpu time    0.0000: real time    0.0000
    CHARGE:  cpu time    5.6677: real time    5.6831
    MIXING:  cpu time    3.7723: real time    3.7827
    --------------------------------------------
      LOOP:  cpu time   80.2597: real time   80.4826

 eigenvalue-minimisations  :    44
 total energy-change (2. order) :-0.1101289E-06  (-0.4652687E-09)
 number of electron      24.0000000 magnetization 
 augmentation part        0.0938648 magnetization 

 Broyden mixing:
  rms(total) = 0.53703E-05    rms(broyden)= 0.53703E-05
  rms(prec ) = 0.54034E-05
  weight for this iteration     100.00

 eigenvalues of (default mixing * dielectric matrix)
  average eigenvalue GAMMA=   2.1020
  9.6355  7.5904  5.8161  4.2561  2.7206  2.7206  2.0710  2.0710  2.1319  1.9930
  1.5623  1.5623  1.2787  1.2787  0.9006  0.9006  1.1066  1.1066  1.0016  1.0016
  0.5403  0.5403  0.8716  0.8716  0.9146  0.8384  0.7862  0.7862

 Free energy of the ion-electron system (eV)
  ---------------------------------------------------
  alpha Z        PSCENC =         0.03818037
  Ewald energy   TEWEN  =      1514.39264394
  -Hartree energ DENC   =     -2524.79347709
  -exchange      EXHF   =         0.00000000
  -V(xc)+E(xc)   XCENC  =        80.23637745
  PAW double counting   =     12662.49890042   -12655.08445851
  entropy T*S    EENTRO =        -0.00000000
  eigenvalues    EBANDS =      -333.20448763
  atomic energy  EATOM  =      1209.01886776
  Solvation  Ediel_sol  =         0.00000000
  ---------------------------------------------------
  free energy    TOTEN  =       -46.89745329 eV

  energy without entropy =      -46.89745329  energy(sigma->0) =      -46.89745329


--------------------------------------------------------------------------------------------------------




----------------------------------------- Iteration    1(  34)  ---------------------------------------


    POTLOK:  cpu time   43.6314: real time   43.7511
    SETDIJ:  cpu time    0.0570: real time    0.0571
     EDDAV:  cpu time   19.8902: real time   19.9449
       DOS:  cpu time    0.0000: real time    0.0000
    CHARGE:  cpu time    5.6646: real time    5.6803
    MIXING:  cpu time    3.9280: real time    3.9389
    --------------------------------------------
      LOOP:  cpu time   73.1734: real time   73.3775

 eigenvalue-minimisations  :    28
 total energy-change (2. order) :-0.1083044E-06  (-0.4270451E-09)
 number of electron      24.0000000 magnetization 
 augmentation part        0.0938647 magnetization 

 Broyden mixing:
  rms(total) = 0.38730E-05    rms(broyden)= 0.38730E-05
  rms(prec ) = 0.38941E-05
  weight for this iteration     100.00

 eigenvalues of (default mixing * dielectric matrix)
  average eigenvalue GAMMA=   2.0964
  9.6229  7.7183  5.8903  4.4492  3.1031  2.4668  2.4668  2.1246  2.1246  1.5667
  1.5667  1.6563  1.6563  1.2159  1.2159  0.5403  0.5403  1.0133  1.0133  0.9004
  0.9004  0.9741  0.9741  0.8717  0.8717  0.8836  0.8836  0.7916  0.7916

 Free energy of the ion-electron system (eV)
  ---------------------------------------------------
  alpha Z        PSCENC =         0.03818037
  Ewald energy   TEWEN  =      1514.39264394
  -Hartree energ DENC   =     -2524.79348671
  -exchange      EXHF   =         0.00000000
  -V(xc)+E(xc)   XCENC  =        80.23637831
  PAW double counting   =     12662.50244558   -12655.08800403
  entropy T*S    EENTRO =        -0.00000000
  eigenvalues    EBANDS =      -333.20447863
  atomic energy  EATOM  =      1209.01886776
  Solvation  Ediel_sol  =         0.00000000
  ---------------------------------------------------
  free energy    TOTEN  =       -46.89745340 eV

  energy without entropy =      -46.89745340  energy(sigma->0) =      -46.89745340


--------------------------------------------------------------------------------------------------------




----------------------------------------- Iteration    1(  35)  ---------------------------------------


    POTLOK:  cpu time   43.5983: real time   43.7197
    SETDIJ:  cpu time    0.0613: real time    0.0614
     EDDAV:  cpu time   19.8860: real time   19.9407
       DOS:  cpu time    0.0000: real time    0.0000
    --------------------------------------------
      LOOP:  cpu time   63.5477: real time   63.7271

 eigenvalue-minimisations  :    28
 total energy-change (2. order) :-0.6876871E-07  (-0.3955929E-09)
 number of electron      24.0000000 magnetization 
 augmentation part        0.0938647 magnetization 

 Free energy of the ion-electron system (eV)
  ---------------------------------------------------
  alpha Z        PSCENC =         0.03818037
  Ewald energy   TEWEN  =      1514.39264394
  -Hartree energ DENC   =     -2524.79350569
  -exchange      EXHF   =         0.00000000
  -V(xc)+E(xc)   XCENC  =        80.23637916
  PAW double counting   =     12662.50823928   -12655.09379795
  entropy T*S    EENTRO =        -0.00000000
  eigenvalues    EBANDS =      -333.20446034
  atomic energy  EATOM  =      1209.01886776
  Solvation  Ediel_sol  =         0.00000000
  ---------------------------------------------------
  free energy    TOTEN  =       -46.89745347 eV

  energy without entropy =      -46.89745347  energy(sigma->0) =      -46.89745347


--------------------------------------------------------------------------------------------------------




 average (electrostatic) potential at core
  the test charge radii are     0.5770  0.5955  0.4325
  (the norm of the test charge is              1.0000)
       1 -89.3548       2 -86.2863       3-119.1172       4-121.1673       5 -48.4796
       6 -45.2407       7 -45.4521       8 -45.4608
 
 
 
 E-fermi :  -6.2990     XC(G=0):  -0.0371     alpha+bet : -0.0113


 k-point     1 :       0.0000    0.0000    0.0000
  band No.  band energies     occupation 
      1     -28.0194      2.00000
      2     -25.3183      2.00000
      3     -18.9400      2.00000
      4     -15.5098      2.00000
      5     -11.9976      2.00000
      6     -11.7588      2.00000
      7     -11.7068      2.00000
      8     -10.1229      2.00000
      9      -9.6595      2.00000
     10      -9.4273      2.00000
     11      -7.7936      2.00000
     12      -6.3485      2.00000
     13      -1.0824      0.00000
     14      -0.8068      0.00000
     15      -0.1787      0.00000
     16       0.0070      0.00000
     17       0.1068      0.00000


--------------------------------------------------------------------------------------------------------


 soft charge-density along one line, spin component           1
         0         1         2         3         4         5         6         7         8         9
 total charge-density along one line
 
 pseudopotential strength for first ion, spin component:           1
 12.834  21.600  -0.011  -0.003   0.011  -0.019  -0.005   0.019
 21.600  36.352  -0.018  -0.004   0.018  -0.032  -0.008   0.032
 -0.011  -0.018  -3.230   0.001   0.001  -5.793   0.002   0.002
 -0.003  -0.004   0.001  -3.235   0.000   0.002  -5.802   0.001
  0.011   0.018   0.001   0.000  -3.226   0.002   0.001  -5.786
 -0.019  -0.032  -5.793   0.002   0.002 -10.370   0.004   0.003
 -0.005  -0.008   0.002  -5.802   0.001   0.004 -10.385   0.001
  0.019   0.032   0.002   0.001  -5.786   0.003   0.001 -10.356
 total augmentation occupancy for first ion, spin component:           1
  8.460  -3.195   0.649   0.170   1.853  -0.283  -0.074  -0.876
 -3.195   1.323  -0.254  -0.068  -0.970   0.121   0.032   0.434
  0.649  -0.254   9.019   1.464   1.034  -3.410  -0.630  -0.438
  0.170  -0.068   1.464   3.352   0.272  -0.629  -0.973  -0.114
  1.853  -0.970   1.034   0.272   7.079  -0.436  -0.114  -2.415
 -0.283   0.121  -3.410  -0.629  -0.436   1.326   0.267   0.191
 -0.074   0.032  -0.630  -0.973  -0.114   0.267   0.292   0.050
 -0.876   0.434  -0.438  -0.114  -2.415   0.191   0.050   0.858


------------------------ aborting loop because EDIFF is reached ----------------------------------------


    CHARGE:  cpu time    5.6575: real time    5.6731
    FORLOC:  cpu time    4.9764: real time    4.9900
    FORNL :  cpu time    2.0682: real time    2.0738
    STRESS:  cpu time   11.0967: real time   11.1271
    FORCOR:  cpu time   45.1434: real time   45.2682
    FORHAR:  cpu time   14.6218: real time   14.6617
    MIXING:  cpu time    4.0914: real time    4.1027
    OFIELD:  cpu time    0.0000: real time    0.0000

  FORCE on cell =-STRESS in cart. coord.  units (eV):
  Direction    XX          YY          ZZ          XY          YZ          ZX
  --------------------------------------------------------------------------------------
  Alpha Z     0.03818     0.03818     0.03818
  Ewald     748.71912   731.88192    33.79155     7.79449   179.24956     5.91237
  Hartree   999.04010   973.17218   552.58124    -3.77892   107.79567     1.48512
  E(xc)    -105.99158  -105.90145  -107.27763     0.09464     0.35453     0.03110
  Local   -2143.58237 -2095.97961 -1004.77802     0.77737  -279.94279    -6.07294
  n-local   -35.72472   -35.66730   -36.57994    -0.08218     0.23410    -0.01349
  augment     1.38801     1.37074     1.48314    -0.05590    -0.02939    -0.01509
  Kinetic   536.23052   532.45498   561.25018    -5.17167    -7.44300    -1.43161
  Fock        0.00000     0.00000     0.00000     0.00000     0.00000     0.00000
  -------------------------------------------------------------------------------------
  Total       0.11726     1.36964     0.50870    -0.42216     0.21869    -0.10454
  in kB       0.00438     0.05118     0.01901    -0.01578     0.00817    -0.00391
  external pressure =        0.02 kB  Pullay stress =        0.00 kB


 VOLUME and BASIS-vectors are now :
 -----------------------------------------------------------------------------
  energy-cutoff  :     2000.00
  volume of cell :    42875.00
      direct lattice vectors                 reciprocal lattice vectors
    35.000000000  0.000000000  0.000000000     0.028571429  0.000000000  0.000000000
     0.000000000 35.000000000  0.000000000     0.000000000  0.028571429  0.000000000
     0.000000000  0.000000000 35.000000000     0.000000000  0.000000000  0.028571429

  length of vectors
    35.000000000 35.000000000 35.000000000     0.028571429  0.028571429  0.028571429


 FORCES acting on ions
    electron-ion (+dipol)            ewald-force                    non-local-force                 convergence-correction
 -----------------------------------------------------------------------------------------------
   0.735E+02 0.553E+01 0.200E+01   -.789E+02 0.215E+01 -.169E+00   0.545E+01 -.572E+01 -.135E+01   0.217E-05 -.570E-05 -.137E-05
   0.164E+03 -.141E+02 -.253E+01   -.166E+03 0.153E+02 0.275E+01   0.229E+01 -.136E+01 -.261E+00   -.728E-06 0.494E-06 0.979E-07
   -.193E+03 -.285E+03 -.700E+02   0.221E+03 0.328E+03 0.805E+02   -.279E+02 -.435E+02 -.107E+02   -.228E-05 -.238E-05 -.537E-06
   -.778E+02 0.286E+03 0.689E+02   0.533E+02 -.327E+03 -.790E+02   0.257E+02 0.393E+02 0.970E+01   -.116E-05 0.417E-06 -.537E-07
   -.106E+03 0.248E+02 0.532E+01   0.113E+03 -.246E+02 -.522E+01   -.776E+01 -.448E-01 -.628E-01   -.167E-05 -.129E-06 -.625E-07
   0.440E+02 -.603E+02 -.132E+02   -.459E+02 0.660E+02 0.144E+02   0.182E+01 -.544E+01 -.120E+01   -.564E-06 0.117E-05 0.264E-06
   0.458E+02 0.154E+02 0.585E+02   -.480E+02 -.172E+02 -.638E+02   0.200E+01 0.166E+01 0.506E+01   -.283E-06 0.123E-07 -.931E-06
   0.460E+02 0.386E+02 -.463E+02   -.482E+02 -.425E+02 0.504E+02   0.202E+01 0.363E+01 -.387E+01   -.295E-06 -.376E-06 0.858E-06
 -----------------------------------------------------------------------------------------------
   -.354E+01 0.115E+02 0.268E+01   -.284E-13 -.568E-13 -.711E-14   0.354E+01 -.115E+02 -.268E+01   -.481E-05 -.650E-05 -.174E-05
 
 
 POSITION                                       TOTAL-FORCE (eV/Angst)
 -----------------------------------------------------------------------------------
     33.93829      1.29714      0.29206        -0.032035      1.959645      0.475250
     32.44157      1.34255      0.29626         0.130513     -0.167760     -0.042570
     34.64184      2.27046      0.53181        -0.030684     -0.535857     -0.130541
     34.41070      0.09492      0.00379         1.142391     -1.349622     -0.319400
      0.40444      0.12772      0.01841        -0.737611      0.151528      0.031620
     32.10400      2.34746      0.51832        -0.069834      0.272468      0.060404
     32.06711      1.02239     34.32700        -0.202422     -0.108514     -0.294794
     32.06279      0.64491      1.03956        -0.200319     -0.221889      0.220031
 -----------------------------------------------------------------------------------
    total drift:                                0.000007     -0.000029      0.000016


--------------------------------------------------------------------------------------------------------



  FREE ENERGIE OF THE ION-ELECTRON SYSTEM (eV)
  ---------------------------------------------------
  free  energy   TOTEN  =       -46.89745347 eV

  energy  without entropy=      -46.89745347  energy(sigma->0) =      -46.89745347
 


--------------------------------------------------------------------------------------------------------


    POTLOK:  cpu time   43.6303: real time   43.7498


--------------------------------------------------------------------------------------------------------


 writing wavefunctions
     LOOP+:  cpu time 3351.3773: real time 3361.5932
    4ORBIT:  cpu time    0.0000: real time    0.0000

 total amount of memory used by VASP on root node  9731702. kBytes
========================================================================

   base      :      30000. kBytes
   nonl-proj :     116099. kBytes
   fftplans  :    3255861. kBytes
   grid      :    6231056. kBytes
   one-center:          1. kBytes
   wavefun   :      98685. kBytes
 
  
  
 General timing and accounting informations for this job:
 ========================================================
  
                  Total CPU time used (sec):     4368.243
                            User time (sec):     3964.955
                          System time (sec):      403.288
                         Elapsed time (sec):     4381.292
  
                   Maximum memory used (kb):    15083424.
                   Average memory used (kb):           0.
  
                          Minor page faults:      8178772
                          Major page faults:            6
                 Voluntary context switches:          815
 
 PROFILE, used timers:      14
 =============================
 
 index                 routine                    time                            calls level
----------------------------------------------------------------------------------------------
    1    total_time                         4381.292367                                1   1
    2      w1_copy                               8.836744                           6302   2
    3      fftwav_mpi                          431.029558                           2484   2
    4      fftext_mpi                            1.915807                             17   2
    5      overl                                 0.001606                           3596   2
    6      orth1                                11.534145                           1163   2
    7      lincom                                0.691812                             36   2
    8      eccp                                 16.242474                            595   2
    9      hamiltmu                            439.554489                            387   2
   10        vhamil                               92.988389                         2095   3
   11        overl1                                0.001517                         2095   3
   12        kinhamil                            239.362558                         2095   3
   13          fftext_mpi                          236.418972                       2095   4
   14      pdssyex_zheevx                        0.038156                             35   2
 
 Flat profile
 ============
 
             routine name                   CPU           calls
 ---------------------------------------------------------------
 total_time                           3471.447577           1
 fftwav_mpi                            431.029558        2484
 fftext_mpi                            238.334779        2112
 hamiltmu                              107.202025         387
 vhamil                                 92.988389        2095
 eccp                                   16.242474         595
 orth1                                  11.534145        1163
 w1_copy                                 8.836744        6302
 kinhamil                                2.943586        2095
 lincom                                  0.691812          36
 pdssyex_zheevx                          0.038156          35
 overl                                   0.001606        3596
 overl1                                  0.001517        2095
 ---------------------------------------------------------------
  summed up times    4381.29236698151     
 
Profiling took   0.012472  0.007494  0.003316  0.003310 seconds
Profiling took   0.010736 seconds
