 vasp.5.4.1 24Jun15 (build Jan 02 2020 16:21:29) gamma-only                     
  
 executed on           IFC15_impi date 2020.07.01  23:44:03
 running on   32 total cores
 distrk:  each k-point on   32 cores,    1 groups
 distr:  one band on NCORES_PER_BAND=   8 cores,    4 groups


--------------------------------------------------------------------------------------------------------


 INCAR:
 POTCAR:    PAW_PBE N_h 06Feb2004                 
 POTCAR:    PAW_PBE O_h 06Feb2004                 
 POTCAR:    PAW_PBE H_h 06Feb2004                 
 POTCAR:    PAW_PBE C_h 06Feb2004                 
 POTCAR:    PAW_PBE N_h 06Feb2004                 
   VRHFIN =N: s2p3                                                              
   LEXCH  = PE                                                                  
   EATOM  =   264.5486 eV,   19.4438 Ry                                         
                                                                                
   TITEL  = PAW_PBE N_h 06Feb2004                                               
   LULTRA =        F    use ultrasoft PP ?                                      
   IUNSCR =        1    unscreen: 0-lin 1-nonlin 2-no                           
   RPACOR =    0.800    partial core radius                                     
   POMASS =   14.001; ZVAL   =    5.000    mass and valenz                      
   RCORE  =    1.100    outmost cutoff radius                                   
   RWIGS  =    1.480; RWIGS  =    0.783    wigner-seitz radius (au A)           
   ENMAX  =  700.000; ENMIN  =  500.000 eV                                      
   ICORE  =        2    local potential                                         
   LCOR   =        T    correct aug charges                                     
   LPAW   =        T    paw PP                                                  
   EAUG   =  904.640                                                            
   DEXC   =    0.000                                                            
   RMAX   =    1.127    core radius for proj-oper                               
   RAUG   =    1.300    factor for augmentation sphere                          
   RDEP   =    1.115    radius for radial grids                                 
   RDEPT  =    1.106    core radius for aug-charge                              
                                                                                
   Atomic configuration                                                         
    4 entries                                                                   
     n  l   j            E        occ.                                          
     1  0  0.50      -384.7179   2.0000                                         
     2  0  0.50       -18.5828   2.0000                                         
     2  1  0.50        -7.0898   3.0000                                         
     3  2  1.50        -6.8029   0.0000                                         
   Description                                                                  
     l       E           TYP  RCUT    TYP  RCUT                                 
     0    -18.5828117     23  1.100                                             
     0    -15.0750597     23  1.100                                             
     1     -7.0897851     23  1.100                                             
     1     -1.9663412     23  1.100                                             
     2     -6.8029130      7  1.100                                             
  local pseudopotential read in
  partial core-charges read in
  partial kinetic energy density read in
  kinetic energy density of atom read in
  atomic valenz-charges read in
  non local Contribution for L=           0  read in
    real space projection operators read in
  non local Contribution for L=           0  read in
    real space projection operators read in
  non local Contribution for L=           1  read in
    real space projection operators read in
  non local Contribution for L=           1  read in
    real space projection operators read in
    PAW grid and wavefunctions read in
 
   number of l-projection  operators is LMAX  =           4
   number of lm-projection operators is LMMAX =           8
 
 POTCAR:    PAW_PBE O_h 06Feb2004                 
   VRHFIN =O: s2p4                                                              
   LEXCH  = PE                                                                  
   EATOM  =   432.3788 eV,   31.7789 Ry                                         
                                                                                
   TITEL  = PAW_PBE O_h 06Feb2004                                               
   LULTRA =        F    use ultrasoft PP ?                                      
   IUNSCR =        1    unscreen: 0-lin 1-nonlin 2-no                           
   RPACOR =    0.800    partial core radius                                     
   POMASS =   16.000; ZVAL   =    6.000    mass and valenz                      
   RCORE  =    1.100    outmost cutoff radius                                   
   RWIGS  =    1.400; RWIGS  =    0.741    wigner-seitz radius (au A)           
   ENMAX  =  700.000; ENMIN  =  500.000 eV                                      
   ICORE  =        2    local potential                                         
   LCOR   =        T    correct aug charges                                     
   LPAW   =        T    paw PP                                                  
   EAUG   =  888.804                                                            
   DEXC   =    0.000                                                            
   RMAX   =    1.128    core radius for proj-oper                               
   RAUG   =    1.300    factor for augmentation sphere                          
   RDEP   =    1.125    radius for radial grids                                 
   RDEPT  =    1.088    core radius for aug-charge                              
                                                                                
   Atomic configuration                                                         
    4 entries                                                                   
     n  l   j            E        occ.                                          
     1  0  0.50      -514.6923   2.0000                                         
     2  0  0.50       -23.9615   2.0000                                         
     2  1  0.50        -9.0305   4.0000                                         
     3  2  1.50        -9.5241   0.0000                                         
   Description                                                                  
     l       E           TYP  RCUT    TYP  RCUT                                 
     0    -23.9615319     23  1.100                                             
     0    -25.3221145     23  1.100                                             
     1     -9.0304911     23  1.100                                             
     1     -5.4802209     23  1.100                                             
     2     -9.5240782      7  1.100                                             
  local pseudopotential read in
  partial core-charges read in
  partial kinetic energy density read in
  atomic valenz-charges read in
  non local Contribution for L=           0  read in
    real space projection operators read in
  non local Contribution for L=           0  read in
    real space projection operators read in
  non local Contribution for L=           1  read in
    real space projection operators read in
  non local Contribution for L=           1  read in
    real space projection operators read in
    PAW grid and wavefunctions read in
 
   number of l-projection  operators is LMAX  =           4
   number of lm-projection operators is LMMAX =           8
 
 POTCAR:    PAW_PBE H_h 06Feb2004                 
   VRHFIN =H: ultrasoft test                                                    
   LEXCH  = PE                                                                  
   EATOM  =    12.4884 eV,    0.9179 Ry                                         
                                                                                
   TITEL  = PAW_PBE H_h 06Feb2004                                               
   LULTRA =        F    use ultrasoft PP ?                                      
   IUNSCR =        0    unscreen: 0-lin 1-nonlin 2-no                           
   RPACOR =    0.000    partial core radius                                     
   POMASS =    1.000; ZVAL   =    1.000    mass and valenz                      
   RCORE  =    0.800    outmost cutoff radius                                   
   RWIGS  =    0.700; RWIGS  =    0.370    wigner-seitz radius (au A)           
   ENMAX  =  700.000; ENMIN  =  350.000 eV                                      
   RCLOC  =    0.701    cutoff for local pot                                    
   LCOR   =        T    correct aug charges                                     
   LPAW   =        T    paw PP                                                  
   EAUG   = 1000.000                                                            
   RMAX   =    0.819    core radius for proj-oper                               
   RAUG   =    1.000    factor for augmentation sphere                          
   RDEP   =    0.817    radius for radial grids                                 
   RDEPT  =    0.817    core radius for aug-charge                              
                                                                                
   Atomic configuration                                                         
    2 entries                                                                   
     n  l   j            E        occ.                                          
     1  0  0.50        -6.4927   1.0000                                         
     2  1  0.50        -3.4015   0.0000                                         
   Description                                                                  
     l       E           TYP  RCUT    TYP  RCUT                                 
     0     -6.4927493     23  0.800                                             
     0      6.8029130     23  0.800                                             
     1     -6.8029130     23  0.800                                             
  local pseudopotential read in
  atomic valenz-charges read in
  non local Contribution for L=           0  read in
    real space projection operators read in
  non local Contribution for L=           0  read in
    real space projection operators read in
  non local Contribution for L=           1  read in
    real space projection operators read in
    PAW grid and wavefunctions read in
 
   number of l-projection  operators is LMAX  =           3
   number of lm-projection operators is LMMAX =           5
 
 POTCAR:    PAW_PBE C_h 06Feb2004                 
   VRHFIN =C: s2p2                                                              
   LEXCH  = PE                                                                  
   EATOM  =   147.1560 eV,   10.8157 Ry                                         
                                                                                
   TITEL  = PAW_PBE C_h 06Feb2004                                               
   LULTRA =        F    use ultrasoft PP ?                                      
   IUNSCR =        1    unscreen: 0-lin 1-nonlin 2-no                           
   RPACOR =    0.800    partial core radius                                     
   POMASS =   12.011; ZVAL   =    4.000    mass and valenz                      
   RCORE  =    1.100    outmost cutoff radius                                   
   RWIGS  =    1.630; RWIGS  =    0.863    wigner-seitz radius (au A)           
   ENMAX  =  700.000; ENMIN  =  500.000 eV                                      
   ICORE  =        2    local potential                                         
   LCOR   =        T    correct aug charges                                     
   LPAW   =        T    paw PP                                                  
   EAUG   =  946.768                                                            
   DEXC   =    0.000                                                            
   RMAX   =    1.128    core radius for proj-oper                               
   RAUG   =    1.300    factor for augmentation sphere                          
   RDEP   =    1.162    radius for radial grids                                 
   RDEPT  =    1.088    core radius for aug-charge                              
                                                                                
   Atomic configuration                                                         
    4 entries                                                                   
     n  l   j            E        occ.                                          
     1  0  0.50      -273.3789   2.0000                                         
     2  0  0.50       -13.7508   2.0000                                         
     2  1  0.50        -5.2854   2.0000                                         
     3  2  1.50        -5.4423   0.0000                                         
   Description                                                                  
     l       E           TYP  RCUT    TYP  RCUT                                 
     0    -13.7508458     23  1.100                                             
     0     -8.2022199     23  1.100                                             
     1     -5.2854383     23  1.100                                             
     1      1.1560700     23  1.100                                             
     2     -5.4423304      7  1.100                                             
  local pseudopotential read in
  partial core-charges read in
  partial kinetic energy density read in
  atomic valenz-charges read in
  non local Contribution for L=           0  read in
    real space projection operators read in
  non local Contribution for L=           0  read in
    real space projection operators read in
  non local Contribution for L=           1  read in
    real space projection operators read in
  non local Contribution for L=           1  read in
    real space projection operators read in
    PAW grid and wavefunctions read in
 
   number of l-projection  operators is LMAX  =           4
   number of lm-projection operators is LMMAX =           8
 
  PAW_PBE N_h 06Feb2004                 :
 energy of atom  1       EATOM= -264.5486
 kinetic energy error for atom=    0.0009 (will be added to EATOM!!)
  PAW_PBE O_h 06Feb2004                 :
 energy of atom  2       EATOM= -432.3788
 kinetic energy error for atom=    0.0016 (will be added to EATOM!!)
  PAW_PBE H_h 06Feb2004                 :
 energy of atom  3       EATOM=  -12.4884
 kinetic energy error for atom=    0.0001 (will be added to EATOM!!)
  PAW_PBE C_h 06Feb2004                 :
 energy of atom  4       EATOM= -147.1560
 kinetic energy error for atom=    0.0004 (will be added to EATOM!!)
 
 
 POSCAR: N O H C                                 
  positions in cartesian coordinates
  No initial velocities read in
 exchange correlation table for  LEXCH =        8
   RHO(1)=    0.500       N(1)  =     2000
   RHO(2)=  100.500       N(2)  =     4000
 


--------------------------------------------------------------------------------------------------------


 ion  position               nearest neighbor table
   1  0.994  0.972  0.015-   5 1.01  12 1.38   9 1.40
   2  0.028  0.029  0.017-   8 1.01  11 1.37  12 1.38
   3  0.930  0.971  0.006-   9 1.22
   4  0.059  0.972  0.027-  12 1.22
   5  0.994  0.944  0.017-   1 1.01
   6  0.936  0.048  0.001-  10 1.08
   7  0.999  0.079  0.010-  11 1.08
   8  0.053  0.042  0.021-   2 1.01
   9  0.959  0.990  0.009-   3 1.22   1 1.40  10 1.45
  10  0.961  0.032  0.007-   6 1.08  11 1.35   9 1.45
  11  0.995  0.049  0.011-   7 1.08  10 1.35   2 1.37
  12  0.029  0.989  0.020-   4 1.22   1 1.38   2 1.38
 
  LATTYP: Found a simple cubic cell.
 ALAT       =    35.0000000000
  
  Lattice vectors:
  
 A1 = (  35.0000000000,   0.0000000000,   0.0000000000)
 A2 = (   0.0000000000,  35.0000000000,   0.0000000000)
 A3 = (   0.0000000000,   0.0000000000,  35.0000000000)


Analysis of symmetry for initial positions (statically):
=====================================================================
 Subroutine PRICEL returns:
 Original cell was already a primitive cell.
 

 Routine SETGRP: Setting up the symmetry group for a 
 simple cubic supercell.


 Subroutine GETGRP returns: Found  1 space group operations
 (whereof  1 operations were pure point group operations)
 out of a pool of 48 trial point group operations.


The static configuration has the point symmetry C_1 .


Analysis of symmetry for dynamics (positions and initial velocities):
=====================================================================
 Subroutine PRICEL returns:
 Original cell was already a primitive cell.
 

 Routine SETGRP: Setting up the symmetry group for a 
 simple cubic supercell.


 Subroutine GETGRP returns: Found  1 space group operations
 (whereof  1 operations were pure point group operations)
 out of a pool of 48 trial point group operations.


The dynamic configuration has the point symmetry C_1 .
 
 
 KPOINTS: automatic mesh                          

Automatic generation of k-mesh.
Space group operators:
 irot       det(A)        alpha          n_x          n_y          n_z        tau_x        tau_y        tau_z
    1     1.000000     0.000000     1.000000     0.000000     0.000000     0.000000     0.000000     0.000000
 
 Subroutine IBZKPT returns following result:
 ===========================================
 
 Found      1 irreducible k-points:
 
 Following reciprocal coordinates:
            Coordinates               Weight
  0.000000  0.000000  0.000000      1.000000
 
 Following cartesian coordinates:
            Coordinates               Weight
  0.000000  0.000000  0.000000      1.000000
 


--------------------------------------------------------------------------------------------------------




 Dimension of arrays:
   k-points           NKPTS =      1   k-points in BZ     NKDIM =      1   number of bands    NBANDS=     28
   number of dos      NEDOS =    301   number of ions     NIONS =     12
   non local maximal  LDIM  =      4   non local SUM 2l+1 LMDIM =      8
   total plane-waves  NPLWV = ******
   max r-space proj   IRMAX =      1   max aug-charges    IRDMAX=  23028
   dimension x,y,z NGX =   512 NGY =  512 NGZ =  512
   dimension x,y,z NGXF=  1024 NGYF= 1024 NGZF= 1024
   support grid    NGXF=  1024 NGYF= 1024 NGZF= 1024
   ions per type =               2   2   4   4
 NGX,Y,Z   is equivalent  to a cutoff of  24.32, 24.32, 24.32 a.u.
 NGXF,Y,Z  is equivalent  to a cutoff of  48.64, 48.64, 48.64 a.u.


 I would recommend the setting:
   dimension x,y,z NGX =   511 NGY =  511 NGZ =  511
 SYSTEM =  C                                       
 POSCAR =  N O H C                                 

 Startparameter for this run:
   NWRITE =      2    write-flag & timer
   PREC   = acc       normal or accurate (medium, high low for compatibility)
   ISTART =      0    job   : 0-new  1-cont  2-samecut
   ICHARG =      2    charge: 1-file 2-atom 10-const
   ISPIN  =      1    spin polarized calculation?
   LNONCOLLINEAR =      F non collinear calculations
   LSORBIT =      F    spin-orbit coupling
   INIWAV =      1    electr: 0-lowe 1-rand  2-diag
   LASPH  =      T    aspherical Exc in radial PAW
   METAGGA=      F    non-selfconsistent MetaGGA calc.

 Electronic Relaxation 1
   ENCUT  = 2000.0 eV 147.00 Ry   12.12 a.u. 127.63127.63127.63*2*pi/ulx,y,z
   ENINI  = 2000.0     initial cutoff
   ENAUG  = 1000.0 eV  augmentation charge cutoff
   NELM   =     60;   NELMIN=  2; NELMDL= -5     # of ELM steps 
   EDIFF  = 0.1E-06   stopping-criterion for ELM
   LREAL  =      F    real-space projection
   NLSPLINE    = F    spline interpolate recip. space projectors
   LCOMPAT=      F    compatible to vasp.4.4
   GGA_COMPAT  = T    GGA compatible to vasp.4.4-vasp.4.6
   LMAXPAW     = -100 max onsite density
   LMAXMIX     =    2 max onsite mixed and CHGCAR
   VOSKOWN=      0    Vosko Wilk Nusair interpolation
   ROPT   =    0.00000   0.00000   0.00000   0.00000
 Ionic relaxation
   EDIFFG = 0.1E-05   stopping-criterion for IOM
   NSW    =      0    number of steps for IOM
   NBLOCK =      1;   KBLOCK =      1    inner block; outer block 
   IBRION =     -1    ionic relax: 0-MD 1-quasi-New 2-CG
   NFREE  =      0    steps in history (QN), initial steepest desc. (CG)
   ISIF   =      2    stress and relaxation
   IWAVPR =     10    prediction:  0-non 1-charg 2-wave 3-comb
   ISYM   =      2    0-nonsym 1-usesym 2-fastsym
   LCORR  =      T    Harris-Foulkes like correction to forces

   POTIM  = 0.5000    time-step for ionic-motion
   TEIN   =    0.0    initial temperature
   TEBEG  =    0.0;   TEEND  =   0.0 temperature during run
   SMASS  =  -3.00    Nose mass-parameter (am)
   estimated Nose-frequenzy (Omega)   =  0.10E-29 period in steps =****** mass=  -0.280E-25a.u.
   SCALEE = 1.0000    scale energy and forces
   NPACO  =    256;   APACO  = 16.0  distance and # of slots for P.C.
   PSTRESS=    0.0 pullay stress

  Mass of Ions in am
   POMASS =  14.00 16.00  1.00 12.01
  Ionic Valenz
   ZVAL   =   5.00  6.00  1.00  4.00
  Atomic Wigner-Seitz radii
   RWIGS  =  -1.00 -1.00 -1.00 -1.00
  virtual crystal weights 
   VCA    =   1.00  1.00  1.00  1.00
   NELECT =      42.0000    total number of electrons
   NUPDOWN=      -1.0000    fix difference up-down

 DOS related values:
   EMIN   =  10.00;   EMAX   =-10.00  energy-range for DOS
   EFERMI =   0.00
   ISMEAR =     0;   SIGMA  =   0.01  broadening in eV -4-tet -1-fermi 0-gaus

 Electronic relaxation 2 (details)
   IALGO  =     38    algorithm
   LDIAG  =      T    sub-space diagonalisation (order eigenvalues)
   LSUBROT=      F    optimize rotation matrix (better conditioning)
   TURBO    =      0    0=normal 1=particle mesh
   IRESTART =      0    0=no restart 2=restart with 2 vectors
   NREBOOT  =      0    no. of reboots
   NMIN     =      0    reboot dimension
   EREF     =   0.00    reference energy to select bands
   IMIX   =      4    mixing-type and parameters
     AMIX     =   0.40;   BMIX     =  1.00
     AMIX_MAG =   1.60;   BMIX_MAG =  1.00
     AMIN     =   0.10
     WC   =   100.;   INIMIX=   1;  MIXPRE=   1;  MAXMIX= -45

 Intra band minimization:
   WEIMIN = 0.0000     energy-eigenvalue tresh-hold
   EBREAK =  0.89E-09  absolut break condition
   DEPER  =   0.30     relativ break condition  

   TIME   =   0.40     timestep for ELM

  volume/ion in A,a.u.               =    3572.92     24111.23
  Fermi-wavevector in a.u.,A,eV,Ry     =   0.162589  0.307248  0.359670  0.026435
  Thomas-Fermi vector in A             =   0.859803
 
 Write flags
   LWAVE  =      T    write WAVECAR
   LCHARG =      T    write CHGCAR
   LVTOT  =      F    write LOCPOT, total local potential
   LVHAR  =      F    write LOCPOT, Hartree potential only
   LELF   =      F    write electronic localiz. function (ELF)
   LORBIT =      0    0 simple, 1 ext, 2 COOP (PROOUT)


 Dipole corrections
   LMONO  =      F    monopole corrections only (constant potential shift)
   LDIPOL =      F    correct potential (dipole corrections)
   IDIPOL =      0    1-x, 2-y, 3-z, 4-all directions 
   EPSILON=  1.0000000 bulk dielectric constant

 Exchange correlation treatment:
   GGA     =    --    GGA type
   LEXCH   =     8    internal setting for exchange type
   VOSKOWN=      0    Vosko Wilk Nusair interpolation
   LHFCALC =     F    Hartree Fock is set to
   LHFONE  =     F    Hartree Fock one center treatment
   AEXX    =    0.0000 exact exchange contribution

 Linear response parameters
   LEPSILON=     F    determine dielectric tensor
   LRPA    =     F    only Hartree local field effects (RPA)
   LNABLA  =     F    use nabla operator in PAW spheres
   LVEL    =     F    velocity operator in full k-point grid
   LINTERFAST=   F  fast interpolation
   KINTER  =     0    interpolate to denser k-point grid
   CSHIFT  =0.1000    complex shift for real part using Kramers Kronig
   OMEGAMAX=  -1.0    maximum frequency
   DEG_THRESHOLD= 0.2000000E-02 threshold for treating states as degnerate
   RTIME   =    0.100 relaxation time in fs

 Orbital magnetization related:
   ORBITALMAG=     F  switch on orbital magnetization
   LCHIMAG   =     F  perturbation theory with respect to B field
   DQ        =  0.001000  dq finite difference perturbation B field



--------------------------------------------------------------------------------------------------------


 Static calculation
 charge density and potential will be updated during run
 non-spin polarized calculation
 Variant of blocked Davidson
 Davidson routine will perform the subspace rotation
 perform sub-space diagonalisation
    after iterative eigenvector-optimisation
 modified Broyden-mixing scheme, WC =      100.0
 initial mixing is a Kerker type mixing with AMIX =  0.4000 and BMIX =      1.0000
 Hartree-type preconditioning will be used
 using additional bands            7
 reciprocal scheme for non local part
 use partial core corrections
 calculate Harris-corrections to forces 
   (improved forces if not selfconsistent)
 use gradient corrections 
 use of overlap-Matrix (Vanderbilt PP)
 Gauss-broadening in eV      SIGMA  =   0.01


--------------------------------------------------------------------------------------------------------


  energy-cutoff  :     2000.00
  volume of cell :    42875.00
      direct lattice vectors                 reciprocal lattice vectors
    35.000000000  0.000000000  0.000000000     0.028571429  0.000000000  0.000000000
     0.000000000 35.000000000  0.000000000     0.000000000  0.028571429  0.000000000
     0.000000000  0.000000000 35.000000000     0.000000000  0.000000000  0.028571429

  length of vectors
    35.000000000 35.000000000 35.000000000     0.028571429  0.028571429  0.028571429


 
 k-points in units of 2pi/SCALE and weight: automatic mesh                          
   0.00000000  0.00000000  0.00000000       1.000
 
 k-points in reciprocal lattice and weights: automatic mesh                          
   0.00000000  0.00000000  0.00000000       1.000
 
 position of ions in fractional coordinates (direct lattice) 
   0.99403129  0.97244050  0.01527889
   0.02815577  0.02859497  0.01746304
   0.92967895  0.97112024  0.00565406
   0.05854848  0.97150299  0.02677885
   0.99359569  0.94362545  0.01728811
   0.93552651  0.04764945  0.00142421
   0.99867742  0.07949845  0.00952428
   0.05335885  0.04191222  0.02127955
   0.95867594  0.99015483  0.00876167
   0.96120622  0.03151959  0.00651839
   0.99534277  0.04885407  0.01088932
   0.02934345  0.98916657  0.02036135
 
 position of ions in cartesian coordinates  (Angst):
  34.79109522 34.03541738  0.53476104
   0.98545210  1.00082412  0.61120636
  32.53876324 33.98920839  0.19789196
   2.04919670 34.00260452  0.93725979
  34.77584901 33.02689060  0.60508386
  32.74342786  1.66773071  0.04984731
  34.95370954  2.78244591  0.33334968
   1.86755978  1.46692777  0.74478430
  33.55365792 34.65541888  0.30665858
  33.64221780  1.10318559  0.22814378
  34.83699680  1.70989257  0.38112632
   1.02702092 34.62082989  0.71264723
 


--------------------------------------------------------------------------------------------------------


 use parallel FFT for wavefunctions z direction half grid
 k-point  1 :   0.0000 0.0000 0.0000  plane waves: 4353902

 maximum and minimum number of plane-waves per node :    544247   544233

 maximum number of plane-waves:   4353902
 maximum index in each direction: 
   IXMAX=  127   IYMAX=  127   IZMAX=  127
   IXMIN= -127   IYMIN= -127   IZMIN=    0

 NGX is ok and might be reduce to 510
 NGY is ok and might be reduce to 510
 NGZ is ok and might be reduce to 510

 parallel 3D FFT for wavefunctions:
    minimum data exchange during FFTs selected (reduces bandwidth)
 parallel 3D FFT for charge:
    minimum data exchange during FFTs selected (reduces bandwidth)


 total amount of memory used by VASP on root node  4901779. kBytes
========================================================================

   base      :      30000. kBytes
   nonl-proj :     243817. kBytes
   fftplans  :    1475802. kBytes
   grid      :    3091202. kBytes
   one-center:          3. kBytes
   wavefun   :      60955. kBytes
 
     INWAV:  cpu time    0.0001: real time    0.0002
 Broyden mixing: mesh for mixing (old mesh)
   NGX =255   NGY =255   NGZ =255
  (NGX  =***   NGY  =***   NGZ  =***)
  gives a total of ****** points

 initial charge density was supplied:
 charge density of overlapping atoms calculated
 number of electron      42.0000000 magnetization 
 keeping initial charge density in first step


--------------------------------------------------------------------------------------------------------


 Maximum index for augmentation-charges          908 (set IRDMAX)


--------------------------------------------------------------------------------------------------------


 First call to EWALD:  gamma=   0.051
 Maximum number of real-space cells 3x 3x 3
 Maximum number of reciprocal cells 3x 3x 3

 FEWALD executed in parallel
    FEWALD:  cpu time    0.0021: real time    0.0021


----------------------------------------- Iteration    1(   1)  ---------------------------------------


    POTLOK:  cpu time   18.2198: real time   18.2714
    SETDIJ:  cpu time    0.0532: real time    0.0534
     EDDAV:  cpu time   15.0972: real time   15.1461
       DOS:  cpu time    0.0001: real time    0.0001
    --------------------------------------------
      LOOP:  cpu time   33.3731: real time   33.4758

 eigenvalue-minimisations  :    56
 total energy-change (2. order) : 0.6294754E+03  (-0.8228410E+03)
 number of electron      42.0000000 magnetization 
 augmentation part       42.0000000 magnetization 

 Free energy of the ion-electron system (eV)
  ---------------------------------------------------
  alpha Z        PSCENC =         0.12278330
  Ewald energy   TEWEN  =      4014.44360992
  -Hartree energ DENC   =     -5518.12531545
  -exchange      EXHF   =         0.00000000
  -V(xc)+E(xc)   XCENC  =       123.54047583
  PAW double counting   =      1569.69289592    -1548.47086785
  entropy T*S    EENTRO =        -0.00000000
  eigenvalues    EBANDS =       -44.15359149
  atomic energy  EATOM  =      2032.42540975
  Solvation  Ediel_sol  =         0.00000000
  ---------------------------------------------------
  free energy    TOTEN  =       629.47539992 eV

  energy without entropy =      629.47539992  energy(sigma->0) =      629.47539992


--------------------------------------------------------------------------------------------------------




----------------------------------------- Iteration    1(   2)  ---------------------------------------


     EDDAV:  cpu time   20.9191: real time   20.9867
       DOS:  cpu time    0.0002: real time    0.0002
    --------------------------------------------
      LOOP:  cpu time   20.9239: real time   20.9943

 eigenvalue-minimisations  :    88
 total energy-change (2. order) :-0.2850183E+03  (-0.2829583E+03)
 number of electron      42.0000000 magnetization 
 augmentation part       42.0000000 magnetization 

 Free energy of the ion-electron system (eV)
  ---------------------------------------------------
  alpha Z        PSCENC =         0.12278330
  Ewald energy   TEWEN  =      4014.44360992
  -Hartree energ DENC   =     -5518.12531545
  -exchange      EXHF   =         0.00000000
  -V(xc)+E(xc)   XCENC  =       123.54047583
  PAW double counting   =      1569.69289592    -1548.47086785
  entropy T*S    EENTRO =        -0.00903374
  eigenvalues    EBANDS =      -329.16284082
  atomic energy  EATOM  =      2032.42540975
  Solvation  Ediel_sol  =         0.00000000
  ---------------------------------------------------
  free energy    TOTEN  =       344.45711685 eV

  energy without entropy =      344.46615059  energy(sigma->0) =      344.46163372


--------------------------------------------------------------------------------------------------------




----------------------------------------- Iteration    1(   3)  ---------------------------------------


     EDDAV:  cpu time   20.8944: real time   20.9620
       DOS:  cpu time    0.0001: real time    0.0001
    --------------------------------------------
      LOOP:  cpu time   20.8998: real time   20.9699

 eigenvalue-minimisations  :    88
 total energy-change (2. order) :-0.2350559E+03  (-0.2324371E+03)
 number of electron      42.0000000 magnetization 
 augmentation part       42.0000000 magnetization 

 Free energy of the ion-electron system (eV)
  ---------------------------------------------------
  alpha Z        PSCENC =         0.12278330
  Ewald energy   TEWEN  =      4014.44360992
  -Hartree energ DENC   =     -5518.12531545
  -exchange      EXHF   =         0.00000000
  -V(xc)+E(xc)   XCENC  =       123.54047583
  PAW double counting   =      1569.69289592    -1548.47086785
  entropy T*S    EENTRO =        -0.00000000
  eigenvalues    EBANDS =      -564.22780732
  atomic energy  EATOM  =      2032.42540975
  Solvation  Ediel_sol  =         0.00000000
  ---------------------------------------------------
  free energy    TOTEN  =       109.40118409 eV

  energy without entropy =      109.40118409  energy(sigma->0) =      109.40118409


--------------------------------------------------------------------------------------------------------




----------------------------------------- Iteration    1(   4)  ---------------------------------------


     EDDAV:  cpu time   17.9544: real time   18.0120
       DOS:  cpu time    0.0001: real time    0.0001
    --------------------------------------------
      LOOP:  cpu time   17.9597: real time   18.0199

 eigenvalue-minimisations  :    72
 total energy-change (2. order) :-0.1417087E+03  (-0.1364540E+03)
 number of electron      42.0000000 magnetization 
 augmentation part       42.0000000 magnetization 

 Free energy of the ion-electron system (eV)
  ---------------------------------------------------
  alpha Z        PSCENC =         0.12278330
  Ewald energy   TEWEN  =      4014.44360992
  -Hartree energ DENC   =     -5518.12531545
  -exchange      EXHF   =         0.00000000
  -V(xc)+E(xc)   XCENC  =       123.54047583
  PAW double counting   =      1569.69289592    -1548.47086785
  entropy T*S    EENTRO =        -0.00000000
  eigenvalues    EBANDS =      -705.93652701
  atomic energy  EATOM  =      2032.42540975
  Solvation  Ediel_sol  =         0.00000000
  ---------------------------------------------------
  free energy    TOTEN  =       -32.30753560 eV

  energy without entropy =      -32.30753560  energy(sigma->0) =      -32.30753560


--------------------------------------------------------------------------------------------------------




----------------------------------------- Iteration    1(   5)  ---------------------------------------


     EDDAV:  cpu time   16.4740: real time   16.5274
       DOS:  cpu time    0.0001: real time    0.0001
    CHARGE:  cpu time    3.5585: real time    3.5723
    MIXING:  cpu time    0.4354: real time    0.4365
    --------------------------------------------
      LOOP:  cpu time   20.4736: real time   20.5443

 eigenvalue-minimisations  :    64
 total energy-change (2. order) :-0.5205191E+02  (-0.5199508E+02)
 number of electron      42.0000000 magnetization 
 augmentation part       -0.0105564 magnetization 

 Broyden mixing:
  rms(total) = 0.42097E+01    rms(broyden)= 0.42097E+01
  rms(prec ) = 0.42210E+01
  weight for this iteration     100.00

 Free energy of the ion-electron system (eV)
  ---------------------------------------------------
  alpha Z        PSCENC =         0.12278330
  Ewald energy   TEWEN  =      4014.44360992
  -Hartree energ DENC   =     -5518.12531545
  -exchange      EXHF   =         0.00000000
  -V(xc)+E(xc)   XCENC  =       123.54047583
  PAW double counting   =      1569.69289592    -1548.47086785
  entropy T*S    EENTRO =        -0.00000000
  eigenvalues    EBANDS =      -757.98843771
  atomic energy  EATOM  =      2032.42540975
  Solvation  Ediel_sol  =         0.00000000
  ---------------------------------------------------
  free energy    TOTEN  =       -84.35944630 eV

  energy without entropy =      -84.35944630  energy(sigma->0) =      -84.35944630


--------------------------------------------------------------------------------------------------------




----------------------------------------- Iteration    1(   6)  ---------------------------------------


    POTLOK:  cpu time   18.1257: real time   18.1756
    SETDIJ:  cpu time    0.0529: real time    0.0531
     EDDAV:  cpu time   17.9423: real time   18.0004
       DOS:  cpu time    0.0001: real time    0.0001
    CHARGE:  cpu time    3.5063: real time    3.5196
    MIXING:  cpu time    0.4466: real time    0.4480
    --------------------------------------------
      LOOP:  cpu time   40.0765: real time   40.2020

 eigenvalue-minimisations  :    72
 total energy-change (2. order) : 0.6211606E+00  (-0.4414002E+01)
 number of electron      42.0000000 magnetization 
 augmentation part        0.0754764 magnetization 

 Broyden mixing:
  rms(total) = 0.21077E+01    rms(broyden)= 0.21077E+01
  rms(prec ) = 0.21169E+01
  weight for this iteration     100.00

 eigenvalues of (default mixing * dielectric matrix)
  average eigenvalue GAMMA=   1.6721
  1.6721

 Free energy of the ion-electron system (eV)
  ---------------------------------------------------
  alpha Z        PSCENC =         0.12278330
  Ewald energy   TEWEN  =      4014.44360992
  -Hartree energ DENC   =     -5578.50118134
  -exchange      EXHF   =         0.00000000
  -V(xc)+E(xc)   XCENC  =       126.50194237
  PAW double counting   =      6974.30250123    -6953.64383933
  entropy T*S    EENTRO =        -0.00000000
  eigenvalues    EBANDS =      -699.38951166
  atomic energy  EATOM  =      2032.42540975
  Solvation  Ediel_sol  =         0.00000000
  ---------------------------------------------------
  free energy    TOTEN  =       -83.73828575 eV

  energy without entropy =      -83.73828575  energy(sigma->0) =      -83.73828575


--------------------------------------------------------------------------------------------------------




----------------------------------------- Iteration    1(   7)  ---------------------------------------


    POTLOK:  cpu time   18.0994: real time   18.1489
    SETDIJ:  cpu time    0.0526: real time    0.0527
     EDDAV:  cpu time   17.2100: real time   17.2656
       DOS:  cpu time    0.0001: real time    0.0001
    CHARGE:  cpu time    3.5010: real time    3.5143
    MIXING:  cpu time    0.4605: real time    0.4616
    --------------------------------------------
      LOOP:  cpu time   39.3262: real time   39.4486

 eigenvalue-minimisations  :    68
 total energy-change (2. order) : 0.1610103E+01  (-0.1460720E+01)
 number of electron      42.0000000 magnetization 
 augmentation part       -0.0059788 magnetization 

 Broyden mixing:
  rms(total) = 0.13229E+01    rms(broyden)= 0.13229E+01
  rms(prec ) = 0.13267E+01
  weight for this iteration     100.00

 eigenvalues of (default mixing * dielectric matrix)
  average eigenvalue GAMMA=   1.4219
  2.2075  0.6363

 Free energy of the ion-electron system (eV)
  ---------------------------------------------------
  alpha Z        PSCENC =         0.12278330
  Ewald energy   TEWEN  =      4014.44360992
  -Hartree energ DENC   =     -5655.40637485
  -exchange      EXHF   =         0.00000000
  -V(xc)+E(xc)   XCENC  =       130.48328991
  PAW double counting   =     15378.32429415   -15358.46824382
  entropy T*S    EENTRO =        -0.00000000
  eigenvalues    EBANDS =      -624.05295119
  atomic energy  EATOM  =      2032.42540975
  Solvation  Ediel_sol  =         0.00000000
  ---------------------------------------------------
  free energy    TOTEN  =       -82.12818284 eV

  energy without entropy =      -82.12818284  energy(sigma->0) =      -82.12818284


--------------------------------------------------------------------------------------------------------




----------------------------------------- Iteration    1(   8)  ---------------------------------------


    POTLOK:  cpu time   18.0559: real time   18.1053
    SETDIJ:  cpu time    0.0538: real time    0.0540
     EDDAV:  cpu time   17.9376: real time   17.9961
       DOS:  cpu time    0.0001: real time    0.0001
    CHARGE:  cpu time    3.5227: real time    3.5363
    MIXING:  cpu time    0.4767: real time    0.4779
    --------------------------------------------
      LOOP:  cpu time   40.0494: real time   40.1751

 eigenvalue-minimisations  :    72
 total energy-change (2. order) : 0.2440486E+00  (-0.1013046E+00)
 number of electron      42.0000000 magnetization 
 augmentation part        0.0117496 magnetization 

 Broyden mixing:
  rms(total) = 0.65282E+00    rms(broyden)= 0.65282E+00
  rms(prec ) = 0.65660E+00
  weight for this iteration     100.00

 eigenvalues of (default mixing * dielectric matrix)
  average eigenvalue GAMMA=   1.4142
  2.4791  0.8818  0.8818

 Free energy of the ion-electron system (eV)
  ---------------------------------------------------
  alpha Z        PSCENC =         0.12278330
  Ewald energy   TEWEN  =      4014.44360992
  -Hartree energ DENC   =     -5669.21086939
  -exchange      EXHF   =         0.00000000
  -V(xc)+E(xc)   XCENC  =       131.03601261
  PAW double counting   =     20457.23864221   -20437.35459980
  entropy T*S    EENTRO =        -0.00000000
  eigenvalues    EBANDS =      -610.58512281
  atomic energy  EATOM  =      2032.42540975
  Solvation  Ediel_sol  =         0.00000000
  ---------------------------------------------------
  free energy    TOTEN  =       -81.88413421 eV

  energy without entropy =      -81.88413421  energy(sigma->0) =      -81.88413421


--------------------------------------------------------------------------------------------------------




----------------------------------------- Iteration    1(   9)  ---------------------------------------


    POTLOK:  cpu time   18.0661: real time   18.1156
    SETDIJ:  cpu time    0.0532: real time    0.0533
     EDDAV:  cpu time   19.4115: real time   19.4754
       DOS:  cpu time    0.0001: real time    0.0001
    CHARGE:  cpu time    3.5078: real time    3.5207
    MIXING:  cpu time    0.4885: real time    0.4900
    --------------------------------------------
      LOOP:  cpu time   41.5299: real time   41.6607

 eigenvalue-minimisations  :    80
 total energy-change (2. order) : 0.1541772E+00  (-0.8043742E-01)
 number of electron      42.0000000 magnetization 
 augmentation part        0.0306610 magnetization 

 Broyden mixing:
  rms(total) = 0.24127E+00    rms(broyden)= 0.24127E+00
  rms(prec ) = 0.24297E+00
  weight for this iteration     100.00

 eigenvalues of (default mixing * dielectric matrix)
  average eigenvalue GAMMA=   1.3936
  2.6978  0.8205  1.0281  1.0281

 Free energy of the ion-electron system (eV)
  ---------------------------------------------------
  alpha Z        PSCENC =         0.12278330
  Ewald energy   TEWEN  =      4014.44360992
  -Hartree energ DENC   =     -5670.06088938
  -exchange      EXHF   =         0.00000000
  -V(xc)+E(xc)   XCENC  =       130.94066463
  PAW double counting   =     22683.60718505   -22663.61822112
  entropy T*S    EENTRO =        -0.00000000
  eigenvalues    EBANDS =      -609.59049915
  atomic energy  EATOM  =      2032.42540975
  Solvation  Ediel_sol  =         0.00000000
  ---------------------------------------------------
  free energy    TOTEN  =       -81.72995700 eV

  energy without entropy =      -81.72995700  energy(sigma->0) =      -81.72995700


--------------------------------------------------------------------------------------------------------




----------------------------------------- Iteration    1(  10)  ---------------------------------------


    POTLOK:  cpu time   18.0818: real time   18.1312
    SETDIJ:  cpu time    0.0535: real time    0.0536
     EDDAV:  cpu time   20.8805: real time   20.9486
       DOS:  cpu time    0.0001: real time    0.0001
    CHARGE:  cpu time    3.5091: real time    3.5226
    MIXING:  cpu time    0.5039: real time    0.5051
    --------------------------------------------
      LOOP:  cpu time   43.0314: real time   43.1666

 eigenvalue-minimisations  :    88
 total energy-change (2. order) : 0.1159924E-01  (-0.6726045E-02)
 number of electron      42.0000000 magnetization 
 augmentation part        0.0261283 magnetization 

 Broyden mixing:
  rms(total) = 0.87713E-01    rms(broyden)= 0.87713E-01
  rms(prec ) = 0.90639E-01
  weight for this iteration     100.00

 eigenvalues of (default mixing * dielectric matrix)
  average eigenvalue GAMMA=   1.3308
  2.3628  1.5066  0.9087  0.9379  0.9379

 Free energy of the ion-electron system (eV)
  ---------------------------------------------------
  alpha Z        PSCENC =         0.12278330
  Ewald energy   TEWEN  =      4014.44360992
  -Hartree energ DENC   =     -5671.97687600
  -exchange      EXHF   =         0.00000000
  -V(xc)+E(xc)   XCENC  =       130.99537932
  PAW double counting   =     23552.28532658   -23532.27109495
  entropy T*S    EENTRO =        -0.00000000
  eigenvalues    EBANDS =      -607.74289567
  atomic energy  EATOM  =      2032.42540975
  Solvation  Ediel_sol  =         0.00000000
  ---------------------------------------------------
  free energy    TOTEN  =       -81.71835776 eV

  energy without entropy =      -81.71835776  energy(sigma->0) =      -81.71835776


--------------------------------------------------------------------------------------------------------




----------------------------------------- Iteration    1(  11)  ---------------------------------------


    POTLOK:  cpu time   18.9237: real time   18.9755
    SETDIJ:  cpu time    0.2050: real time    0.2055
     EDDAV:  cpu time   21.8701: real time   21.9396
       DOS:  cpu time    0.0001: real time    0.0001
    CHARGE:  cpu time    3.5315: real time    3.5450
    MIXING:  cpu time    0.5653: real time    0.5667
    --------------------------------------------
      LOOP:  cpu time   45.0982: real time   45.2374

 eigenvalue-minimisations  :    76
 total energy-change (2. order) : 0.2842427E-02  (-0.8452264E-02)
 number of electron      42.0000000 magnetization 
 augmentation part        0.0339393 magnetization 

 Broyden mixing:
  rms(total) = 0.54544E-01    rms(broyden)= 0.54544E-01
  rms(prec ) = 0.56710E-01
  weight for this iteration     100.00

 eigenvalues of (default mixing * dielectric matrix)
  average eigenvalue GAMMA=   1.3133
  2.0025  2.0025  1.1030  1.1030  0.8343  0.8343

 Free energy of the ion-electron system (eV)
  ---------------------------------------------------
  alpha Z        PSCENC =         0.12278330
  Ewald energy   TEWEN  =      4014.44360992
  -Hartree energ DENC   =     -5669.03223539
  -exchange      EXHF   =         0.00000000
  -V(xc)+E(xc)   XCENC  =       130.75060338
  PAW double counting   =     23052.73403602   -23032.64689229
  entropy T*S    EENTRO =        -0.00000000
  eigenvalues    EBANDS =      -610.51283001
  atomic energy  EATOM  =      2032.42540975
  Solvation  Ediel_sol  =         0.00000000
  ---------------------------------------------------
  free energy    TOTEN  =       -81.71551533 eV

  energy without entropy =      -81.71551533  energy(sigma->0) =      -81.71551533


--------------------------------------------------------------------------------------------------------




----------------------------------------- Iteration    1(  12)  ---------------------------------------


    POTLOK:  cpu time   19.0417: real time   19.0938
    SETDIJ:  cpu time    0.2046: real time    0.2054
     EDDAV:  cpu time   22.7166: real time   22.7881
       DOS:  cpu time    0.0001: real time    0.0001
    CHARGE:  cpu time    3.5311: real time    3.5443
    MIXING:  cpu time    0.5905: real time    0.5923
    --------------------------------------------
      LOOP:  cpu time   46.0872: real time   46.2293

 eigenvalue-minimisations  :    80
 total energy-change (2. order) :-0.2325068E-02  (-0.5965283E-03)
 number of electron      42.0000000 magnetization 
 augmentation part        0.0327578 magnetization 

 Broyden mixing:
  rms(total) = 0.39869E-01    rms(broyden)= 0.39869E-01
  rms(prec ) = 0.41916E-01
  weight for this iteration     100.00

 eigenvalues of (default mixing * dielectric matrix)
  average eigenvalue GAMMA=   1.3607
  2.1960  2.1960  1.3595  1.3595  0.8178  0.8178  0.7781

 Free energy of the ion-electron system (eV)
  ---------------------------------------------------
  alpha Z        PSCENC =         0.12278330
  Ewald energy   TEWEN  =      4014.44360992
  -Hartree energ DENC   =     -5670.41287437
  -exchange      EXHF   =         0.00000000
  -V(xc)+E(xc)   XCENC  =       130.75792123
  PAW double counting   =     22788.42806151   -22768.33774051
  entropy T*S    EENTRO =        -0.00000000
  eigenvalues    EBANDS =      -609.14501123
  atomic energy  EATOM  =      2032.42540975
  Solvation  Ediel_sol  =         0.00000000
  ---------------------------------------------------
  free energy    TOTEN  =       -81.71784040 eV

  energy without entropy =      -81.71784040  energy(sigma->0) =      -81.71784040


--------------------------------------------------------------------------------------------------------




----------------------------------------- Iteration    1(  13)  ---------------------------------------


    POTLOK:  cpu time   19.0350: real time   19.0872
    SETDIJ:  cpu time    0.2072: real time    0.2077
     EDDAV:  cpu time   24.4291: real time   24.5068
       DOS:  cpu time    0.0001: real time    0.0001
    CHARGE:  cpu time    3.5482: real time    3.5618
    MIXING:  cpu time    0.6046: real time    0.6061
    --------------------------------------------
      LOOP:  cpu time   47.8268: real time   47.9750

 eigenvalue-minimisations  :    88
 total energy-change (2. order) :-0.2898157E-02  (-0.3528263E-03)
 number of electron      42.0000000 magnetization 
 augmentation part        0.0317189 magnetization 

 Broyden mixing:
  rms(total) = 0.15161E-01    rms(broyden)= 0.15161E-01
  rms(prec ) = 0.17844E-01
  weight for this iteration     100.00

 eigenvalues of (default mixing * dielectric matrix)
  average eigenvalue GAMMA=   1.4104
  2.5627  2.5627  1.2187  1.2187  0.8548  0.8548  1.1273  0.8840

 Free energy of the ion-electron system (eV)
  ---------------------------------------------------
  alpha Z        PSCENC =         0.12278330
  Ewald energy   TEWEN  =      4014.44360992
  -Hartree energ DENC   =     -5672.95873263
  -exchange      EXHF   =         0.00000000
  -V(xc)+E(xc)   XCENC  =       130.80456956
  PAW double counting   =     22710.89875260   -22690.80737969
  entropy T*S    EENTRO =        -0.00000000
  eigenvalues    EBANDS =      -606.64975136
  atomic energy  EATOM  =      2032.42540975
  Solvation  Ediel_sol  =         0.00000000
  ---------------------------------------------------
  free energy    TOTEN  =       -81.72073856 eV

  energy without entropy =      -81.72073856  energy(sigma->0) =      -81.72073856


--------------------------------------------------------------------------------------------------------




----------------------------------------- Iteration    1(  14)  ---------------------------------------


    POTLOK:  cpu time   19.0386: real time   19.0910
    SETDIJ:  cpu time    0.2059: real time    0.2064
     EDDAV:  cpu time   22.6983: real time   22.7690
       DOS:  cpu time    0.0001: real time    0.0001
    CHARGE:  cpu time    3.5392: real time    3.5522
    MIXING:  cpu time    0.6258: real time    0.6276
    --------------------------------------------
      LOOP:  cpu time   46.1105: real time   46.2518

 eigenvalue-minimisations  :    80
 total energy-change (2. order) :-0.4101302E-02  (-0.2566265E-03)
 number of electron      42.0000000 magnetization 
 augmentation part        0.0310297 magnetization 

 Broyden mixing:
  rms(total) = 0.10483E-01    rms(broyden)= 0.10483E-01
  rms(prec ) = 0.12298E-01
  weight for this iteration     100.00

 eigenvalues of (default mixing * dielectric matrix)
  average eigenvalue GAMMA=   1.4491
  2.6609  2.6609  1.5446  1.5446  0.8618  0.8618  1.0338  1.0338  0.8396

 Free energy of the ion-electron system (eV)
  ---------------------------------------------------
  alpha Z        PSCENC =         0.12278330
  Ewald energy   TEWEN  =      4014.44360992
  -Hartree energ DENC   =     -5675.41375199
  -exchange      EXHF   =         0.00000000
  -V(xc)+E(xc)   XCENC  =       130.84995101
  PAW double counting   =     22741.52787590   -22721.43489874
  entropy T*S    EENTRO =        -0.00000000
  eigenvalues    EBANDS =      -604.24581900
  atomic energy  EATOM  =      2032.42540975
  Solvation  Ediel_sol  =         0.00000000
  ---------------------------------------------------
  free energy    TOTEN  =       -81.72483986 eV

  energy without entropy =      -81.72483986  energy(sigma->0) =      -81.72483986


--------------------------------------------------------------------------------------------------------




----------------------------------------- Iteration    1(  15)  ---------------------------------------


    POTLOK:  cpu time   19.0618: real time   19.1137
    SETDIJ:  cpu time    0.2039: real time    0.2044
     EDDAV:  cpu time   19.2499: real time   19.3103
       DOS:  cpu time    0.0003: real time    0.0003
    CHARGE:  cpu time    3.5332: real time    3.5467
    MIXING:  cpu time    0.6479: real time    0.6498
    --------------------------------------------
      LOOP:  cpu time   42.6998: real time   42.8306

 eigenvalue-minimisations  :    64
 total energy-change (2. order) :-0.4645191E-02  (-0.4638846E-04)
 number of electron      42.0000000 magnetization 
 augmentation part        0.0312798 magnetization 

 Broyden mixing:
  rms(total) = 0.54603E-02    rms(broyden)= 0.54603E-02
  rms(prec ) = 0.73384E-02
  weight for this iteration     100.00

 eigenvalues of (default mixing * dielectric matrix)
  average eigenvalue GAMMA=   1.4930
  2.8068  2.8068  1.7679  1.7679  1.1562  1.1562  0.8779  0.8779  0.8561  0.8561

 Free energy of the ion-electron system (eV)
  ---------------------------------------------------
  alpha Z        PSCENC =         0.12278330
  Ewald energy   TEWEN  =      4014.44360992
  -Hartree energ DENC   =     -5676.41313672
  -exchange      EXHF   =         0.00000000
  -V(xc)+E(xc)   XCENC  =       130.85225878
  PAW double counting   =     22753.55914346   -22733.46350955
  entropy T*S    EENTRO =        -0.00000000
  eigenvalues    EBANDS =      -603.25604398
  atomic energy  EATOM  =      2032.42540975
  Solvation  Ediel_sol  =         0.00000000
  ---------------------------------------------------
  free energy    TOTEN  =       -81.72948505 eV

  energy without entropy =      -81.72948505  energy(sigma->0) =      -81.72948505


--------------------------------------------------------------------------------------------------------




----------------------------------------- Iteration    1(  16)  ---------------------------------------


    POTLOK:  cpu time   19.0333: real time   19.0853
    SETDIJ:  cpu time    0.2068: real time    0.2073
     EDDAV:  cpu time   19.2653: real time   19.3272
       DOS:  cpu time    0.0001: real time    0.0001
    CHARGE:  cpu time    3.5355: real time    3.5492
    MIXING:  cpu time    0.6708: real time    0.6725
    --------------------------------------------
      LOOP:  cpu time   42.7144: real time   42.8467

 eigenvalue-minimisations  :    64
 total energy-change (2. order) :-0.5151031E-02  (-0.8065853E-04)
 number of electron      42.0000000 magnetization 
 augmentation part        0.0311283 magnetization 

 Broyden mixing:
  rms(total) = 0.30531E-02    rms(broyden)= 0.30531E-02
  rms(prec ) = 0.43794E-02
  weight for this iteration     100.00

 eigenvalues of (default mixing * dielectric matrix)
  average eigenvalue GAMMA=   1.5434
  4.0619  2.4177  1.8116  1.8116  1.2383  0.8749  0.8749  1.0235  1.0235  0.9196
  0.9196

 Free energy of the ion-electron system (eV)
  ---------------------------------------------------
  alpha Z        PSCENC =         0.12278330
  Ewald energy   TEWEN  =      4014.44360992
  -Hartree energ DENC   =     -5677.79453739
  -exchange      EXHF   =         0.00000000
  -V(xc)+E(xc)   XCENC  =       130.86554039
  PAW double counting   =     22746.28328731   -22726.18796172
  entropy T*S    EENTRO =        -0.00000000
  eigenvalues    EBANDS =      -601.89276763
  atomic energy  EATOM  =      2032.42540975
  Solvation  Ediel_sol  =         0.00000000
  ---------------------------------------------------
  free energy    TOTEN  =       -81.73463608 eV

  energy without entropy =      -81.73463608  energy(sigma->0) =      -81.73463608


--------------------------------------------------------------------------------------------------------




----------------------------------------- Iteration    1(  17)  ---------------------------------------


    POTLOK:  cpu time   19.0212: real time   19.0733
    SETDIJ:  cpu time    0.2065: real time    0.2073
     EDDAV:  cpu time   20.1221: real time   20.1853
       DOS:  cpu time    0.0001: real time    0.0001
    CHARGE:  cpu time    3.5345: real time    3.5476
    MIXING:  cpu time    0.7006: real time    0.7026
    --------------------------------------------
      LOOP:  cpu time   43.5877: real time   43.7216

 eigenvalue-minimisations  :    68
 total energy-change (2. order) :-0.3857142E-02  (-0.5020580E-04)
 number of electron      42.0000000 magnetization 
 augmentation part        0.0311266 magnetization 

 Broyden mixing:
  rms(total) = 0.36627E-02    rms(broyden)= 0.36627E-02
  rms(prec ) = 0.41260E-02
  weight for this iteration     100.00

 eigenvalues of (default mixing * dielectric matrix)
  average eigenvalue GAMMA=   1.5491
  4.5172  2.3980  1.7962  1.6526  1.3842  1.3842  0.8722  0.8722  0.9597  0.9597
  0.9421  0.8510

 Free energy of the ion-electron system (eV)
  ---------------------------------------------------
  alpha Z        PSCENC =         0.12278330
  Ewald energy   TEWEN  =      4014.44360992
  -Hartree energ DENC   =     -5678.74196603
  -exchange      EXHF   =         0.00000000
  -V(xc)+E(xc)   XCENC  =       130.87064274
  PAW double counting   =     22737.05073411   -22716.95490575
  entropy T*S    EENTRO =        -0.00000000
  eigenvalues    EBANDS =      -600.95480127
  atomic energy  EATOM  =      2032.42540975
  Solvation  Ediel_sol  =         0.00000000
  ---------------------------------------------------
  free energy    TOTEN  =       -81.73849322 eV

  energy without entropy =      -81.73849322  energy(sigma->0) =      -81.73849322


--------------------------------------------------------------------------------------------------------




----------------------------------------- Iteration    1(  18)  ---------------------------------------


    POTLOK:  cpu time   19.0475: real time   19.0996
    SETDIJ:  cpu time    0.2076: real time    0.2081
     EDDAV:  cpu time   21.8400: real time   21.9089
       DOS:  cpu time    0.0001: real time    0.0001
    CHARGE:  cpu time    3.5308: real time    3.5442
    MIXING:  cpu time    0.7220: real time    0.7241
    --------------------------------------------
      LOOP:  cpu time   45.3506: real time   45.4905

 eigenvalue-minimisations  :    76
 total energy-change (2. order) :-0.1828625E-02  (-0.9935741E-05)
 number of electron      42.0000000 magnetization 
 augmentation part        0.0310777 magnetization 

 Broyden mixing:
  rms(total) = 0.23501E-02    rms(broyden)= 0.23501E-02
  rms(prec ) = 0.27542E-02
  weight for this iteration     100.00

 eigenvalues of (default mixing * dielectric matrix)
  average eigenvalue GAMMA=   1.5983
  4.8560  2.2985  1.8515  1.8515  1.9534  1.2550  1.1837  1.0434  1.0434  0.8533
  0.8533  0.8675  0.8675

 Free energy of the ion-electron system (eV)
  ---------------------------------------------------
  alpha Z        PSCENC =         0.12278330
  Ewald energy   TEWEN  =      4014.44360992
  -Hartree energ DENC   =     -5679.02833619
  -exchange      EXHF   =         0.00000000
  -V(xc)+E(xc)   XCENC  =       130.86969160
  PAW double counting   =     22727.88312049   -22707.78689716
  entropy T*S    EENTRO =        -0.00000000
  eigenvalues    EBANDS =      -600.66970356
  atomic energy  EATOM  =      2032.42540975
  Solvation  Ediel_sol  =         0.00000000
  ---------------------------------------------------
  free energy    TOTEN  =       -81.74032185 eV

  energy without entropy =      -81.74032185  energy(sigma->0) =      -81.74032185


--------------------------------------------------------------------------------------------------------




----------------------------------------- Iteration    1(  19)  ---------------------------------------


    POTLOK:  cpu time   19.0382: real time   19.0903
    SETDIJ:  cpu time    0.2077: real time    0.2082
     EDDAV:  cpu time   19.2701: real time   19.3301
       DOS:  cpu time    0.0001: real time    0.0001
    CHARGE:  cpu time    3.5367: real time    3.5503
    MIXING:  cpu time    0.7466: real time    0.7487
    --------------------------------------------
      LOOP:  cpu time   42.8020: real time   42.9329

 eigenvalue-minimisations  :    64
 total energy-change (2. order) :-0.2507237E-02  (-0.1182166E-04)
 number of electron      42.0000000 magnetization 
 augmentation part        0.0310771 magnetization 

 Broyden mixing:
  rms(total) = 0.19248E-02    rms(broyden)= 0.19248E-02
  rms(prec ) = 0.20990E-02
  weight for this iteration     100.00

 eigenvalues of (default mixing * dielectric matrix)
  average eigenvalue GAMMA=   1.7446
  6.6813  2.6207  2.6207  1.8324  1.8324  1.1921  1.1921  1.0734  1.0734  0.8675
  0.8675  0.8437  0.8437  0.8832

 Free energy of the ion-electron system (eV)
  ---------------------------------------------------
  alpha Z        PSCENC =         0.12278330
  Ewald energy   TEWEN  =      4014.44360992
  -Hartree energ DENC   =     -5679.32221031
  -exchange      EXHF   =         0.00000000
  -V(xc)+E(xc)   XCENC  =       130.86697373
  PAW double counting   =     22722.69720389   -22702.60050947
  entropy T*S    EENTRO =        -0.00000000
  eigenvalues    EBANDS =      -600.37608990
  atomic energy  EATOM  =      2032.42540975
  Solvation  Ediel_sol  =         0.00000000
  ---------------------------------------------------
  free energy    TOTEN  =       -81.74282908 eV

  energy without entropy =      -81.74282908  energy(sigma->0) =      -81.74282908


--------------------------------------------------------------------------------------------------------




----------------------------------------- Iteration    1(  20)  ---------------------------------------


    POTLOK:  cpu time   19.0198: real time   19.0718
    SETDIJ:  cpu time    0.2056: real time    0.2061
     EDDAV:  cpu time   22.6922: real time   22.7642
       DOS:  cpu time    0.0001: real time    0.0001
    CHARGE:  cpu time    3.5397: real time    3.5528
    MIXING:  cpu time    0.7767: real time    0.7789
    --------------------------------------------
      LOOP:  cpu time   46.2367: real time   46.4385

 eigenvalue-minimisations  :    80
 total energy-change (2. order) :-0.1218828E-02  (-0.7933324E-05)
 number of electron      42.0000000 magnetization 
 augmentation part        0.0310437 magnetization 

 Broyden mixing:
  rms(total) = 0.15626E-02    rms(broyden)= 0.15626E-02
  rms(prec ) = 0.16411E-02
  weight for this iteration     100.00

 eigenvalues of (default mixing * dielectric matrix)
  average eigenvalue GAMMA=   1.7561
  6.9998  2.6162  2.6162  1.7937  1.7937  1.6045  1.0459  1.0459  0.8684  0.8684
  1.1601  1.1000  1.1000  0.8646  0.8646

 Free energy of the ion-electron system (eV)
  ---------------------------------------------------
  alpha Z        PSCENC =         0.12278330
  Ewald energy   TEWEN  =      4014.44360992
  -Hartree energ DENC   =     -5679.53582764
  -exchange      EXHF   =         0.00000000
  -V(xc)+E(xc)   XCENC  =       130.86621548
  PAW double counting   =     22722.23409748   -22702.13735062
  entropy T*S    EENTRO =        -0.00000000
  eigenvalues    EBANDS =      -600.16298558
  atomic energy  EATOM  =      2032.42540975
  Solvation  Ediel_sol  =         0.00000000
  ---------------------------------------------------
  free energy    TOTEN  =       -81.74404791 eV

  energy without entropy =      -81.74404791  energy(sigma->0) =      -81.74404791


--------------------------------------------------------------------------------------------------------




----------------------------------------- Iteration    1(  21)  ---------------------------------------


    POTLOK:  cpu time   19.0436: real time   19.0957
    SETDIJ:  cpu time    0.2066: real time    0.2071
     EDDAV:  cpu time   20.9776: real time   21.0434
       DOS:  cpu time    0.0001: real time    0.0001
    CHARGE:  cpu time    3.5392: real time    3.5526
    MIXING:  cpu time    0.8048: real time    0.8071
    --------------------------------------------
      LOOP:  cpu time   44.5745: real time   44.7114

 eigenvalue-minimisations  :    72
 total energy-change (2. order) :-0.7448969E-03  (-0.2160177E-05)
 number of electron      42.0000000 magnetization 
 augmentation part        0.0310658 magnetization 

 Broyden mixing:
  rms(total) = 0.14442E-02    rms(broyden)= 0.14442E-02
  rms(prec ) = 0.14827E-02
  weight for this iteration     100.00

 eigenvalues of (default mixing * dielectric matrix)
  average eigenvalue GAMMA=   1.8212
  7.5912  3.5484  2.2217  2.2217  1.7270  1.7270  1.3965  1.3965  1.0076  1.0076
  0.8693  0.8693  0.9362  0.9362  0.8420  0.8420

 Free energy of the ion-electron system (eV)
  ---------------------------------------------------
  alpha Z        PSCENC =         0.12278330
  Ewald energy   TEWEN  =      4014.44360992
  -Hartree energ DENC   =     -5679.53929364
  -exchange      EXHF   =         0.00000000
  -V(xc)+E(xc)   XCENC  =       130.86390475
  PAW double counting   =     22726.70864807   -22706.61179448
  entropy T*S    EENTRO =        -0.00000000
  eigenvalues    EBANDS =      -600.15806048
  atomic energy  EATOM  =      2032.42540975
  Solvation  Ediel_sol  =         0.00000000
  ---------------------------------------------------
  free energy    TOTEN  =       -81.74479281 eV

  energy without entropy =      -81.74479281  energy(sigma->0) =      -81.74479281


--------------------------------------------------------------------------------------------------------




----------------------------------------- Iteration    1(  22)  ---------------------------------------


    POTLOK:  cpu time   19.3991: real time   19.4520
    SETDIJ:  cpu time    0.2122: real time    0.2127
     EDDAV:  cpu time   19.3261: real time   19.3873
       DOS:  cpu time    0.0001: real time    0.0001
    CHARGE:  cpu time    3.4499: real time    3.4630
    MIXING:  cpu time    0.8884: real time    0.8909
    --------------------------------------------
      LOOP:  cpu time   43.2784: real time   43.4114

 eigenvalue-minimisations  :    64
 total energy-change (2. order) :-0.5469629E-03  (-0.1976436E-05)
 number of electron      42.0000000 magnetization 
 augmentation part        0.0310575 magnetization 

 Broyden mixing:
  rms(total) = 0.63968E-03    rms(broyden)= 0.63968E-03
  rms(prec ) = 0.66925E-03
  weight for this iteration     100.00

 eigenvalues of (default mixing * dielectric matrix)
  average eigenvalue GAMMA=   1.8242
  7.9343  3.8715  2.3942  2.3942  1.7391  1.7391  1.2054  1.2054  1.1255  1.1255
  0.9743  0.9743  0.8677  0.8677  0.8834  0.8549  0.8549

 Free energy of the ion-electron system (eV)
  ---------------------------------------------------
  alpha Z        PSCENC =         0.12278330
  Ewald energy   TEWEN  =      4014.44360992
  -Hartree energ DENC   =     -5679.55113978
  -exchange      EXHF   =         0.00000000
  -V(xc)+E(xc)   XCENC  =       130.86271120
  PAW double counting   =     22725.35158742   -22705.25479523
  entropy T*S    EENTRO =        -0.00000000
  eigenvalues    EBANDS =      -600.14550635
  atomic energy  EATOM  =      2032.42540975
  Solvation  Ediel_sol  =         0.00000000
  ---------------------------------------------------
  free energy    TOTEN  =       -81.74533977 eV

  energy without entropy =      -81.74533977  energy(sigma->0) =      -81.74533977


--------------------------------------------------------------------------------------------------------




----------------------------------------- Iteration    1(  23)  ---------------------------------------


    POTLOK:  cpu time   19.0982: real time   19.1504
    SETDIJ:  cpu time    0.2088: real time    0.2093
     EDDAV:  cpu time   22.7755: real time   22.8454
       DOS:  cpu time    0.0001: real time    0.0001
    CHARGE:  cpu time    3.4465: real time    3.4597
    MIXING:  cpu time    0.9252: real time    0.9278
    --------------------------------------------
      LOOP:  cpu time   46.4569: real time   46.5980

 eigenvalue-minimisations  :    80
 total energy-change (2. order) :-0.1910587E-03  (-0.3582374E-06)
 number of electron      42.0000000 magnetization 
 augmentation part        0.0310468 magnetization 

 Broyden mixing:
  rms(total) = 0.48237E-03    rms(broyden)= 0.48237E-03
  rms(prec ) = 0.50243E-03
  weight for this iteration     100.00

 eigenvalues of (default mixing * dielectric matrix)
  average eigenvalue GAMMA=   1.8927
  8.3802  4.8370  2.4595  2.4595  1.7049  1.4924  1.4924  1.2607  1.2607  1.3190
  1.0001  1.0001  0.8687  0.8687  0.9871  0.9871  0.8455  0.8455

 Free energy of the ion-electron system (eV)
  ---------------------------------------------------
  alpha Z        PSCENC =         0.12278330
  Ewald energy   TEWEN  =      4014.44360992
  -Hartree energ DENC   =     -5679.55124097
  -exchange      EXHF   =         0.00000000
  -V(xc)+E(xc)   XCENC  =       130.86226374
  PAW double counting   =     22724.90490137   -22704.80810686
  entropy T*S    EENTRO =        -0.00000000
  eigenvalues    EBANDS =      -600.14515108
  atomic energy  EATOM  =      2032.42540975
  Solvation  Ediel_sol  =         0.00000000
  ---------------------------------------------------
  free energy    TOTEN  =       -81.74553083 eV

  energy without entropy =      -81.74553083  energy(sigma->0) =      -81.74553083


--------------------------------------------------------------------------------------------------------




----------------------------------------- Iteration    1(  24)  ---------------------------------------


    POTLOK:  cpu time   19.0763: real time   19.1285
    SETDIJ:  cpu time    0.2078: real time    0.2083
     EDDAV:  cpu time   17.5704: real time   17.6246
       DOS:  cpu time    0.0004: real time    0.0004
    CHARGE:  cpu time    3.4509: real time    3.4638
    MIXING:  cpu time    0.9611: real time    0.9638
    --------------------------------------------
      LOOP:  cpu time   41.2696: real time   41.3946

 eigenvalue-minimisations  :    56
 total energy-change (2. order) :-0.2014950E-03  (-0.4585817E-06)
 number of electron      42.0000000 magnetization 
 augmentation part        0.0310387 magnetization 

 Broyden mixing:
  rms(total) = 0.14231E-03    rms(broyden)= 0.14231E-03
  rms(prec ) = 0.16299E-03
  weight for this iteration     100.00

 eigenvalues of (default mixing * dielectric matrix)
  average eigenvalue GAMMA=   1.8795
  8.6212  5.0129  2.5471  2.5471  1.8489  1.5849  1.5849  1.0139  1.0139  1.3210
  1.2440  1.0997  1.0997  0.8674  0.8674  0.8630  0.8630  0.8553  0.8553

 Free energy of the ion-electron system (eV)
  ---------------------------------------------------
  alpha Z        PSCENC =         0.12278330
  Ewald energy   TEWEN  =      4014.44360992
  -Hartree energ DENC   =     -5679.55130902
  -exchange      EXHF   =         0.00000000
  -V(xc)+E(xc)   XCENC  =       130.86197627
  PAW double counting   =     22725.05526053   -22704.95849707
  entropy T*S    EENTRO =        -0.00000000
  eigenvalues    EBANDS =      -600.14496600
  atomic energy  EATOM  =      2032.42540975
  Solvation  Ediel_sol  =         0.00000000
  ---------------------------------------------------
  free energy    TOTEN  =       -81.74573232 eV

  energy without entropy =      -81.74573232  energy(sigma->0) =      -81.74573232


--------------------------------------------------------------------------------------------------------




----------------------------------------- Iteration    1(  25)  ---------------------------------------


    POTLOK:  cpu time   19.1014: real time   19.1536
    SETDIJ:  cpu time    0.2079: real time    0.2084
     EDDAV:  cpu time   19.3121: real time   19.3718
       DOS:  cpu time    0.0002: real time    0.0002
    CHARGE:  cpu time    3.4526: real time    3.4655
    MIXING:  cpu time    0.9958: real time    0.9985
    --------------------------------------------
      LOOP:  cpu time   43.0725: real time   43.2036

 eigenvalue-minimisations  :    64
 total energy-change (2. order) :-0.6855443E-04  (-0.8215891E-07)
 number of electron      42.0000000 magnetization 
 augmentation part        0.0310371 magnetization 

 Broyden mixing:
  rms(total) = 0.16301E-03    rms(broyden)= 0.16301E-03
  rms(prec ) = 0.17252E-03
  weight for this iteration     100.00

 eigenvalues of (default mixing * dielectric matrix)
  average eigenvalue GAMMA=   1.9193
  8.7582  5.4315  3.0640  2.2945  2.2945  1.5840  1.5840  1.2840  1.2840  1.3502
  0.9873  0.9873  1.1937  0.8696  0.8696  0.9557  0.9557  0.8478  0.8478  0.9437

 Free energy of the ion-electron system (eV)
  ---------------------------------------------------
  alpha Z        PSCENC =         0.12278330
  Ewald energy   TEWEN  =      4014.44360992
  -Hartree energ DENC   =     -5679.55587661
  -exchange      EXHF   =         0.00000000
  -V(xc)+E(xc)   XCENC  =       130.86195746
  PAW double counting   =     22724.81862189   -22704.72185644
  entropy T*S    EENTRO =        -0.00000000
  eigenvalues    EBANDS =      -600.14045014
  atomic energy  EATOM  =      2032.42540975
  Solvation  Ediel_sol  =         0.00000000
  ---------------------------------------------------
  free energy    TOTEN  =       -81.74580088 eV

  energy without entropy =      -81.74580088  energy(sigma->0) =      -81.74580088


--------------------------------------------------------------------------------------------------------




----------------------------------------- Iteration    1(  26)  ---------------------------------------


    POTLOK:  cpu time   19.0633: real time   19.1154
    SETDIJ:  cpu time    0.2122: real time    0.2130
     EDDAV:  cpu time   15.8050: real time   15.8544
       DOS:  cpu time    0.0001: real time    0.0001
    CHARGE:  cpu time    3.4671: real time    3.4805
    MIXING:  cpu time    1.0260: real time    1.0288
    --------------------------------------------
      LOOP:  cpu time   39.5763: real time   39.6975

 eigenvalue-minimisations  :    48
 total energy-change (2. order) :-0.6360062E-04  (-0.5401209E-07)
 number of electron      42.0000000 magnetization 
 augmentation part        0.0310374 magnetization 

 Broyden mixing:
  rms(total) = 0.66143E-04    rms(broyden)= 0.66143E-04
  rms(prec ) = 0.73612E-04
  weight for this iteration     100.00

 eigenvalues of (default mixing * dielectric matrix)
  average eigenvalue GAMMA=   1.9592
  8.9874  5.8215  3.5987  2.2296  2.2296  2.2149  1.5517  1.5517  1.2674  1.2674
  1.0130  1.0130  1.1164  1.1164  0.8683  0.8683  0.9440  0.8457  0.8457  0.8966
  0.8966

 Free energy of the ion-electron system (eV)
  ---------------------------------------------------
  alpha Z        PSCENC =         0.12278330
  Ewald energy   TEWEN  =      4014.44360992
  -Hartree energ DENC   =     -5679.55723159
  -exchange      EXHF   =         0.00000000
  -V(xc)+E(xc)   XCENC  =       130.86187283
  PAW double counting   =     22724.81169832   -22704.71494412
  entropy T*S    EENTRO =        -0.00000000
  eigenvalues    EBANDS =      -600.13906288
  atomic energy  EATOM  =      2032.42540975
  Solvation  Ediel_sol  =         0.00000000
  ---------------------------------------------------
  free energy    TOTEN  =       -81.74586448 eV

  energy without entropy =      -81.74586448  energy(sigma->0) =      -81.74586448


--------------------------------------------------------------------------------------------------------




----------------------------------------- Iteration    1(  27)  ---------------------------------------


    POTLOK:  cpu time   19.0402: real time   19.0922
    SETDIJ:  cpu time    0.2128: real time    0.2133
     EDDAV:  cpu time   17.5469: real time   17.6031
       DOS:  cpu time    0.0003: real time    0.0003
    CHARGE:  cpu time    3.4565: real time    3.4694
    MIXING:  cpu time    1.0630: real time    1.0659
    --------------------------------------------
      LOOP:  cpu time   41.3222: real time   41.4493

 eigenvalue-minimisations  :    56
 total energy-change (2. order) :-0.2947277E-04  (-0.2159665E-07)
 number of electron      42.0000000 magnetization 
 augmentation part        0.0310392 magnetization 

 Broyden mixing:
  rms(total) = 0.90863E-04    rms(broyden)= 0.90863E-04
  rms(prec ) = 0.92782E-04
  weight for this iteration     100.00

 eigenvalues of (default mixing * dielectric matrix)
  average eigenvalue GAMMA=   1.9464
  9.0367  5.9639  3.6850  2.5093  2.1948  2.1948  1.6066  1.6066  1.2019  1.2019
  1.3207  1.0348  1.0348  0.9438  0.9438  0.8690  0.8690  1.1000  0.9443  0.8575
  0.8575  0.8435

 Free energy of the ion-electron system (eV)
  ---------------------------------------------------
  alpha Z        PSCENC =         0.12278330
  Ewald energy   TEWEN  =      4014.44360992
  -Hartree energ DENC   =     -5679.55883368
  -exchange      EXHF   =         0.00000000
  -V(xc)+E(xc)   XCENC  =       130.86180312
  PAW double counting   =     22724.71527234   -22704.61850991
  entropy T*S    EENTRO =        -0.00000000
  eigenvalues    EBANDS =      -600.13742879
  atomic energy  EATOM  =      2032.42540975
  Solvation  Ediel_sol  =         0.00000000
  ---------------------------------------------------
  free energy    TOTEN  =       -81.74589395 eV

  energy without entropy =      -81.74589395  energy(sigma->0) =      -81.74589395


--------------------------------------------------------------------------------------------------------




----------------------------------------- Iteration    1(  28)  ---------------------------------------


    POTLOK:  cpu time   19.1275: real time   19.1802
    SETDIJ:  cpu time    0.2126: real time    0.2131
     EDDAV:  cpu time   17.6367: real time   17.6926
       DOS:  cpu time    0.0001: real time    0.0001
    CHARGE:  cpu time    3.4688: real time    3.4818
    MIXING:  cpu time    1.1071: real time    1.1101
    --------------------------------------------
      LOOP:  cpu time   41.5556: real time   41.6836

 eigenvalue-minimisations  :    56
 total energy-change (2. order) :-0.9520383E-05  (-0.2510019E-08)
 number of electron      42.0000000 magnetization 
 augmentation part        0.0310392 magnetization 

 Broyden mixing:
  rms(total) = 0.66441E-04    rms(broyden)= 0.66441E-04
  rms(prec ) = 0.67844E-04
[...]
  average eigenvalue GAMMA=   2.0618
  9.4733  7.5201  5.5712  3.9241  2.5282  2.5282  2.0023  2.0023  1.7694  1.7694
  1.4826  1.4826  1.2327  1.2327  0.9851  0.9851  0.8687  0.8687  1.0336  1.0336
  1.0194  1.0194  0.9815  0.9815  0.8473  0.8473  0.8696  0.8696

 Free energy of the ion-electron system (eV)
  ---------------------------------------------------
  alpha Z        PSCENC =         0.12278330
  Ewald energy   TEWEN  =      4014.44360992
  -Hartree energ DENC   =     -5679.56147277
  -exchange      EXHF   =         0.00000000
  -V(xc)+E(xc)   XCENC  =       130.86180550
  PAW double counting   =     22724.69811115   -22704.60134415
  entropy T*S    EENTRO =        -0.00000000
  eigenvalues    EBANDS =      -600.13482407
  atomic energy  EATOM  =      2032.42540975
  Solvation  Ediel_sol  =         0.00000000
  ---------------------------------------------------
  free energy    TOTEN  =       -81.74592137 eV

  energy without entropy =      -81.74592137  energy(sigma->0) =      -81.74592137


--------------------------------------------------------------------------------------------------------




----------------------------------------- Iteration    1(  34)  ---------------------------------------


    POTLOK:  cpu time   19.2376: real time   19.2906
    SETDIJ:  cpu time    0.2105: real time    0.2110
     EDDAV:  cpu time   17.5442: real time   17.6003
       DOS:  cpu time    0.0002: real time    0.0002
    CHARGE:  cpu time    3.4674: real time    3.4807
    MIXING:  cpu time    1.3599: real time    1.3636
    --------------------------------------------
      LOOP:  cpu time   41.8225: real time   41.9516

 eigenvalue-minimisations  :    56
 total energy-change (2. order) :-0.1342705E-06  ( 0.2428457E-10)
 number of electron      42.0000000 magnetization 
 augmentation part        0.0310390 magnetization 

 Broyden mixing:
  rms(total) = 0.88479E-05    rms(broyden)= 0.88479E-05
  rms(prec ) = 0.88956E-05
  weight for this iteration     100.00

 eigenvalues of (default mixing * dielectric matrix)
  average eigenvalue GAMMA=   2.0785
  9.5136  7.5689  5.7367  3.9572  2.6169  2.6169  2.2674  2.2674  1.8361  1.8361
  1.5270  1.5270  1.2750  1.2750  0.9816  0.9816  1.1772  1.1772  0.8687  0.8687
  1.0140  1.0140  1.0168  1.0168  0.9249  0.8544  0.8544  0.8530  0.8530

 Free energy of the ion-electron system (eV)
  ---------------------------------------------------
  alpha Z        PSCENC =         0.12278330
  Ewald energy   TEWEN  =      4014.44360992
  -Hartree energ DENC   =     -5679.56146453
  -exchange      EXHF   =         0.00000000
  -V(xc)+E(xc)   XCENC  =       130.86180360
  PAW double counting   =     22724.69873473   -22704.60196716
  entropy T*S    EENTRO =        -0.00000000
  eigenvalues    EBANDS =      -600.13483110
  atomic energy  EATOM  =      2032.42540975
  Solvation  Ediel_sol  =         0.00000000
  ---------------------------------------------------
  free energy    TOTEN  =       -81.74592150 eV

  energy without entropy =      -81.74592150  energy(sigma->0) =      -81.74592150


--------------------------------------------------------------------------------------------------------




----------------------------------------- Iteration    1(  35)  ---------------------------------------


    POTLOK:  cpu time   19.2428: real time   19.2957
    SETDIJ:  cpu time    0.2091: real time    0.2096
     EDDAV:  cpu time   16.6848: real time   16.7380
       DOS:  cpu time    0.0001: real time    0.0001
    CHARGE:  cpu time    3.4801: real time    3.4930
    MIXING:  cpu time    1.4051: real time    1.4091
    --------------------------------------------
      LOOP:  cpu time   41.0246: real time   41.1508

 eigenvalue-minimisations  :    52
 total energy-change (2. order) :-0.2279194E-06  ( 0.1034373E-09)
 number of electron      42.0000000 magnetization 
 augmentation part        0.0310390 magnetization 

 Broyden mixing:
  rms(total) = 0.19338E-05    rms(broyden)= 0.19338E-05
  rms(prec ) = 0.20022E-05
  weight for this iteration     100.00

 eigenvalues of (default mixing * dielectric matrix)
  average eigenvalue GAMMA=   2.0841
  9.5253  7.8778  5.9866  4.3475  2.8982  2.4679  2.0150  2.0150  1.8967  1.8967
  1.7834  1.5038  1.5038  1.2458  1.2458  0.9824  0.9824  1.1656  1.1656  0.8687
  0.8687  1.0140  1.0140  1.0025  0.9477  0.9477  0.8485  0.8485  0.8912  0.7656

 Free energy of the ion-electron system (eV)
  ---------------------------------------------------
  alpha Z        PSCENC =         0.12278330
  Ewald energy   TEWEN  =      4014.44360992
  -Hartree energ DENC   =     -5679.56145898
  -exchange      EXHF   =         0.00000000
  -V(xc)+E(xc)   XCENC  =       130.86180118
  PAW double counting   =     22724.68096371   -22704.58419546
  entropy T*S    EENTRO =        -0.00000000
  eigenvalues    EBANDS =      -600.13483515
  atomic energy  EATOM  =      2032.42540975
  Solvation  Ediel_sol  =         0.00000000
  ---------------------------------------------------
  free energy    TOTEN  =       -81.74592173 eV

  energy without entropy =      -81.74592173  energy(sigma->0) =      -81.74592173


--------------------------------------------------------------------------------------------------------




----------------------------------------- Iteration    1(  36)  ---------------------------------------


    POTLOK:  cpu time   19.2650: real time   19.3176
    SETDIJ:  cpu time    0.2052: real time    0.2057
     EDDAV:  cpu time   14.0967: real time   14.1410
       DOS:  cpu time    0.0001: real time    0.0001
    --------------------------------------------
      LOOP:  cpu time   33.5695: real time   33.6696

 eigenvalue-minimisations  :    40
 total energy-change (2. order) :-0.8085408E-07  ( 0.1664429E-09)
 number of electron      42.0000000 magnetization 
 augmentation part        0.0310390 magnetization 

 Free energy of the ion-electron system (eV)
  ---------------------------------------------------
  alpha Z        PSCENC =         0.12278330
  Ewald energy   TEWEN  =      4014.44360992
  -Hartree energ DENC   =     -5679.56147328
  -exchange      EXHF   =         0.00000000
  -V(xc)+E(xc)   XCENC  =       130.86180211
  PAW double counting   =     22724.67792832   -22704.58116048
  entropy T*S    EENTRO =        -0.00000000
  eigenvalues    EBANDS =      -600.13482145
  atomic energy  EATOM  =      2032.42540975
  Solvation  Ediel_sol  =         0.00000000
  ---------------------------------------------------
  free energy    TOTEN  =       -81.74592181 eV

  energy without entropy =      -81.74592181  energy(sigma->0) =      -81.74592181


--------------------------------------------------------------------------------------------------------




 average (electrostatic) potential at core
  the test charge radii are     0.5902  0.5955  0.4325  0.5770
  (the norm of the test charge is              1.0000)
       1-105.3045       2-105.8224       3-118.9816       4-119.2100       5 -47.9146
       6 -45.8120       7 -46.6351       8 -48.5177       9 -89.0155      10 -86.7175
      11 -88.2737      12 -89.9028
 
 
 
 E-fermi :  -6.1741     XC(G=0):  -0.0518     alpha+bet : -0.0205


 k-point     1 :       0.0000    0.0000    0.0000
  band No.  band energies     occupation 
      1     -27.2547      2.00000
      2     -26.2615      2.00000
      3     -24.8008      2.00000
      4     -23.4043      2.00000
      5     -20.0761      2.00000
      6     -17.4629      2.00000
      7     -16.7471      2.00000
      8     -15.1131      2.00000
      9     -14.0668      2.00000
     10     -13.0720      2.00000
     11     -12.1087      2.00000
     12     -11.7052      2.00000
     13     -11.1192      2.00000
     14     -10.4298      2.00000
     15     -10.2184      2.00000
     16     -10.1542      2.00000
     17      -9.2867      2.00000
     18      -7.1216      2.00000
     19      -7.0619      2.00000
     20      -6.3753      2.00000
     21      -6.2270      2.00000
     22      -2.3758      0.00000
     23      -1.0982      0.00000
     24      -1.0380      0.00000
     25      -0.2497      0.00000
     26      -0.1702      0.00000
     27       0.0109      0.00000
     28       0.0430      0.00000


--------------------------------------------------------------------------------------------------------


 soft charge-density along one line, spin component           1
         0         1         2         3         4         5         6         7         8         9
 total charge-density along one line
 
 pseudopotential strength for first ion, spin component:           1
 20.449  28.644   0.002   0.002   0.007   0.002   0.004   0.010
 28.644  40.124   0.002   0.003   0.009   0.003   0.005   0.014
  0.002   0.002  -6.054   0.000  -0.000  -9.094   0.001  -0.000
  0.002   0.003   0.000  -6.048  -0.001   0.001  -9.086  -0.001
  0.007   0.009  -0.000  -0.001  -6.054  -0.000  -0.001  -9.094
  0.002   0.003  -9.094   0.001  -0.000 -13.643   0.001  -0.000
  0.004   0.005   0.001  -9.086  -0.001   0.001 -13.629  -0.002
  0.010   0.014  -0.000  -0.001  -9.094  -0.000  -0.002 -13.643
 total augmentation occupancy for first ion, spin component:           1
 12.889  -6.365   0.371   0.135   0.371  -0.288  -0.058  -0.173
 -6.365   3.333  -0.302  -0.083  -0.242   0.228   0.030   0.100
  0.371  -0.302   8.416  -0.237   0.152  -3.483   0.128  -0.084
  0.135  -0.083  -0.237   4.398   0.806   0.128  -1.290  -0.452
  0.371  -0.242   0.152   0.806   9.231  -0.084  -0.452  -3.998
 -0.288   0.228  -3.483   0.128  -0.084   1.460  -0.061   0.040
 -0.058   0.030   0.128  -1.290  -0.452  -0.061   0.418   0.227
 -0.173   0.100  -0.084  -0.452  -3.998   0.040   0.227   1.777


------------------------ aborting loop because EDIFF is reached ----------------------------------------


    CHARGE:  cpu time    3.4668: real time    3.4801
    FORLOC:  cpu time    2.6773: real time    2.6844
    FORNL :  cpu time    2.1133: real time    2.1190
    STRESS:  cpu time   12.4973: real time   12.5314
    FORCOR:  cpu time   20.4160: real time   20.4720
    FORHAR:  cpu time    7.0252: real time    7.0444
    MIXING:  cpu time    1.4674: real time    1.4713
    OFIELD:  cpu time    0.0000: real time    0.0000

  FORCE on cell =-STRESS in cart. coord.  units (eV):
  Direction    XX          YY          ZZ          XY          YZ          ZX
  --------------------------------------------------------------------------------------
  Alpha Z     0.12278     0.12278     0.12278
  Ewald    2465.73971  1809.21345  -260.51013    19.61328  -139.45467   457.05303
  Hartree  2652.38243  2161.08494   866.09406     6.49076   -88.28467   298.37842
  E(xc)    -183.42871  -184.11816  -187.73725    -0.01491    -0.25136     0.73307
  Local   -5783.07808 -4663.67745 -1371.66651   -24.20174   222.93424  -738.16582
  n-local   -32.13727   -37.17383   -42.01195    -0.04163    -0.35466     1.71544
  augment     1.24485     1.74467     1.33819    -0.00385    -0.02224    -0.01913
  Kinetic   881.85414   915.31660   994.44531    -1.75536     5.28141   -19.25350
  Fock        0.00000     0.00000     0.00000     0.00000     0.00000     0.00000
  -------------------------------------------------------------------------------------
  Total       2.69987     2.51299     0.07451     0.08654    -0.15195     0.44151
  in kB       0.10089     0.09391     0.00278     0.00323    -0.00568     0.01650
  external pressure =        0.07 kB  Pullay stress =        0.00 kB


 VOLUME and BASIS-vectors are now :
 -----------------------------------------------------------------------------
  energy-cutoff  :     2000.00
  volume of cell :    42875.00
      direct lattice vectors                 reciprocal lattice vectors
    35.000000000  0.000000000  0.000000000     0.028571429  0.000000000  0.000000000
     0.000000000 35.000000000  0.000000000     0.000000000  0.028571429  0.000000000
     0.000000000  0.000000000 35.000000000     0.000000000  0.000000000  0.028571429

  length of vectors
    35.000000000 35.000000000 35.000000000     0.028571429  0.028571429  0.028571429


 FORCES acting on ions
    electron-ion (+dipol)            ewald-force                    non-local-force                 convergence-correction
 -----------------------------------------------------------------------------------------------
   0.137E+02 0.212E+03 -.556E+01   -.165E+02 -.213E+03 0.454E+01   0.285E+01 0.702E+00 0.104E+01   0.139E-05 0.171E-06 0.704E-06
   -.179E+03 -.188E+03 -.144E+02   0.181E+03 0.187E+03 0.141E+02   -.213E+01 0.612E+00 0.201E+00   -.351E-05 -.886E-05 -.352E-08
   0.368E+03 0.205E+03 0.430E+02   -.414E+03 -.233E+03 -.480E+02   0.456E+02 0.280E+02 0.496E+01   0.815E-05 0.617E-06 0.109E-05
   -.372E+03 0.214E+03 -.797E+02   0.419E+03 -.243E+03 0.900E+02   -.461E+02 0.283E+02 -.102E+02   -.898E-05 0.199E-05 -.914E-06
   0.221E+01 0.113E+03 -.703E+01   -.237E+01 -.121E+03 0.757E+01   0.156E+00 0.765E+01 -.523E+00   0.505E-07 -.115E-05 0.117E-06
   0.714E+02 -.551E+02 0.149E+02   -.768E+02 0.583E+02 -.160E+02   0.506E+01 -.311E+01 0.999E+00   0.438E-06 -.624E-06 0.114E-06
   -.494E+01 -.918E+02 0.501E+01   0.552E+01 0.982E+02 -.532E+01   -.516E+00 -.603E+01 0.292E+00   -.217E-06 -.826E-06 0.141E-07
   -.924E+02 -.631E+02 -.126E+02   0.996E+02 0.668E+02 0.136E+02   -.686E+01 -.350E+01 -.104E+01   -.881E-06 -.107E-05 -.600E-07
   0.600E+02 -.261E+02 0.129E+02   -.655E+02 0.307E+02 -.139E+02   0.543E+01 -.424E+01 0.107E+01   0.150E-05 -.116E-06 0.300E-06
   0.165E+03 -.144E+03 0.362E+02   -.166E+03 0.145E+03 -.365E+02   0.172E+01 -.116E+01 0.318E+00   0.236E-05 -.380E-05 0.750E-06
   0.108E+02 -.239E+03 0.176E+02   -.198E+02 0.242E+03 -.192E+02   0.898E+01 -.333E+01 0.164E+01   -.832E-07 -.426E-05 0.243E-06
   -.515E+02 0.154E+02 -.781E+01   0.562E+02 -.192E+02 0.898E+01   -.480E+01 0.358E+01 -.116E+01   0.214E-05 -.127E-05 0.823E-06
 -----------------------------------------------------------------------------------------------
   -.936E+01 -.475E+02 0.243E+01   0.426E-13 -.178E-12 -.355E-14   0.936E+01 0.475E+02 -.243E+01   0.236E-05 -.192E-04 0.318E-05
 
 
 POSITION                                       TOTAL-FORCE (eV/Angst)
 -----------------------------------------------------------------------------------
     34.79110     34.03542      0.53476         0.057654     -0.069565      0.014258
      0.98545      1.00082      0.61121        -0.134048      0.241790     -0.037660
     32.53876     33.98921      0.19789        -0.389017     -0.281427     -0.055213
      2.04920     34.00260      0.93726         0.431608     -0.215754      0.074254
     34.77585     33.02689      0.60508        -0.004169     -0.318561      0.020946
     32.74343      1.66773      0.04985        -0.278518      0.140484     -0.054709
     34.95371      2.78245      0.33335         0.056198      0.320035     -0.010438
      1.86756      1.46693      0.74478         0.301660      0.152325      0.033478
     33.55366     34.65542      0.30666        -0.036500      0.309318     -0.009829
     33.64222      1.10319      0.22814         0.088481     -0.093966      0.004555
     34.83700      1.70989      0.38113         0.012118     -0.057580      0.014093
      1.02702     34.62083      0.71265        -0.105465     -0.127099      0.006266
 -----------------------------------------------------------------------------------
    total drift:                               -0.000054      0.000024     -0.000009


--------------------------------------------------------------------------------------------------------



  FREE ENERGIE OF THE ION-ELECTRON SYSTEM (eV)
  ---------------------------------------------------
  free  energy   TOTEN  =       -81.74592181 eV

  energy  without entropy=      -81.74592181  energy(sigma->0) =      -81.74592181
 


--------------------------------------------------------------------------------------------------------


    POTLOK:  cpu time   19.4771: real time   19.5305


--------------------------------------------------------------------------------------------------------


 writing wavefunctions
     LOOP+:  cpu time 2208.1100: real time 2215.1250
    4ORBIT:  cpu time    0.0000: real time    0.0000

 total amount of memory used by VASP on root node  4901779. kBytes
========================================================================

   base      :      30000. kBytes
   nonl-proj :     243817. kBytes
   fftplans  :    1475802. kBytes
   grid      :    3091202. kBytes
   one-center:          3. kBytes
   wavefun   :      60955. kBytes
 
  
  
 General timing and accounting informations for this job:
 ========================================================
  
                  Total CPU time used (sec):     3149.453
                            User time (sec):     2865.792
                          System time (sec):      283.661
                         Elapsed time (sec):     3159.588
  
                   Maximum memory used (kb):     6458532.
                   Average memory used (kb):           0.
  
                          Minor page faults:       247159
                          Major page faults:           10
                 Voluntary context switches:        43708
 
 PROFILE, used timers:      14
 =============================
 
 index                 routine                    time                            calls level
----------------------------------------------------------------------------------------------
    1    total_time                         3159.588370                                1   1
    2      w1_copy                               4.991388                           2542   2
    3      fftwav_mpi                          258.808293                           1044   2
    4      fftext_mpi                            1.170259                              7   2
    5      overl                                 0.001168                           1439   2
    6      orth1                                 7.484100                           1501   2
    7      lincom                                0.536107                             37   2
    8      eccp                                 10.491982                            252   2
    9      hamiltmu                            310.323822                            500   2
   10        vhamil                               50.488712                          845   3
   11        overl1                                0.000780                          845   3
   12        kinhamil                            157.931064                          845   3
   13          fftext_mpi                          156.293055                        845   4
   14      pdssyex_zheevx                        0.081190                             36   2
 
 Flat profile
 ============
 
             routine name                   CPU           calls
 ---------------------------------------------------------------
 total_time                           2565.700062           1
 fftwav_mpi                            258.808293        1044
 fftext_mpi                            157.463315         852
 hamiltmu                              101.903265         500
 vhamil                                 50.488712         845
 eccp                                   10.491982         252
 orth1                                   7.484100        1501
 w1_copy                                 4.991388        2542
 kinhamil                                1.638009         845
 lincom                                  0.536107          37
 pdssyex_zheevx                          0.081190          36
 overl                                   0.001168        1439
 overl1                                  0.000780         845
 ---------------------------------------------------------------
  summed up times    3159.58837008476     
 
Profiling took   0.009025  0.005048  0.003270  0.003262 seconds
Profiling took   0.005530 seconds
