 vasp.5.4.1 24Jun15 (build Jan 02 2020 16:21:29) gamma-only                     
  
 executed on           IFC15_impi date 2020.04.14  08:39:33
 running on   12 total cores
 distrk:  each k-point on   12 cores,    1 groups
 distr:  one band on NCORES_PER_BAND=  12 cores,    1 groups


--------------------------------------------------------------------------------------------------------


 INCAR:
 POTCAR:    PAW_PBE C_h 06Feb2004                 
 POTCAR:    PAW_PBE H_h 06Feb2004                 

 ----------------------------------------------------------------------------- 
|                                                                             |
|           W    W    AA    RRRRR   N    N  II  N    N   GGGG   !!!           |
|           W    W   A  A   R    R  NN   N  II  NN   N  G    G  !!!           |
|           W    W  A    A  R    R  N N  N  II  N N  N  G       !!!           |
|           W WW W  AAAAAA  RRRRR   N  N N  II  N  N N  G  GGG   !            |
|           WW  WW  A    A  R   R   N   NN  II  N   NN  G    G                |
|           W    W  A    A  R    R  N    N  II  N    N   GGGG   !!!           |
|                                                                             |
|      For optimal performance we recommend to set                            |
|        NCORE= 4 - approx SQRT( number of cores)                             |
|      NCORE specifies how many cores store one orbital (NPAR=cpu/NCORE).     |
|      This setting can  greatly improve the performance of VASP for DFT.     |
|      The default, NPAR=number of cores might be grossly inefficient         |
|      on modern multi-core architectures or massively parallel machines.     |
|      Do your own testing !!!!                                               |
|      Unfortunately you need to use the default for GW and RPA calculations. |
|      (for HF NCORE is supported but not extensively tested yet)             |
|                                                                             |
 ----------------------------------------------------------------------------- 

 POTCAR:    PAW_PBE C_h 06Feb2004                 
   VRHFIN =C: s2p2                                                              
   LEXCH  = PE                                                                  
   EATOM  =   147.1560 eV,   10.8157 Ry                                         
                                                                                
   TITEL  = PAW_PBE C_h 06Feb2004                                               
   LULTRA =        F    use ultrasoft PP ?                                      
   IUNSCR =        1    unscreen: 0-lin 1-nonlin 2-no                           
   RPACOR =    0.800    partial core radius                                     
   POMASS =   12.011; ZVAL   =    4.000    mass and valenz                      
   RCORE  =    1.100    outmost cutoff radius                                   
   RWIGS  =    1.630; RWIGS  =    0.863    wigner-seitz radius (au A)           
   ENMAX  =  700.000; ENMIN  =  500.000 eV                                      
   ICORE  =        2    local potential                                         
   LCOR   =        T    correct aug charges                                     
   LPAW   =        T    paw PP                                                  
   EAUG   =  946.768                                                            
   DEXC   =    0.000                                                            
   RMAX   =    1.128    core radius for proj-oper                               
   RAUG   =    1.300    factor for augmentation sphere                          
   RDEP   =    1.162    radius for radial grids                                 
   RDEPT  =    1.088    core radius for aug-charge                              
                                                                                
   Atomic configuration                                                         
    4 entries                                                                   
     n  l   j            E        occ.                                          
     1  0  0.50      -273.3789   2.0000                                         
     2  0  0.50       -13.7508   2.0000                                         
     2  1  0.50        -5.2854   2.0000                                         
     3  2  1.50        -5.4423   0.0000                                         
   Description                                                                  
     l       E           TYP  RCUT    TYP  RCUT                                 
     0    -13.7508458     23  1.100                                             
     0     -8.2022199     23  1.100                                             
     1     -5.2854383     23  1.100                                             
     1      1.1560700     23  1.100                                             
     2     -5.4423304      7  1.100                                             
  local pseudopotential read in
  partial core-charges read in
  partial kinetic energy density read in
  atomic valenz-charges read in
  non local Contribution for L=           0  read in
    real space projection operators read in
  non local Contribution for L=           0  read in
    real space projection operators read in
  non local Contribution for L=           1  read in
    real space projection operators read in
  non local Contribution for L=           1  read in
    real space projection operators read in
    PAW grid and wavefunctions read in
 
   number of l-projection  operators is LMAX  =           4
   number of lm-projection operators is LMMAX =           8
 
 POTCAR:    PAW_PBE H_h 06Feb2004                 
   VRHFIN =H: ultrasoft test                                                    
   LEXCH  = PE                                                                  
   EATOM  =    12.4884 eV,    0.9179 Ry                                         
                                                                                
   TITEL  = PAW_PBE H_h 06Feb2004                                               
   LULTRA =        F    use ultrasoft PP ?                                      
   IUNSCR =        0    unscreen: 0-lin 1-nonlin 2-no                           
   RPACOR =    0.000    partial core radius                                     
   POMASS =    1.000; ZVAL   =    1.000    mass and valenz                      
   RCORE  =    0.800    outmost cutoff radius                                   
   RWIGS  =    0.700; RWIGS  =    0.370    wigner-seitz radius (au A)           
   ENMAX  =  700.000; ENMIN  =  350.000 eV                                      
   RCLOC  =    0.701    cutoff for local pot                                    
   LCOR   =        T    correct aug charges                                     
   LPAW   =        T    paw PP                                                  
   EAUG   = 1000.000                                                            
   RMAX   =    0.819    core radius for proj-oper                               
   RAUG   =    1.000    factor for augmentation sphere                          
   RDEP   =    0.817    radius for radial grids                                 
   RDEPT  =    0.817    core radius for aug-charge                              
                                                                                
   Atomic configuration                                                         
    2 entries                                                                   
     n  l   j            E        occ.                                          
     1  0  0.50        -6.4927   1.0000                                         
     2  1  0.50        -3.4015   0.0000                                         
   Description                                                                  
     l       E           TYP  RCUT    TYP  RCUT                                 
     0     -6.4927493     23  0.800                                             
     0      6.8029130     23  0.800                                             
     1     -6.8029130     23  0.800                                             
  local pseudopotential read in
  atomic valenz-charges read in
  non local Contribution for L=           0  read in
    real space projection operators read in
  non local Contribution for L=           0  read in
    real space projection operators read in
  non local Contribution for L=           1  read in
    real space projection operators read in
    PAW grid and wavefunctions read in
 
   number of l-projection  operators is LMAX  =           3
   number of lm-projection operators is LMMAX =           5
 
  PAW_PBE C_h 06Feb2004                 :
 energy of atom  1       EATOM= -147.1560
 kinetic energy error for atom=    0.0004 (will be added to EATOM!!)
  PAW_PBE H_h 06Feb2004                 :
 energy of atom  2       EATOM=  -12.4884
 kinetic energy error for atom=    0.0001 (will be added to EATOM!!)
 
 
 POSCAR: C H                                     
  positions in cartesian coordinates
  No initial velocities read in
 exchange correlation table for  LEXCH =        8
   RHO(1)=    0.500       N(1)  =     2000
   RHO(2)=  100.500       N(2)  =     4000
 


--------------------------------------------------------------------------------------------------------


 ion  position               nearest neighbor table
   1  0.028  0.025  0.011-   7 1.08   2 1.39   6 1.40
   2  0.041  0.988  0.003-   8 1.08   3 1.39   1 1.39
   3  0.015  0.958  0.001-   9 1.08   2 1.39   4 1.39
   4  0.976  0.964  0.006-  10 1.08   3 1.39   5 1.39
   5  0.963  0.001  0.014-  11 1.08   4 1.39   6 1.40
   6  0.989  0.031  0.016-  12 1.08   1 1.40   5 1.40
   7  0.047  0.049  0.013-   1 1.08
   8  0.071  0.983  1.000-   2 1.08
   9  0.026  0.929  0.996-   3 1.08
  10  0.956  0.941  0.005-   4 1.08
  11  0.933  0.006  0.018-   5 1.08
  12  0.978  0.060  0.022-   6 1.08
 
  LATTYP: Found a simple cubic cell.
 ALAT       =    35.0000000000
  
  Lattice vectors:
  
 A1 = (  35.0000000000,   0.0000000000,   0.0000000000)
 A2 = (   0.0000000000,  35.0000000000,   0.0000000000)
 A3 = (   0.0000000000,   0.0000000000,  35.0000000000)


Analysis of symmetry for initial positions (statically):
=====================================================================
 Subroutine PRICEL returns:
 Original cell was already a primitive cell.
 

 Routine SETGRP: Setting up the symmetry group for a 
 simple cubic supercell.


 Subroutine GETGRP returns: Found  1 space group operations
 (whereof  1 operations were pure point group operations)
 out of a pool of 48 trial point group operations.


The static configuration has the point symmetry C_1 .


Analysis of symmetry for dynamics (positions and initial velocities):
=====================================================================
 Subroutine PRICEL returns:
 Original cell was already a primitive cell.
 

 Routine SETGRP: Setting up the symmetry group for a 
 simple cubic supercell.


 Subroutine GETGRP returns: Found  1 space group operations
 (whereof  1 operations were pure point group operations)
 out of a pool of 48 trial point group operations.


The dynamic configuration has the point symmetry C_1 .
 
 
 KPOINTS: automatic mesh                          

Automatic generation of k-mesh.
Space group operators:
 irot       det(A)        alpha          n_x          n_y          n_z        tau_x        tau_y        tau_z
    1     1.000000     0.000000     1.000000     0.000000     0.000000     0.000000     0.000000     0.000000
 
 Subroutine IBZKPT returns following result:
 ===========================================
 
 Found      1 irreducible k-points:
 
 Following reciprocal coordinates:
            Coordinates               Weight
  0.000000  0.000000  0.000000      1.000000
 
 Following cartesian coordinates:
            Coordinates               Weight
  0.000000  0.000000  0.000000      1.000000
 


--------------------------------------------------------------------------------------------------------




 Dimension of arrays:
   k-points           NKPTS =      1   k-points in BZ     NKDIM =      1   number of bands    NBANDS=     22
   number of dos      NEDOS =    301   number of ions     NIONS =     12
   non local maximal  LDIM  =      4   non local SUM 2l+1 LMDIM =      8
   total plane-waves  NPLWV = ******
   max r-space proj   IRMAX =      1   max aug-charges    IRDMAX=  20964
   dimension x,y,z NGX =   512 NGY =  512 NGZ =  512
   dimension x,y,z NGXF=  1024 NGYF= 1024 NGZF= 1024
   support grid    NGXF=  1024 NGYF= 1024 NGZF= 1024
   ions per type =               6   6
 NGX,Y,Z   is equivalent  to a cutoff of  24.32, 24.32, 24.32 a.u.
 NGXF,Y,Z  is equivalent  to a cutoff of  48.64, 48.64, 48.64 a.u.


 I would recommend the setting:
   dimension x,y,z NGX =   511 NGY =  511 NGZ =  511
 SYSTEM =  C                                       
 POSCAR =  C H                                     

 Startparameter for this run:
   NWRITE =      2    write-flag & timer
   PREC   = acc       normal or accurate (medium, high low for compatibility)
   ISTART =      0    job   : 0-new  1-cont  2-samecut
   ICHARG =      2    charge: 1-file 2-atom 10-const
   ISPIN  =      1    spin polarized calculation?
   LNONCOLLINEAR =      F non collinear calculations
   LSORBIT =      F    spin-orbit coupling
   INIWAV =      1    electr: 0-lowe 1-rand  2-diag
   LASPH  =      T    aspherical Exc in radial PAW
   METAGGA=      F    non-selfconsistent MetaGGA calc.

 Electronic Relaxation 1
   ENCUT  = 2000.0 eV 147.00 Ry   12.12 a.u. 127.63127.63127.63*2*pi/ulx,y,z
   ENINI  = 2000.0     initial cutoff
   ENAUG  = 1000.0 eV  augmentation charge cutoff
   NELM   =     60;   NELMIN=  2; NELMDL= -5     # of ELM steps 
   EDIFF  = 0.1E-06   stopping-criterion for ELM
   LREAL  =      F    real-space projection
   NLSPLINE    = F    spline interpolate recip. space projectors
   LCOMPAT=      F    compatible to vasp.4.4
   GGA_COMPAT  = T    GGA compatible to vasp.4.4-vasp.4.6
   LMAXPAW     = -100 max onsite density
   LMAXMIX     =    2 max onsite mixed and CHGCAR
   VOSKOWN=      0    Vosko Wilk Nusair interpolation
   ROPT   =    0.00000   0.00000
 Ionic relaxation
   EDIFFG = 0.1E-05   stopping-criterion for IOM
   NSW    =      0    number of steps for IOM
   NBLOCK =      1;   KBLOCK =      1    inner block; outer block 
   IBRION =     -1    ionic relax: 0-MD 1-quasi-New 2-CG
   NFREE  =      0    steps in history (QN), initial steepest desc. (CG)
   ISIF   =      2    stress and relaxation
   IWAVPR =     10    prediction:  0-non 1-charg 2-wave 3-comb
   ISYM   =      2    0-nonsym 1-usesym 2-fastsym
   LCORR  =      T    Harris-Foulkes like correction to forces

   POTIM  = 0.5000    time-step for ionic-motion
   TEIN   =    0.0    initial temperature
   TEBEG  =    0.0;   TEEND  =   0.0 temperature during run
   SMASS  =  -3.00    Nose mass-parameter (am)
   estimated Nose-frequenzy (Omega)   =  0.10E-29 period in steps =****** mass=  -0.280E-25a.u.
   SCALEE = 1.0000    scale energy and forces
   NPACO  =    256;   APACO  = 16.0  distance and # of slots for P.C.
   PSTRESS=    0.0 pullay stress

  Mass of Ions in am
   POMASS =  12.01  1.00
  Ionic Valenz
   ZVAL   =   4.00  1.00
  Atomic Wigner-Seitz radii
   RWIGS  =  -1.00 -1.00
  virtual crystal weights 
   VCA    =   1.00  1.00
   NELECT =      30.0000    total number of electrons
   NUPDOWN=      -1.0000    fix difference up-down

 DOS related values:
   EMIN   =  10.00;   EMAX   =-10.00  energy-range for DOS
   EFERMI =   0.00
   ISMEAR =     0;   SIGMA  =   0.01  broadening in eV -4-tet -1-fermi 0-gaus

 Electronic relaxation 2 (details)
   IALGO  =     38    algorithm
   LDIAG  =      T    sub-space diagonalisation (order eigenvalues)
   LSUBROT=      F    optimize rotation matrix (better conditioning)
   TURBO    =      0    0=normal 1=particle mesh
   IRESTART =      0    0=no restart 2=restart with 2 vectors
   NREBOOT  =      0    no. of reboots
   NMIN     =      0    reboot dimension
   EREF     =   0.00    reference energy to select bands
   IMIX   =      4    mixing-type and parameters
     AMIX     =   0.40;   BMIX     =  1.00
     AMIX_MAG =   1.60;   BMIX_MAG =  1.00
     AMIN     =   0.10
     WC   =   100.;   INIMIX=   1;  MIXPRE=   1;  MAXMIX= -45

 Intra band minimization:
   WEIMIN = 0.0000     energy-eigenvalue tresh-hold
   EBREAK =  0.11E-08  absolut break condition
   DEPER  =   0.30     relativ break condition  

   TIME   =   0.40     timestep for ELM

  volume/ion in A,a.u.               =    3572.92     24111.23
  Fermi-wavevector in a.u.,A,eV,Ry     =   0.145338  0.274650  0.287399  0.021123
  Thomas-Fermi vector in A             =   0.812913
 
 Write flags
   LWAVE  =      T    write WAVECAR
   LCHARG =      T    write CHGCAR
   LVTOT  =      F    write LOCPOT, total local potential
   LVHAR  =      F    write LOCPOT, Hartree potential only
   LELF   =      F    write electronic localiz. function (ELF)
   LORBIT =      0    0 simple, 1 ext, 2 COOP (PROOUT)


 Dipole corrections
   LMONO  =      F    monopole corrections only (constant potential shift)
   LDIPOL =      F    correct potential (dipole corrections)
   IDIPOL =      0    1-x, 2-y, 3-z, 4-all directions 
   EPSILON=  1.0000000 bulk dielectric constant

 Exchange correlation treatment:
   GGA     =    --    GGA type
   LEXCH   =     8    internal setting for exchange type
   VOSKOWN=      0    Vosko Wilk Nusair interpolation
   LHFCALC =     F    Hartree Fock is set to
   LHFONE  =     F    Hartree Fock one center treatment
   AEXX    =    0.0000 exact exchange contribution

 Linear response parameters
   LEPSILON=     F    determine dielectric tensor
   LRPA    =     F    only Hartree local field effects (RPA)
   LNABLA  =     F    use nabla operator in PAW spheres
   LVEL    =     F    velocity operator in full k-point grid
   LINTERFAST=   F  fast interpolation
   KINTER  =     0    interpolate to denser k-point grid
   CSHIFT  =0.1000    complex shift for real part using Kramers Kronig
   OMEGAMAX=  -1.0    maximum frequency
   DEG_THRESHOLD= 0.2000000E-02 threshold for treating states as degnerate
   RTIME   =    0.100 relaxation time in fs

 Orbital magnetization related:
   ORBITALMAG=     F  switch on orbital magnetization
   LCHIMAG   =     F  perturbation theory with respect to B field
   DQ        =  0.001000  dq finite difference perturbation B field



--------------------------------------------------------------------------------------------------------


 Static calculation
 charge density and potential will be updated during run
 non-spin polarized calculation
 Variant of blocked Davidson
 Davidson routine will perform the subspace rotation
 perform sub-space diagonalisation
    after iterative eigenvector-optimisation
 modified Broyden-mixing scheme, WC =      100.0
 initial mixing is a Kerker type mixing with AMIX =  0.4000 and BMIX =      1.0000
 Hartree-type preconditioning will be used
 using additional bands            7
 reciprocal scheme for non local part
 use partial core corrections
 calculate Harris-corrections to forces 
   (improved forces if not selfconsistent)
 use gradient corrections 
 use of overlap-Matrix (Vanderbilt PP)
 Gauss-broadening in eV      SIGMA  =   0.01


--------------------------------------------------------------------------------------------------------


  energy-cutoff  :     2000.00
  volume of cell :    42875.00
      direct lattice vectors                 reciprocal lattice vectors
    35.000000000  0.000000000  0.000000000     0.028571429  0.000000000  0.000000000
     0.000000000 35.000000000  0.000000000     0.000000000  0.028571429  0.000000000
     0.000000000  0.000000000 35.000000000     0.000000000  0.000000000  0.028571429

  length of vectors
    35.000000000 35.000000000 35.000000000     0.028571429  0.028571429  0.028571429


 
 k-points in units of 2pi/SCALE and weight: automatic mesh                          
   0.00000000  0.00000000  0.00000000       1.000
 
 k-points in reciprocal lattice and weights: automatic mesh                          
   0.00000000  0.00000000  0.00000000       1.000
 
 position of ions in fractional coordinates (direct lattice) 
   0.02754515  0.02500267  0.01080039
   0.04088735  0.98819619  0.00339976
   0.01526079  0.95778175  0.00121193
   0.97627638  0.96418274  0.00631017
   0.96292608  0.00098322  0.01372122
   0.98855871  0.03142226  0.01604575
   0.04742370  0.04856945  0.01274406
   0.07112927  0.98322260  0.99951393
   0.02562747  0.92921747  0.99565680
   0.95640686  0.94058216  0.00468904
   0.93273154  0.00594332  0.01795888
   0.97827271  0.05982197  0.02242163
 
 position of ions in cartesian coordinates  (Angst):
   0.96408039  0.87509331  0.37801364
   1.43105709 34.58686656  0.11899152
   0.53412766 33.52236110  0.04241755
  34.16967318 33.74639591  0.22085611
  33.70241285  0.03441261  0.48024263
  34.59955491  1.09977921  0.56160137
   1.65982961  1.69993082  0.44604227
   2.48952453 34.41279083 34.98298738
   0.89696129 32.52261161 34.84798801
  33.47423999 32.92037565  0.16411655
  32.64560393  0.20801612  0.62856096
  34.23954486  2.09376880  0.78475698
 


--------------------------------------------------------------------------------------------------------


 use parallel FFT for wavefunctions z direction half grid
 k-point  1 :   0.0000 0.0000 0.0000  plane waves: 4353902

 maximum and minimum number of plane-waves per node :    362837   362811

 maximum number of plane-waves:   4353902
 maximum index in each direction: 
   IXMAX=  127   IYMAX=  127   IZMAX=  127
   IXMIN= -127   IYMIN= -127   IZMIN=    0

 NGX is ok and might be reduce to 510
 NGY is ok and might be reduce to 510
 NGZ is ok and might be reduce to 510

 parallel 3D FFT for wavefunctions:
    minimum data exchange during FFTs selected (reduces bandwidth)
 parallel 3D FFT for charge:
    minimum data exchange during FFTs selected (reduces bandwidth)


 total amount of memory used by VASP on root node  9037898. kBytes
========================================================================

   base      :      30000. kBytes
   nonl-proj :     116099. kBytes
   fftplans  :    3255861. kBytes
   grid      :    5508227. kBytes
   one-center:          1. kBytes
   wavefun   :     127710. kBytes
 
     INWAV:  cpu time    0.0001: real time    0.0003
 Broyden mixing: mesh for mixing (old mesh)
   NGX =255   NGY =255   NGZ =255
  (NGX  =***   NGY  =***   NGZ  =***)
  gives a total of ****** points

 initial charge density was supplied:
 charge density of overlapping atoms calculated
 number of electron      30.0000000 magnetization 
 keeping initial charge density in first step


--------------------------------------------------------------------------------------------------------


 Maximum index for augmentation-charges         2069 (set IRDMAX)


--------------------------------------------------------------------------------------------------------


 First call to EWALD:  gamma=   0.051
 Maximum number of real-space cells 3x 3x 3
 Maximum number of reciprocal cells 3x 3x 3

 FEWALD executed in parallel
    FEWALD:  cpu time    0.0012: real time    0.0012


----------------------------------------- Iteration    1(   1)  ---------------------------------------


    POTLOK:  cpu time   43.8825: real time   44.0003
    SETDIJ:  cpu time    0.0492: real time    0.0493
     EDDAV:  cpu time   32.4460: real time   32.5324
       DOS:  cpu time    0.0000: real time    0.0000
    --------------------------------------------
      LOOP:  cpu time   76.3798: real time   76.5865

 eigenvalue-minimisations  :    44
 total energy-change (2. order) : 0.3939031E+03  (-0.5368463E+03)
 number of electron      30.0000000 magnetization 
 augmentation part       30.0000000 magnetization 

 Free energy of the ion-electron system (eV)
  ---------------------------------------------------
  alpha Z        PSCENC =         0.06769965
  Ewald energy   TEWEN  =      2285.68246481
  -Hartree energ DENC   =     -2894.48915089
  -exchange      EXHF   =         0.00000000
  -V(xc)+E(xc)   XCENC  =        55.85660469
  PAW double counting   =       690.80509214     -659.29071371
  entropy T*S    EENTRO =        -0.00000000
  eigenvalues    EBANDS =       -42.59253456
  atomic energy  EATOM  =       957.86359424
  Solvation  Ediel_sol  =         0.00000000
  ---------------------------------------------------
  free energy    TOTEN  =       393.90305637 eV

  energy without entropy =      393.90305637  energy(sigma->0) =      393.90305637


--------------------------------------------------------------------------------------------------------




----------------------------------------- Iteration    1(   2)  ---------------------------------------


     EDDAV:  cpu time   47.8598: real time   47.9871
       DOS:  cpu time    0.0001: real time    0.0001
    --------------------------------------------
      LOOP:  cpu time   47.8631: real time   47.9936

 eigenvalue-minimisations  :    76
 total energy-change (2. order) :-0.2134776E+03  (-0.2120623E+03)
 number of electron      30.0000000 magnetization 
 augmentation part       30.0000000 magnetization 

 Free energy of the ion-electron system (eV)
  ---------------------------------------------------
  alpha Z        PSCENC =         0.06769965
  Ewald energy   TEWEN  =      2285.68246481
  -Hartree energ DENC   =     -2894.48915089
  -exchange      EXHF   =         0.00000000
  -V(xc)+E(xc)   XCENC  =        55.85660469
  PAW double counting   =       690.80509214     -659.29071371
  entropy T*S    EENTRO =        -0.00011754
  eigenvalues    EBANDS =      -256.07002064
  atomic energy  EATOM  =       957.86359424
  Solvation  Ediel_sol  =         0.00000000
  ---------------------------------------------------
  free energy    TOTEN  =       180.42545275 eV

  energy without entropy =      180.42557029  energy(sigma->0) =      180.42551152


--------------------------------------------------------------------------------------------------------




----------------------------------------- Iteration    1(   3)  ---------------------------------------


     EDDAV:  cpu time   45.8535: real time   45.9755
       DOS:  cpu time    0.0000: real time    0.0000
    --------------------------------------------
      LOOP:  cpu time   45.8559: real time   45.9815

 eigenvalue-minimisations  :    72
 total energy-change (2. order) :-0.1829760E+03  (-0.1817080E+03)
 number of electron      30.0000000 magnetization 
 augmentation part       30.0000000 magnetization 

 Free energy of the ion-electron system (eV)
  ---------------------------------------------------
  alpha Z        PSCENC =         0.06769965
  Ewald energy   TEWEN  =      2285.68246481
  -Hartree energ DENC   =     -2894.48915089
  -exchange      EXHF   =         0.00000000
  -V(xc)+E(xc)   XCENC  =        55.85660469
  PAW double counting   =       690.80509214     -659.29071371
  entropy T*S    EENTRO =        -0.00000000
  eigenvalues    EBANDS =      -439.04616298
  atomic energy  EATOM  =       957.86359424
  Solvation  Ediel_sol  =         0.00000000
  ---------------------------------------------------
  free energy    TOTEN  =        -2.55057206 eV

  energy without entropy =       -2.55057206  energy(sigma->0) =       -2.55057206


--------------------------------------------------------------------------------------------------------




----------------------------------------- Iteration    1(   4)  ---------------------------------------


     EDDAV:  cpu time   41.8656: real time   41.9770
       DOS:  cpu time    0.0000: real time    0.0000
    --------------------------------------------
      LOOP:  cpu time   41.8678: real time   41.9828

 eigenvalue-minimisations  :    64
 total energy-change (2. order) :-0.7355930E+02  (-0.7347137E+02)
 number of electron      30.0000000 magnetization 
 augmentation part       30.0000000 magnetization 

 Free energy of the ion-electron system (eV)
  ---------------------------------------------------
  alpha Z        PSCENC =         0.06769965
  Ewald energy   TEWEN  =      2285.68246481
  -Hartree energ DENC   =     -2894.48915089
  -exchange      EXHF   =         0.00000000
  -V(xc)+E(xc)   XCENC  =        55.85660469
  PAW double counting   =       690.80509214     -659.29071371
  entropy T*S    EENTRO =        -0.00000000
  eigenvalues    EBANDS =      -512.60545862
  atomic energy  EATOM  =       957.86359424
  Solvation  Ediel_sol  =         0.00000000
  ---------------------------------------------------
  free energy    TOTEN  =       -76.10986770 eV

  energy without entropy =      -76.10986770  energy(sigma->0) =      -76.10986770


--------------------------------------------------------------------------------------------------------




----------------------------------------- Iteration    1(   5)  ---------------------------------------


     EDDAV:  cpu time   37.8544: real time   37.9551
       DOS:  cpu time    0.0000: real time    0.0000
    CHARGE:  cpu time    6.4890: real time    6.5064
    MIXING:  cpu time    1.2255: real time    1.2287
    --------------------------------------------
      LOOP:  cpu time   45.5725: real time   45.6967

 eigenvalue-minimisations  :    56
 total energy-change (2. order) :-0.8135612E+01  (-0.8132881E+01)
 number of electron      30.0000000 magnetization 
 augmentation part       -0.0159216 magnetization 

 Broyden mixing:
  rms(total) = 0.18142E+01    rms(broyden)= 0.18142E+01
  rms(prec ) = 0.18506E+01
  weight for this iteration     100.00

 Free energy of the ion-electron system (eV)
  ---------------------------------------------------
  alpha Z        PSCENC =         0.06769965
  Ewald energy   TEWEN  =      2285.68246481
  -Hartree energ DENC   =     -2894.48915089
  -exchange      EXHF   =         0.00000000
  -V(xc)+E(xc)   XCENC  =        55.85660469
  PAW double counting   =       690.80509214     -659.29071371
  entropy T*S    EENTRO =        -0.00000000
  eigenvalues    EBANDS =      -520.74107063
  atomic energy  EATOM  =       957.86359424
  Solvation  Ediel_sol  =         0.00000000
  ---------------------------------------------------
  free energy    TOTEN  =       -84.24547971 eV

  energy without entropy =      -84.24547971  energy(sigma->0) =      -84.24547971


--------------------------------------------------------------------------------------------------------




----------------------------------------- Iteration    1(   6)  ---------------------------------------


    POTLOK:  cpu time   44.0254: real time   44.1444
    SETDIJ:  cpu time    0.0484: real time    0.0485
     EDDAV:  cpu time   46.1954: real time   46.3182
       DOS:  cpu time    0.0000: real time    0.0000
    CHARGE:  cpu time    6.3661: real time    6.3833
    MIXING:  cpu time    1.2763: real time    1.2797
    --------------------------------------------
      LOOP:  cpu time   97.9137: real time   98.1795

 eigenvalue-minimisations  :    72
 total energy-change (2. order) : 0.5989583E+01  (-0.8024023E+00)
 number of electron      30.0000000 magnetization 
 augmentation part       -0.0200211 magnetization 

 Broyden mixing:
  rms(total) = 0.11105E+01    rms(broyden)= 0.11105E+01
  rms(prec ) = 0.11265E+01
  weight for this iteration     100.00

 eigenvalues of (default mixing * dielectric matrix)
  average eigenvalue GAMMA=   2.2249
  2.2249

 Free energy of the ion-electron system (eV)
  ---------------------------------------------------
  alpha Z        PSCENC =         0.06769965
  Ewald energy   TEWEN  =      2285.68246481
  -Hartree energ DENC   =     -2956.80197901
  -exchange      EXHF   =         0.00000000
  -V(xc)+E(xc)   XCENC  =        58.59341779
  PAW double counting   =      2968.61661384    -2937.60278883
  entropy T*S    EENTRO =        -0.00000000
  eigenvalues    EBANDS =      -454.67491892
  atomic energy  EATOM  =       957.86359424
  Solvation  Ediel_sol  =         0.00000000
  ---------------------------------------------------
  free energy    TOTEN  =       -78.25589643 eV

  energy without entropy =      -78.25589643  energy(sigma->0) =      -78.25589643


--------------------------------------------------------------------------------------------------------




----------------------------------------- Iteration    1(   7)  ---------------------------------------


    POTLOK:  cpu time   44.1522: real time   44.2692
    SETDIJ:  cpu time    0.0484: real time    0.0485
     EDDAV:  cpu time   39.1864: real time   39.2943
       DOS:  cpu time    0.0000: real time    0.0000
    CHARGE:  cpu time    6.3621: real time    6.3788
    MIXING:  cpu time    1.3190: real time    1.3224
    --------------------------------------------
      LOOP:  cpu time   91.0701: real time   91.3182

 eigenvalue-minimisations  :    58
 total energy-change (2. order) : 0.1938270E+01  (-0.1061533E+01)
 number of electron      30.0000000 magnetization 
 augmentation part       -0.0285743 magnetization 

 Broyden mixing:
  rms(total) = 0.38657E+00    rms(broyden)= 0.38657E+00
  rms(prec ) = 0.39204E+00
  weight for this iteration     100.00

 eigenvalues of (default mixing * dielectric matrix)
  average eigenvalue GAMMA=   2.2413
  2.2413  2.2413

 Free energy of the ion-electron system (eV)
  ---------------------------------------------------
  alpha Z        PSCENC =         0.06769965
  Ewald energy   TEWEN  =      2285.68246481
  -Hartree energ DENC   =     -3033.94842384
  -exchange      EXHF   =         0.00000000
  -V(xc)+E(xc)   XCENC  =        62.40451384
  PAW double counting   =      9694.92262289    -9664.21451862
  entropy T*S    EENTRO =        -0.00000000
  eigenvalues    EBANDS =      -379.09557965
  atomic energy  EATOM  =       957.86359424
  Solvation  Ediel_sol  =         0.00000000
  ---------------------------------------------------
  free energy    TOTEN  =       -76.31762670 eV

  energy without entropy =      -76.31762670  energy(sigma->0) =      -76.31762670


--------------------------------------------------------------------------------------------------------




----------------------------------------- Iteration    1(   8)  ---------------------------------------


    POTLOK:  cpu time   44.2317: real time   44.3515
    SETDIJ:  cpu time    0.0483: real time    0.0484
     EDDAV:  cpu time   39.1982: real time   39.3023
       DOS:  cpu time    0.0000: real time    0.0000
    CHARGE:  cpu time    6.3737: real time    6.3906
    MIXING:  cpu time    1.3599: real time    1.3637
    --------------------------------------------
      LOOP:  cpu time   91.2139: real time   91.4615

 eigenvalue-minimisations  :    58
 total energy-change (2. order) : 0.1350518E+00  (-0.1922454E+00)
 number of electron      30.0000000 magnetization 
 augmentation part       -0.0258424 magnetization 

 Broyden mixing:
  rms(total) = 0.13090E+00    rms(broyden)= 0.13090E+00
  rms(prec ) = 0.13705E+00
  weight for this iteration     100.00

 eigenvalues of (default mixing * dielectric matrix)
  average eigenvalue GAMMA=   1.6956
  2.3798  1.3534  1.3534

 Free energy of the ion-electron system (eV)
  ---------------------------------------------------
  alpha Z        PSCENC =         0.06769965
  Ewald energy   TEWEN  =      2285.68246481
  -Hartree energ DENC   =     -3025.77795505
  -exchange      EXHF   =         0.00000000
  -V(xc)+E(xc)   XCENC  =        62.20716464
  PAW double counting   =     12366.93681745   -12335.90447908
  entropy T*S    EENTRO =        -0.00000000
  eigenvalues    EBANDS =      -387.25788152
  atomic energy  EATOM  =       957.86359424
  Solvation  Ediel_sol  =         0.00000000
  ---------------------------------------------------
  free energy    TOTEN  =       -76.18257487 eV

  energy without entropy =      -76.18257487  energy(sigma->0) =      -76.18257487


--------------------------------------------------------------------------------------------------------




----------------------------------------- Iteration    1(   9)  ---------------------------------------


    POTLOK:  cpu time   44.2418: real time   44.3590
    SETDIJ:  cpu time    0.0483: real time    0.0485
     EDDAV:  cpu time   38.1926: real time   38.2941
       DOS:  cpu time    0.0000: real time    0.0000
    CHARGE:  cpu time    6.3633: real time    6.3803
    MIXING:  cpu time    1.4035: real time    1.4071
    --------------------------------------------
      LOOP:  cpu time   90.2518: real time   90.4973

 eigenvalue-minimisations  :    56
 total energy-change (2. order) : 0.6718288E-01  (-0.3383884E-01)
 number of electron      30.0000000 magnetization 
 augmentation part       -0.0282177 magnetization 

 Broyden mixing:
  rms(total) = 0.37851E-01    rms(broyden)= 0.37851E-01
  rms(prec ) = 0.43012E-01
  weight for this iteration     100.00

 eigenvalues of (default mixing * dielectric matrix)
  average eigenvalue GAMMA=   1.6398
  0.9000  2.1493  1.7550  1.7550

 Free energy of the ion-electron system (eV)
  ---------------------------------------------------
  alpha Z        PSCENC =         0.06769965
  Ewald energy   TEWEN  =      2285.68246481
  -Hartree energ DENC   =     -3035.47455552
  -exchange      EXHF   =         0.00000000
  -V(xc)+E(xc)   XCENC  =        62.51692061
  PAW double counting   =     11997.03753566   -11966.10479228
  entropy T*S    EENTRO =        -0.00000000
  eigenvalues    EBANDS =      -377.70425915
  atomic energy  EATOM  =       957.86359424
  Solvation  Ediel_sol  =         0.00000000
  ---------------------------------------------------
  free energy    TOTEN  =       -76.11539199 eV

  energy without entropy =      -76.11539199  energy(sigma->0) =      -76.11539199


--------------------------------------------------------------------------------------------------------




----------------------------------------- Iteration    1(  10)  ---------------------------------------


    POTLOK:  cpu time   44.2376: real time   44.3595
    SETDIJ:  cpu time    0.0484: real time    0.0485
     EDDAV:  cpu time   46.1852: real time   46.3078
       DOS:  cpu time    0.0000: real time    0.0000
    CHARGE:  cpu time    6.3672: real time    6.3840
    MIXING:  cpu time    1.4536: real time    1.4576
    --------------------------------------------
      LOOP:  cpu time   98.2942: real time   98.5629

 eigenvalue-minimisations  :    72
 total energy-change (2. order) : 0.6964114E-02  (-0.1682406E-02)
 number of electron      30.0000000 magnetization 
 augmentation part       -0.0283790 magnetization 

 Broyden mixing:
  rms(total) = 0.26386E-01    rms(broyden)= 0.26386E-01
  rms(prec ) = 0.30531E-01
  weight for this iteration     100.00

 eigenvalues of (default mixing * dielectric matrix)
  average eigenvalue GAMMA=   1.7375
  2.4905  2.4905  1.2138  1.2138  1.2791

 Free energy of the ion-electron system (eV)
  ---------------------------------------------------
  alpha Z        PSCENC =         0.06769965
  Ewald energy   TEWEN  =      2285.68246481
  -Hartree energ DENC   =     -3039.09174459
  -exchange      EXHF   =         0.00000000
  -V(xc)+E(xc)   XCENC  =        62.56849569
  PAW double counting   =     11767.25155971   -11736.30996655
  entropy T*S    EENTRO =        -0.00000000
  eigenvalues    EBANDS =      -374.14053083
  atomic energy  EATOM  =       957.86359424
  Solvation  Ediel_sol  =         0.00000000
  ---------------------------------------------------
  free energy    TOTEN  =       -76.10842788 eV

  energy without entropy =      -76.10842788  energy(sigma->0) =      -76.10842788


--------------------------------------------------------------------------------------------------------




----------------------------------------- Iteration    1(  11)  ---------------------------------------


    POTLOK:  cpu time   44.3167: real time   44.4342
    SETDIJ:  cpu time    0.0496: real time    0.0497
     EDDAV:  cpu time   36.2596: real time   36.3565
       DOS:  cpu time    0.0000: real time    0.0000
    CHARGE:  cpu time    6.3762: real time    6.3931
    MIXING:  cpu time    1.5204: real time    1.5246
    --------------------------------------------
      LOOP:  cpu time   88.5247: real time   88.7630

 eigenvalue-minimisations  :    52
 total energy-change (2. order) : 0.6836129E-02  (-0.5842264E-03)
 number of electron      30.0000000 magnetization 
 augmentation part       -0.0283421 magnetization 

 Broyden mixing:
  rms(total) = 0.12524E-01    rms(broyden)= 0.12524E-01
  rms(prec ) = 0.16017E-01
  weight for this iteration     100.00

 eigenvalues of (default mixing * dielectric matrix)
  average eigenvalue GAMMA=   1.7358
  2.7190  2.7190  1.5464  1.5464  0.9421  0.9421

 Free energy of the ion-electron system (eV)
  ---------------------------------------------------
  alpha Z        PSCENC =         0.06769965
  Ewald energy   TEWEN  =      2285.68246481
  -Hartree energ DENC   =     -3043.05628470
  -exchange      EXHF   =         0.00000000
  -V(xc)+E(xc)   XCENC  =        62.64846013
  PAW double counting   =     11808.90139542   -11777.93598111
  entropy T*S    EENTRO =        -0.00000000
  eigenvalues    EBANDS =      -370.27294018
  atomic energy  EATOM  =       957.86359424
  Solvation  Ediel_sol  =         0.00000000
  ---------------------------------------------------
  free energy    TOTEN  =       -76.10159175 eV

  energy without entropy =      -76.10159175  energy(sigma->0) =      -76.10159175


--------------------------------------------------------------------------------------------------------




----------------------------------------- Iteration    1(  12)  ---------------------------------------


    POTLOK:  cpu time   44.3753: real time   44.4959
    SETDIJ:  cpu time    0.0483: real time    0.0485
     EDDAV:  cpu time   46.1999: real time   46.3228
       DOS:  cpu time    0.0000: real time    0.0000
    CHARGE:  cpu time    6.3707: real time    6.3878
    MIXING:  cpu time    1.5748: real time    1.5788
    --------------------------------------------
      LOOP:  cpu time   98.5712: real time   98.8384

 eigenvalue-minimisations  :    72
 total energy-change (2. order) :-0.1193597E-02  (-0.1667060E-03)
 number of electron      30.0000000 magnetization 
 augmentation part       -0.0283982 magnetization 

 Broyden mixing:
  rms(total) = 0.89805E-02    rms(broyden)= 0.89805E-02
  rms(prec ) = 0.11474E-01
  weight for this iteration     100.00

 eigenvalues of (default mixing * dielectric matrix)
  average eigenvalue GAMMA=   2.0287
  4.3086  2.6068  2.4180  1.7009  1.0064  1.0800  1.0800

 Free energy of the ion-electron system (eV)
  ---------------------------------------------------
  alpha Z        PSCENC =         0.06769965
  Ewald energy   TEWEN  =      2285.68246481
  -Hartree energ DENC   =     -3045.63431281
  -exchange      EXHF   =         0.00000000
  -V(xc)+E(xc)   XCENC  =        62.69054635
  PAW double counting   =     11743.41742918   -11712.45222279
  entropy T*S    EENTRO =        -0.00000000
  eigenvalues    EBANDS =      -367.73798398
  atomic energy  EATOM  =       957.86359424
  Solvation  Ediel_sol  =         0.00000000
  ---------------------------------------------------
  free energy    TOTEN  =       -76.10278535 eV

  energy without entropy =      -76.10278535  energy(sigma->0) =      -76.10278535


--------------------------------------------------------------------------------------------------------




----------------------------------------- Iteration    1(  13)  ---------------------------------------


    POTLOK:  cpu time   44.3603: real time   44.4808
    SETDIJ:  cpu time    0.0483: real time    0.0484
     EDDAV:  cpu time   39.1945: real time   39.2987
       DOS:  cpu time    0.0000: real time    0.0000
    CHARGE:  cpu time    6.3708: real time    6.3879
    MIXING:  cpu time    1.6330: real time    1.6372
    --------------------------------------------
      LOOP:  cpu time   91.6091: real time   91.8584

 eigenvalue-minimisations  :    58
 total energy-change (2. order) :-0.8218467E-02  (-0.4869020E-03)
 number of electron      30.0000000 magnetization 
 augmentation part       -0.0285569 magnetization 

 Broyden mixing:
  rms(total) = 0.40627E-02    rms(broyden)= 0.40627E-02
  rms(prec ) = 0.48607E-02
  weight for this iteration     100.00

 eigenvalues of (default mixing * dielectric matrix)
  average eigenvalue GAMMA=   2.0716
  5.5699  2.4678  2.4678  1.5745  1.5745  0.9901  0.9901  0.9381

 Free energy of the ion-electron system (eV)
  ---------------------------------------------------
  alpha Z        PSCENC =         0.06769965
  Ewald energy   TEWEN  =      2285.68246481
  -Hartree energ DENC   =     -3049.86752878
  -exchange      EXHF   =         0.00000000
  -V(xc)+E(xc)   XCENC  =        62.74816465
  PAW double counting   =     11674.26092519   -11643.29881346
  entropy T*S    EENTRO =        -0.00000000
  eigenvalues    EBANDS =      -363.56751011
  atomic energy  EATOM  =       957.86359424
  Solvation  Ediel_sol  =         0.00000000
  ---------------------------------------------------
  free energy    TOTEN  =       -76.11100382 eV

  energy without entropy =      -76.11100382  energy(sigma->0) =      -76.11100382


--------------------------------------------------------------------------------------------------------




----------------------------------------- Iteration    1(  14)  ---------------------------------------


    POTLOK:  cpu time   44.3796: real time   44.5007
    SETDIJ:  cpu time    0.0498: real time    0.0499
     EDDAV:  cpu time   42.1924: real time   42.3081
       DOS:  cpu time    0.0000: real time    0.0000
    CHARGE:  cpu time    6.3733: real time    6.3904
    MIXING:  cpu time    1.6981: real time    1.7025
    --------------------------------------------
      LOOP:  cpu time   94.6954: real time   94.9563

 eigenvalue-minimisations  :    64
 total energy-change (2. order) :-0.3789324E-02  (-0.5293013E-04)
 number of electron      30.0000000 magnetization 
 augmentation part       -0.0286043 magnetization 

 Broyden mixing:
  rms(total) = 0.45403E-02    rms(broyden)= 0.45403E-02
  rms(prec ) = 0.50264E-02
  weight for this iteration     100.00

 eigenvalues of (default mixing * dielectric matrix)
  average eigenvalue GAMMA=   2.2952
  6.3607  3.5134  2.5627  2.1551  1.7429  1.0792  1.0792  1.1579  1.0057

 Free energy of the ion-electron system (eV)
  ---------------------------------------------------
  alpha Z        PSCENC =         0.06769965
  Ewald energy   TEWEN  =      2285.68246481
  -Hartree energ DENC   =     -3050.59786506
  -exchange      EXHF   =         0.00000000
  -V(xc)+E(xc)   XCENC  =        62.75380655
  PAW double counting   =     11673.46603856   -11642.50493238
  entropy T*S    EENTRO =        -0.00000000
  eigenvalues    EBANDS =      -362.84559951
  atomic energy  EATOM  =       957.86359424
  Solvation  Ediel_sol  =         0.00000000
  ---------------------------------------------------
  free energy    TOTEN  =       -76.11479314 eV

  energy without entropy =      -76.11479314  energy(sigma->0) =      -76.11479314


--------------------------------------------------------------------------------------------------------




----------------------------------------- Iteration    1(  15)  ---------------------------------------


    POTLOK:  cpu time   44.4018: real time   44.5214
    SETDIJ:  cpu time    0.0482: real time    0.0483
     EDDAV:  cpu time   39.1838: real time   39.2879
       DOS:  cpu time    0.0000: real time    0.0000
    CHARGE:  cpu time    6.3741: real time    6.3912
    MIXING:  cpu time    1.7747: real time    1.7792
    --------------------------------------------
      LOOP:  cpu time   91.7847: real time   92.0331

 eigenvalue-minimisations  :    58
 total energy-change (2. order) :-0.7963596E-02  (-0.1445647E-03)
 number of electron      30.0000000 magnetization 
 augmentation part       -0.0285858 magnetization 

 Broyden mixing:
  rms(total) = 0.23452E-02    rms(broyden)= 0.23452E-02
  rms(prec ) = 0.24704E-02
  weight for this iteration     100.00

 eigenvalues of (default mixing * dielectric matrix)
  average eigenvalue GAMMA=   2.2030
  6.5521  3.7687  2.3401  2.3401  1.8428  1.2783  1.0248  1.0248  0.9640  0.8939

 Free energy of the ion-electron system (eV)
  ---------------------------------------------------
  alpha Z        PSCENC =         0.06769965
  Ewald energy   TEWEN  =      2285.68246481
  -Hartree energ DENC   =     -3050.79416158
  -exchange      EXHF   =         0.00000000
  -V(xc)+E(xc)   XCENC  =        62.73494709
  PAW double counting   =     11725.70075161   -11694.73721964
  entropy T*S    EENTRO =        -0.00000000
  eigenvalues    EBANDS =      -362.64083290
  atomic energy  EATOM  =       957.86359424
  Solvation  Ediel_sol  =         0.00000000
  ---------------------------------------------------
  free energy    TOTEN  =       -76.12275674 eV

  energy without entropy =      -76.12275674  energy(sigma->0) =      -76.12275674


--------------------------------------------------------------------------------------------------------




----------------------------------------- Iteration    1(  16)  ---------------------------------------


    POTLOK:  cpu time   44.3368: real time   44.4566
    SETDIJ:  cpu time    0.0482: real time    0.0484
     EDDAV:  cpu time   46.2275: real time   46.3503
       DOS:  cpu time    0.0000: real time    0.0000
    CHARGE:  cpu time    6.3810: real time    6.3981
    MIXING:  cpu time    1.8524: real time    1.8571
    --------------------------------------------
      LOOP:  cpu time   98.8482: real time   99.1159

 eigenvalue-minimisations  :    72
 total energy-change (2. order) :-0.9548214E-03  (-0.4641120E-05)
 number of electron      30.0000000 magnetization 
 augmentation part       -0.0286033 magnetization 

 Broyden mixing:
  rms(total) = 0.15073E-02    rms(broyden)= 0.15073E-02
  rms(prec ) = 0.16293E-02
  weight for this iteration     100.00

 eigenvalues of (default mixing * dielectric matrix)
  average eigenvalue GAMMA=   2.3821
  7.5131  4.6246  2.6699  2.4605  1.7382  1.7382  1.1923  1.1923  1.0503  1.0503
  0.9739

 Free energy of the ion-electron system (eV)
  ---------------------------------------------------
  alpha Z        PSCENC =         0.06769965
  Ewald energy   TEWEN  =      2285.68246481
  -Hartree energ DENC   =     -3050.82073510
  -exchange      EXHF   =         0.00000000
  -V(xc)+E(xc)   XCENC  =        62.73255131
  PAW double counting   =     11712.28237610   -11681.31904416
  entropy T*S    EENTRO =        -0.00000000
  eigenvalues    EBANDS =      -362.61261840
  atomic energy  EATOM  =       957.86359424
  Solvation  Ediel_sol  =         0.00000000
  ---------------------------------------------------
  free energy    TOTEN  =       -76.12371156 eV

  energy without entropy =      -76.12371156  energy(sigma->0) =      -76.12371156


--------------------------------------------------------------------------------------------------------




----------------------------------------- Iteration    1(  17)  ---------------------------------------


    POTLOK:  cpu time   44.3127: real time   44.4304
    SETDIJ:  cpu time    0.0498: real time    0.0500
     EDDAV:  cpu time   36.2491: real time   36.3455
       DOS:  cpu time    0.0000: real time    0.0000
    CHARGE:  cpu time    6.3790: real time    6.3961
    MIXING:  cpu time    1.9289: real time    1.9397
    --------------------------------------------
      LOOP:  cpu time   88.9220: real time   89.1671

 eigenvalue-minimisations  :    52
 total energy-change (2. order) :-0.1860521E-02  (-0.1655113E-04)
 number of electron      30.0000000 magnetization 
 augmentation part       -0.0285964 magnetization 

 Broyden mixing:
  rms(total) = 0.11011E-02    rms(broyden)= 0.11011E-02
  rms(prec ) = 0.11559E-02
  weight for this iteration     100.00

 eigenvalues of (default mixing * dielectric matrix)
  average eigenvalue GAMMA=   2.3236
  7.8161  4.9165  2.5215  2.5215  1.9235  1.9235  1.1790  1.1790  1.0331  1.0331
  0.9185  0.9185

 Free energy of the ion-electron system (eV)
  ---------------------------------------------------
  alpha Z        PSCENC =         0.06769965
  Ewald energy   TEWEN  =      2285.68246481
  -Hartree energ DENC   =     -3050.87054531
  -exchange      EXHF   =         0.00000000
  -V(xc)+E(xc)   XCENC  =        62.72905481
  PAW double counting   =     11703.74410850   -11672.78052736
  entropy T*S    EENTRO =        -0.00000000
  eigenvalues    EBANDS =      -362.56142141
  atomic energy  EATOM  =       957.86359424
  Solvation  Ediel_sol  =         0.00000000
  ---------------------------------------------------
  free energy    TOTEN  =       -76.12557208 eV

  energy without entropy =      -76.12557208  energy(sigma->0) =      -76.12557208


--------------------------------------------------------------------------------------------------------




----------------------------------------- Iteration    1(  18)  ---------------------------------------


    POTLOK:  cpu time   44.3126: real time   44.4304
    SETDIJ:  cpu time    0.0485: real time    0.0486
     EDDAV:  cpu time   46.2137: real time   46.3365
       DOS:  cpu time    0.0000: real time    0.0000
    CHARGE:  cpu time    6.3783: real time    6.3955
    MIXING:  cpu time    2.0257: real time    2.0311
    --------------------------------------------
      LOOP:  cpu time   98.9809: real time   99.2471

 eigenvalue-minimisations  :    72
 total energy-change (2. order) :-0.2217785E-03  (-0.1264707E-05)
 number of electron      30.0000000 magnetization 
 augmentation part       -0.0286088 magnetization 

 Broyden mixing:
  rms(total) = 0.36482E-03    rms(broyden)= 0.36482E-03
  rms(prec ) = 0.42450E-03
  weight for this iteration     100.00

 eigenvalues of (default mixing * dielectric matrix)
  average eigenvalue GAMMA=   2.4677
  8.3968  5.1496  3.4250  2.9134  2.0346  1.7527  1.7527  1.6557  1.0734  1.0734
  0.9964  0.9964  0.8606

 Free energy of the ion-electron system (eV)
  ---------------------------------------------------
  alpha Z        PSCENC =         0.06769965
  Ewald energy   TEWEN  =      2285.68246481
  -Hartree energ DENC   =     -3050.93802515
  -exchange      EXHF   =         0.00000000
  -V(xc)+E(xc)   XCENC  =        62.73017084
  PAW double counting   =     11698.26455795   -11667.30143704
  entropy T*S    EENTRO =        -0.00000000
  eigenvalues    EBANDS =      -362.49481916
  atomic energy  EATOM  =       957.86359424
  Solvation  Ediel_sol  =         0.00000000
  ---------------------------------------------------
  free energy    TOTEN  =       -76.12579386 eV

  energy without entropy =      -76.12579386  energy(sigma->0) =      -76.12579386


--------------------------------------------------------------------------------------------------------




----------------------------------------- Iteration    1(  19)  ---------------------------------------


    POTLOK:  cpu time   44.2588: real time   44.3761
    SETDIJ:  cpu time    0.0519: real time    0.0520
     EDDAV:  cpu time   39.2292: real time   39.3352
       DOS:  cpu time    0.0000: real time    0.0000
    CHARGE:  cpu time    6.3732: real time    6.3898
    MIXING:  cpu time    2.1085: real time    2.1141
    --------------------------------------------
      LOOP:  cpu time   92.0238: real time   92.2727

 eigenvalue-minimisations  :    58
 total energy-change (2. order) :-0.5252219E-03  (-0.1588325E-05)
 number of electron      30.0000000 magnetization 
 augmentation part       -0.0286097 magnetization 

 Broyden mixing:
  rms(total) = 0.43612E-03    rms(broyden)= 0.43612E-03
  rms(prec ) = 0.44337E-03
  weight for this iteration     100.00

 eigenvalues of (default mixing * dielectric matrix)
  average eigenvalue GAMMA=   2.3700
  8.5684  5.4961  3.5204  2.5532  2.1863  1.8047  1.8047  1.4936  1.0699  1.0699
  1.0631  0.9935  0.7783  0.7783

 Free energy of the ion-electron system (eV)
  ---------------------------------------------------
  alpha Z        PSCENC =         0.06769965
  Ewald energy   TEWEN  =      2285.68246481
  -Hartree energ DENC   =     -3051.00011659
  -exchange      EXHF   =         0.00000000
  -V(xc)+E(xc)   XCENC  =        62.73048548
  PAW double counting   =     11694.77578374   -11663.81281740
  entropy T*S    EENTRO =        -0.00000000
  eigenvalues    EBANDS =      -362.43341300
  atomic energy  EATOM  =       957.86359424
  Solvation  Ediel_sol  =         0.00000000
  ---------------------------------------------------
  free energy    TOTEN  =       -76.12631908 eV

  energy without entropy =      -76.12631908  energy(sigma->0) =      -76.12631908


--------------------------------------------------------------------------------------------------------




----------------------------------------- Iteration    1(  20)  ---------------------------------------


    POTLOK:  cpu time   44.1956: real time   44.3127
    SETDIJ:  cpu time    0.0482: real time    0.0483
     EDDAV:  cpu time   46.2095: real time   46.3325
       DOS:  cpu time    0.0000: real time    0.0000
    CHARGE:  cpu time    6.3703: real time    6.3872
    MIXING:  cpu time    2.2081: real time    2.2140
    --------------------------------------------
      LOOP:  cpu time   99.0339: real time   99.2999

 eigenvalue-minimisations  :    72
 total energy-change (2. order) :-0.2763861E-04  (-0.5888469E-07)
 number of electron      30.0000000 magnetization 
 augmentation part       -0.0286118 magnetization 

 Broyden mixing:
  rms(total) = 0.32849E-03    rms(broyden)= 0.32849E-03
  rms(prec ) = 0.33653E-03
  weight for this iteration     100.00

 eigenvalues of (default mixing * dielectric matrix)
  average eigenvalue GAMMA=   2.3729
  8.8120  5.6146  3.8180  2.7062  2.1064  2.1064  1.8527  1.1079  1.1079  1.3635
  1.0733  1.0733  0.8852  0.9542  1.0119

 Free energy of the ion-electron system (eV)
  ---------------------------------------------------
  alpha Z        PSCENC =         0.06769965
  Ewald energy   TEWEN  =      2285.68246481
  -Hartree energ DENC   =     -3051.00774249
  -exchange      EXHF   =         0.00000000
  -V(xc)+E(xc)   XCENC  =        62.73073814
  PAW double counting   =     11696.07765564   -11665.11469513
  entropy T*S    EENTRO =        -0.00000000
  eigenvalues    EBANDS =      -362.42606157
  atomic energy  EATOM  =       957.86359424
  Solvation  Ediel_sol  =         0.00000000
  ---------------------------------------------------
  free energy    TOTEN  =       -76.12634672 eV

  energy without entropy =      -76.12634672  energy(sigma->0) =      -76.12634672


--------------------------------------------------------------------------------------------------------




----------------------------------------- Iteration    1(  21)  ---------------------------------------


    POTLOK:  cpu time   44.1131: real time   44.2323
    SETDIJ:  cpu time    0.0482: real time    0.0483
     EDDAV:  cpu time   35.2891: real time   35.3828
       DOS:  cpu time    0.0000: real time    0.0000
    CHARGE:  cpu time    6.3773: real time    6.3942
    MIXING:  cpu time    2.3109: real time    2.3172
    --------------------------------------------
      LOOP:  cpu time   88.1408: real time   88.3802

 eigenvalue-minimisations  :    50
 total energy-change (2. order) :-0.6948026E-04  (-0.2704081E-07)
 number of electron      30.0000000 magnetization 
 augmentation part       -0.0286114 magnetization 

 Broyden mixing:
  rms(total) = 0.14641E-03    rms(broyden)= 0.14641E-03
  rms(prec ) = 0.15357E-03
  weight for this iteration     100.00

 eigenvalues of (default mixing * dielectric matrix)
  average eigenvalue GAMMA=   2.4082
  8.9605  6.2060  4.2620  2.5867  2.5867  1.9279  1.9279  1.4936  1.4936  1.0721
  1.0721  1.1619  1.0516  0.9247  0.9247  0.8796

 Free energy of the ion-electron system (eV)
  ---------------------------------------------------
  alpha Z        PSCENC =         0.06769965
  Ewald energy   TEWEN  =      2285.68246481
  -Hartree energ DENC   =     -3051.01084885
  -exchange      EXHF   =         0.00000000
  -V(xc)+E(xc)   XCENC  =        62.73054906
  PAW double counting   =     11698.26712864   -11667.30411254
  entropy T*S    EENTRO =        -0.00000000
  eigenvalues    EBANDS =      -362.42289121
  atomic energy  EATOM  =       957.86359424
  Solvation  Ediel_sol  =         0.00000000
  ---------------------------------------------------
  free energy    TOTEN  =       -76.12641620 eV

  energy without entropy =      -76.12641620  energy(sigma->0) =      -76.12641620


--------------------------------------------------------------------------------------------------------




----------------------------------------- Iteration    1(  22)  ---------------------------------------


    POTLOK:  cpu time   44.0257: real time   44.1441
    SETDIJ:  cpu time    0.0482: real time    0.0483
     EDDAV:  cpu time   42.2742: real time   42.3895
       DOS:  cpu time    0.0000: real time    0.0000
    CHARGE:  cpu time    6.3797: real time    6.3968
    MIXING:  cpu time    2.4061: real time    2.4124
    --------------------------------------------
      LOOP:  cpu time   95.1362: real time   95.3965

 eigenvalue-minimisations  :    64
 total energy-change (2. order) :-0.4877209E-04  (-0.2756894E-07)
 number of electron      30.0000000 magnetization 
 augmentation part       -0.0286111 magnetization 

 Broyden mixing:
  rms(total) = 0.58782E-04    rms(broyden)= 0.58782E-04
  rms(prec ) = 0.63753E-04
  weight for this iteration     100.00

 eigenvalues of (default mixing * dielectric matrix)
  average eigenvalue GAMMA=   2.4159
  9.0120  6.3885  4.3189  2.7021  2.7021  2.1313  2.1313  1.3898  1.3898  1.4838
  1.4838  1.0764  1.0764  0.9976  0.9976  0.8942  0.8942

 Free energy of the ion-electron system (eV)
  ---------------------------------------------------
  alpha Z        PSCENC =         0.06769965
  Ewald energy   TEWEN  =      2285.68246481
  -Hartree energ DENC   =     -3051.01343765
  -exchange      EXHF   =         0.00000000
  -V(xc)+E(xc)   XCENC  =        62.73055293
  PAW double counting   =     11699.31816953   -11668.35512595
  entropy T*S    EENTRO =        -0.00000000
  eigenvalues    EBANDS =      -362.42038252
  atomic energy  EATOM  =       957.86359424
  Solvation  Ediel_sol  =         0.00000000
  ---------------------------------------------------
  free energy    TOTEN  =       -76.12646497 eV

  energy without entropy =      -76.12646497  energy(sigma->0) =      -76.12646497


--------------------------------------------------------------------------------------------------------




----------------------------------------- Iteration    1(  23)  ---------------------------------------


    POTLOK:  cpu time   44.0332: real time   44.1499
    SETDIJ:  cpu time    0.0483: real time    0.0484
     EDDAV:  cpu time   32.3195: real time   32.4056
       DOS:  cpu time    0.0000: real time    0.0000
    CHARGE:  cpu time    6.3779: real time    6.3946
    MIXING:  cpu time    2.5165: real time    2.5233
    --------------------------------------------
      LOOP:  cpu time   85.2976: real time   85.5275

 eigenvalue-minimisations  :    44
 total energy-change (2. order) :-0.2515866E-04  (-0.6920434E-08)
 number of electron      30.0000000 magnetization 
 augmentation part       -0.0286109 magnetization 

 Broyden mixing:
  rms(total) = 0.52284E-04    rms(broyden)= 0.52284E-04
  rms(prec ) = 0.53963E-04
  weight for this iteration     100.00

 eigenvalues of (default mixing * dielectric matrix)
  average eigenvalue GAMMA=   2.4633
  9.2263  6.7494  4.8523  3.5314  2.5057  2.5057  1.8813  1.8813  1.5186  1.5186
  1.3389  1.0659  1.0659  1.0127  0.9350  0.9350  0.9073  0.9073

 Free energy of the ion-electron system (eV)
  ---------------------------------------------------
  alpha Z        PSCENC =         0.06769965
  Ewald energy   TEWEN  =      2285.68246481
  -Hartree energ DENC   =     -3051.01235116
  -exchange      EXHF   =         0.00000000
  -V(xc)+E(xc)   XCENC  =        62.73045663
  PAW double counting   =     11699.07900769   -11668.11595718
  entropy T*S    EENTRO =        -0.00000000
  eigenvalues    EBANDS =      -362.42140480
  atomic energy  EATOM  =       957.86359424
  Solvation  Ediel_sol  =         0.00000000
  ---------------------------------------------------
  free energy    TOTEN  =       -76.12649013 eV

  energy without entropy =      -76.12649013  energy(sigma->0) =      -76.12649013


--------------------------------------------------------------------------------------------------------




----------------------------------------- Iteration    1(  24)  ---------------------------------------


    POTLOK:  cpu time   44.0698: real time   44.1878
    SETDIJ:  cpu time    0.0499: real time    0.0500
     EDDAV:  cpu time   38.2629: real time   38.3646
       DOS:  cpu time    0.0000: real time    0.0000
    CHARGE:  cpu time    6.3745: real time    6.3917
    MIXING:  cpu time    2.6416: real time    2.6485
    --------------------------------------------
      LOOP:  cpu time   91.4009: real time   91.6480

 eigenvalue-minimisations  :    56
 total energy-change (2. order) :-0.1087709E-04  (-0.3758734E-08)
 number of electron      30.0000000 magnetization 
 augmentation part       -0.0286107 magnetization 

 Broyden mixing:
  rms(total) = 0.34222E-04    rms(broyden)= 0.34222E-04
  rms(prec ) = 0.35216E-04
  weight for this iteration     100.00

 eigenvalues of (default mixing * dielectric matrix)
  average eigenvalue GAMMA=   2.4339
  9.2784  6.8870  5.0028  3.5561  2.4737  2.4737  2.0542  2.0542  1.4999  1.4999
  1.2472  1.2472  1.0871  1.0871  1.0417  1.0417  0.9275  0.8926  0.8926

 Free energy of the ion-electron system (eV)
  ---------------------------------------------------
  alpha Z        PSCENC =         0.06769965
  Ewald energy   TEWEN  =      2285.68246481
  -Hartree energ DENC   =     -3051.01249860
  -exchange      EXHF   =         0.00000000
  -V(xc)+E(xc)   XCENC  =        62.73039991
  PAW double counting   =     11698.89947153   -11667.93641553
  entropy T*S    EENTRO =        -0.00000000
  eigenvalues    EBANDS =      -362.42121700
  atomic energy  EATOM  =       957.86359424
  Solvation  Ediel_sol  =         0.00000000
  ---------------------------------------------------
  free energy    TOTEN  =       -76.12650101 eV

  energy without entropy =      -76.12650101  energy(sigma->0) =      -76.12650101


--------------------------------------------------------------------------------------------------------




----------------------------------------- Iteration    1(  25)  ---------------------------------------


    POTLOK:  cpu time   44.0772: real time   44.1946
    SETDIJ:  cpu time    0.0494: real time    0.0496
     EDDAV:  cpu time   32.3334: real time   32.4193
       DOS:  cpu time    0.0000: real time    0.0000
    CHARGE:  cpu time    6.3789: real time    6.3958
    MIXING:  cpu time    2.7507: real time    2.7581
    --------------------------------------------
      LOOP:  cpu time   85.5919: real time   85.8232

 eigenvalue-minimisations  :    44
 total energy-change (2. order) :-0.3400788E-05  (-0.7529106E-09)
 number of electron      30.0000000 magnetization 
 augmentation part       -0.0286107 magnetization 

 Broyden mixing:
  rms(total) = 0.11875E-04    rms(broyden)= 0.11875E-04
  rms(prec ) = 0.13046E-04
  weight for this iteration     100.00

 eigenvalues of (default mixing * dielectric matrix)
  average eigenvalue GAMMA=   2.4879
  9.3693  7.2304  5.4080  4.0449  2.7438  2.3217  2.3217  1.9598  1.9598  1.5206
  1.5206  1.3953  1.0733  1.0733  1.0362  1.0362  1.0032  0.9424  0.8990  0.8990

 Free energy of the ion-electron system (eV)
  ---------------------------------------------------
  alpha Z        PSCENC =         0.06769965
  Ewald energy   TEWEN  =      2285.68246481
  -Hartree energ DENC   =     -3051.01334869
  -exchange      EXHF   =         0.00000000
  -V(xc)+E(xc)   XCENC  =        62.73040523
  PAW double counting   =     11698.72594808   -11667.76289702
  entropy T*S    EENTRO =        -0.00000000
  eigenvalues    EBANDS =      -362.42037070
  atomic energy  EATOM  =       957.86359424
  Solvation  Ediel_sol  =         0.00000000
  ---------------------------------------------------
  free energy    TOTEN  =       -76.12650441 eV

  energy without entropy =      -76.12650441  energy(sigma->0) =      -76.12650441


--------------------------------------------------------------------------------------------------------




----------------------------------------- Iteration    1(  26)  ---------------------------------------


    POTLOK:  cpu time   44.1517: real time   44.2728
    SETDIJ:  cpu time    0.0493: real time    0.0496
     EDDAV:  cpu time   32.3509: real time   32.4368
       DOS:  cpu time    0.0000: real time    0.0000
    CHARGE:  cpu time    6.3805: real time    6.3973
    MIXING:  cpu time    2.8612: real time    2.8688
    --------------------------------------------
      LOOP:  cpu time   85.7957: real time   86.0308

 eigenvalue-minimisations  :    44
 total energy-change (2. order) :-0.3478426E-05  (-0.1570514E-08)
 number of electron      30.0000000 magnetization 
 augmentation part       -0.0286108 magnetization 

 Broyden mixing:
  rms(total) = 0.10394E-04    rms(broyden)= 0.10394E-04
  rms(prec ) = 0.10704E-04
  weight for this iteration     100.00

 eigenvalues of (default mixing * dielectric matrix)
  average eigenvalue GAMMA=   2.4697
  9.4271  7.2724  5.5307  4.0772  2.4661  2.4661  2.5550  2.4668  1.9860  1.5125
  1.5125  1.3235  1.3235  1.0771  1.0771  1.0575  0.9856  0.9856  0.9939  0.8834
  0.8834

 Free energy of the ion-electron system (eV)
  ---------------------------------------------------
  alpha Z        PSCENC =         0.06769965
  Ewald energy   TEWEN  =      2285.68246481
  -Hartree energ DENC   =     -3051.01463932
  -exchange      EXHF   =         0.00000000
  -V(xc)+E(xc)   XCENC  =        62.73043217
  PAW double counting   =     11698.67917848   -11667.71613541
  entropy T*S    EENTRO =        -0.00000000
  eigenvalues    EBANDS =      -362.41910251
  atomic energy  EATOM  =       957.86359424
  Solvation  Ediel_sol  =         0.00000000
  ---------------------------------------------------
  free energy    TOTEN  =       -76.12650788 eV

  energy without entropy =      -76.12650788  energy(sigma->0) =      -76.12650788


--------------------------------------------------------------------------------------------------------




----------------------------------------- Iteration    1(  27)  ---------------------------------------


    POTLOK:  cpu time   44.1975: real time   44.3176
    SETDIJ:  cpu time    0.0485: real time    0.0486
     EDDAV:  cpu time   38.2682: real time   38.3697
       DOS:  cpu time    0.0000: real time    0.0000
    CHARGE:  cpu time    6.3915: real time    6.4084
    MIXING:  cpu time    2.9953: real time    3.0032
    --------------------------------------------
      LOOP:  cpu time   91.9032: real time   92.1532

 eigenvalue-minimisations  :    56
 total energy-change (2. order) :-0.8846891E-06  (-0.6214727E-09)
 number of electron      30.0000000 magnetization 
 augmentation part       -0.0286108 magnetization 

 Broyden mixing:
  rms(total) = 0.53508E-05    rms(broyden)= 0.53508E-05
  rms(prec ) = 0.55399E-05
  weight for this iteration     100.00

 eigenvalues of (default mixing * dielectric matrix)
  average eigenvalue GAMMA=   2.4933
  9.4888  7.5395  5.8913  4.4381  3.3104  2.4923  2.4923  2.0543  2.0543  1.5132
  1.5132  1.5348  1.5348  1.0785  1.0785  1.0251  1.0251  1.0404  0.9896  0.9896
  0.8843  0.8843

 Free energy of the ion-electron system (eV)
  ---------------------------------------------------
  alpha Z        PSCENC =         0.06769965
  Ewald energy   TEWEN  =      2285.68246481
  -Hartree energ DENC   =     -3051.01448076
  -exchange      EXHF   =         0.00000000
  -V(xc)+E(xc)   XCENC  =        62.73042440
  PAW double counting   =     11698.81034266   -11667.84729563
  entropy T*S    EENTRO =        -0.00000000
  eigenvalues    EBANDS =      -362.41925812
  atomic energy  EATOM  =       957.86359424
  Solvation  Ediel_sol  =         0.00000000
  ---------------------------------------------------
  free energy    TOTEN  =       -76.12650877 eV

  energy without entropy =      -76.12650877  energy(sigma->0) =      -76.12650877


--------------------------------------------------------------------------------------------------------




----------------------------------------- Iteration    1(  28)  ---------------------------------------


    POTLOK:  cpu time   44.0920: real time   44.2114
    SETDIJ:  cpu time    0.0489: real time    0.0491
     EDDAV:  cpu time   32.3125: real time   32.3981
       DOS:  cpu time    0.0000: real time    0.0000
    CHARGE:  cpu time    6.4110: real time    6.4279
    MIXING:  cpu time    3.1144: real time    3.1229
    --------------------------------------------
      LOOP:  cpu time   85.9811: real time   86.2149

 eigenvalue-minimisations  :    44
 total energy-change (2. order) :-0.5217480E-06  (-0.6121308E-09)
 number of electron      30.0000000 magnetization 
 augmentation part       -0.0286108 magnetization 

 Broyden mixing:
  rms(total) = 0.26064E-05    rms(broyden)= 0.26064E-05
  rms(prec ) = 0.27465E-05
  weight for this iteration     100.00

 eigenvalues of (default mixing * dielectric matrix)
  average eigenvalue GAMMA=   2.4959
  9.5197  7.7222  6.0100  4.6936  3.4346  2.6115  2.2592  2.2592  2.3019  1.9624
  1.5058  1.5058  1.3578  1.2916  1.0732  1.0732  1.0440  1.0440  1.0652  0.8885
  0.8885  0.9465  0.9465

 Free energy of the ion-electron system (eV)
  ---------------------------------------------------
  alpha Z        PSCENC =         0.06769965
  Ewald energy   TEWEN  =      2285.68246481
  -Hartree energ DENC   =     -3051.01466163
  -exchange      EXHF   =         0.00000000
  -V(xc)+E(xc)   XCENC  =        62.73042857
  PAW double counting   =     11698.75347488   -11667.79042932
  entropy T*S    EENTRO =        -0.00000000
  eigenvalues    EBANDS =      -362.41908049
  atomic energy  EATOM  =       957.86359424
  Solvation  Ediel_sol  =         0.00000000
  ---------------------------------------------------
  free energy    TOTEN  =       -76.12650929 eV

  energy without entropy =      -76.12650929  energy(sigma->0) =      -76.12650929


--------------------------------------------------------------------------------------------------------




----------------------------------------- Iteration    1(  29)  ---------------------------------------


    POTLOK:  cpu time   43.9824: real time   44.0988
    SETDIJ:  cpu time    0.0482: real time    0.0483
     EDDAV:  cpu time   30.3269: real time   30.4074
       DOS:  cpu time    0.0000: real time    0.0000
    CHARGE:  cpu time    6.3854: real time    6.4025
    MIXING:  cpu time    3.2539: real time    3.2626
    --------------------------------------------
      LOOP:  cpu time   83.9990: real time   84.2253

 eigenvalue-minimisations  :    40
 total energy-change (2. order) :-0.2809575E-06  (-0.4641194E-09)
 number of electron      30.0000000 magnetization 
 augmentation part       -0.0286108 magnetization 

 Broyden mixing:
  rms(total) = 0.10044E-05    rms(broyden)= 0.10044E-05
  rms(prec ) = 0.11061E-05
  weight for this iteration     100.00

 eigenvalues of (default mixing * dielectric matrix)
  average eigenvalue GAMMA=   2.5027
  9.5228  7.9426  6.1463  4.9793  3.6693  2.6669  2.6669  2.1587  2.1587  2.0509
  1.5022  1.5022  1.6363  1.3771  1.0840  1.0840  1.1322  1.0660  1.0660  0.9695
  0.9695  0.9431  0.8856  0.8856

 Free energy of the ion-electron system (eV)
  ---------------------------------------------------
  alpha Z        PSCENC =         0.06769965
  Ewald energy   TEWEN  =      2285.68246481
  -Hartree energ DENC   =     -3051.01451730
  -exchange      EXHF   =         0.00000000
  -V(xc)+E(xc)   XCENC  =        62.73042333
  PAW double counting   =     11698.75161623   -11667.78856988
  entropy T*S    EENTRO =        -0.00000000
  eigenvalues    EBANDS =      -362.41922064
  atomic energy  EATOM  =       957.86359424
  Solvation  Ediel_sol  =         0.00000000
  ---------------------------------------------------
  free energy    TOTEN  =       -76.12650957 eV

  energy without entropy =      -76.12650957  energy(sigma->0) =      -76.12650957


--------------------------------------------------------------------------------------------------------




----------------------------------------- Iteration    1(  30)  ---------------------------------------


    POTLOK:  cpu time   44.0264: real time   44.1431
    SETDIJ:  cpu time    0.0481: real time    0.0482
     EDDAV:  cpu time   32.3390: real time   32.4251
       DOS:  cpu time    0.0000: real time    0.0000
    CHARGE:  cpu time    6.3840: real time    6.4011
    MIXING:  cpu time    3.4177: real time    3.4267
    --------------------------------------------
      LOOP:  cpu time   86.2176: real time   86.4496

 eigenvalue-minimisations  :    44
 total energy-change (2. order) :-0.1451772E-06  (-0.3097327E-09)
 number of electron      30.0000000 magnetization 
 augmentation part       -0.0286108 magnetization 

 Broyden mixing:
  rms(total) = 0.14693E-05    rms(broyden)= 0.14693E-05
  rms(prec ) = 0.15046E-05
  weight for this iteration     100.00

 eigenvalues of (default mixing * dielectric matrix)
  average eigenvalue GAMMA=   2.4695
  9.5496  8.0178  6.2792  5.0781  3.8527  2.8340  2.3442  2.3442  2.1068  2.1068
  1.7861  1.4972  1.4972  1.3506  1.0724  1.0724  1.1121  1.1121  1.0001  1.0001
  0.8877  0.8877  0.9932  0.9776  0.9776

 Free energy of the ion-electron system (eV)
  ---------------------------------------------------
  alpha Z        PSCENC =         0.06769965
  Ewald energy   TEWEN  =      2285.68246481
  -Hartree energ DENC   =     -3051.01451175
  -exchange      EXHF   =         0.00000000
  -V(xc)+E(xc)   XCENC  =        62.73042314
  PAW double counting   =     11698.76967067   -11667.80662379
  entropy T*S    EENTRO =        -0.00000000
  eigenvalues    EBANDS =      -362.41922669
  atomic energy  EATOM  =       957.86359424
  Solvation  Ediel_sol  =         0.00000000
  ---------------------------------------------------
  free energy    TOTEN  =       -76.12650972 eV

  energy without entropy =      -76.12650972  energy(sigma->0) =      -76.12650972


--------------------------------------------------------------------------------------------------------




----------------------------------------- Iteration    1(  31)  ---------------------------------------


    POTLOK:  cpu time   44.0964: real time   44.2134
    SETDIJ:  cpu time    0.0482: real time    0.0486
     EDDAV:  cpu time   30.3509: real time   30.4316
       DOS:  cpu time    0.0000: real time    0.0000
    --------------------------------------------
      LOOP:  cpu time   74.4976: real time   74.6988

 eigenvalue-minimisations  :    40
 total energy-change (2. order) :-0.4991853E-07  (-0.1704787E-09)
 number of electron      30.0000000 magnetization 
 augmentation part       -0.0286108 magnetization 

 Free energy of the ion-electron system (eV)
  ---------------------------------------------------
  alpha Z        PSCENC =         0.06769965
  Ewald energy   TEWEN  =      2285.68246481
  -Hartree energ DENC   =     -3051.01454523
  -exchange      EXHF   =         0.00000000
  -V(xc)+E(xc)   XCENC  =        62.73042345
  PAW double counting   =     11698.76150696   -11667.79846047
  entropy T*S    EENTRO =        -0.00000000
  eigenvalues    EBANDS =      -362.41919318
  atomic energy  EATOM  =       957.86359424
  Solvation  Ediel_sol  =         0.00000000
  ---------------------------------------------------
  free energy    TOTEN  =       -76.12650977 eV

  energy without entropy =      -76.12650977  energy(sigma->0) =      -76.12650977


--------------------------------------------------------------------------------------------------------




 average (electrostatic) potential at core
  the test charge radii are     0.5770  0.4325
  (the norm of the test charge is              1.0000)
       1 -86.0864       2 -86.0858       3 -86.0854       4 -86.0858       5 -86.0862
       6 -86.0861       7 -45.0204       8 -45.0220       9 -45.0234      10 -45.0218
      11 -45.0209      12 -45.0319
 
 
 
 E-fermi :  -6.2283     XC(G=0):  -0.0478     alpha+bet : -0.0186


 k-point     1 :       0.0000    0.0000    0.0000
  band No.  band energies     occupation 
      1     -21.2074      2.00000
      2     -18.4268      2.00000
      3     -18.4234      2.00000
      4     -14.8190      2.00000
      5     -14.8183      2.00000
      6     -12.9011      2.00000
      7     -11.2017      2.00000
      8     -10.8694      2.00000
      9     -10.2164      2.00000
     10     -10.2103      2.00000
     11      -9.0564      2.00000
     12      -8.2165      2.00000
     13      -8.2059      2.00000
     14      -6.3191      2.00000
     15      -6.3180      2.00000
     16      -1.2013      0.00000
     17      -1.1993      0.00000
     18      -0.4980      0.00000
     19      -0.0297      0.00000
     20      -0.0293      0.00000
     21       0.0147      0.00000
     22       0.1127      0.00000


--------------------------------------------------------------------------------------------------------


 soft charge-density along one line, spin component           1
         0         1         2         3         4         5         6         7         8         9
 total charge-density along one line
 
 pseudopotential strength for first ion, spin component:           1
 12.720  21.405   0.000  -0.000   0.000   0.000  -0.000   0.000
 21.405  36.019   0.000  -0.000   0.000   0.001  -0.000   0.001
  0.000   0.000  -3.175   0.001  -0.000  -5.692   0.002  -0.000
 -0.000  -0.000   0.001  -3.181  -0.001   0.002  -5.701  -0.001
  0.000   0.000  -0.000  -0.001  -3.175  -0.000  -0.001  -5.691
  0.000   0.001  -5.692   0.002  -0.000 -10.181   0.003  -0.000
 -0.000  -0.000   0.002  -5.701  -0.001   0.003 -10.197  -0.002
  0.000   0.001  -0.000  -0.001  -5.691  -0.000  -0.002 -10.180
 total augmentation occupancy for first ion, spin component:           1
  7.538  -2.575  -0.549  -0.027  -0.459   0.249   0.013   0.209
 -2.575   0.908   0.264   0.014   0.221  -0.117  -0.006  -0.098
 -0.549   0.264   7.031   0.687  -0.320  -2.351  -0.269   0.140
 -0.027   0.014   0.687   3.264  -0.485  -0.269  -0.881   0.192
 -0.459   0.221  -0.320  -0.485   7.227   0.140   0.192  -2.433
  0.249  -0.117  -2.351  -0.269   0.140   0.796   0.102  -0.060
  0.013  -0.006  -0.269  -0.881   0.192   0.102   0.242  -0.074
  0.209  -0.098   0.140   0.192  -2.433  -0.060  -0.074   0.830


------------------------ aborting loop because EDIFF is reached ----------------------------------------


    CHARGE:  cpu time    6.3977: real time    6.4146
    FORLOC:  cpu time    5.1965: real time    5.2104
    FORNL :  cpu time    4.0086: real time    4.0193
    STRESS:  cpu time   16.0470: real time   16.0895
    FORCOR:  cpu time   44.5143: real time   44.6323
    FORHAR:  cpu time   15.2776: real time   15.3182
    MIXING:  cpu time    3.5332: real time    3.5425
    OFIELD:  cpu time    0.0000: real time    0.0000

  FORCE on cell =-STRESS in cart. coord.  units (eV):
  Direction    XX          YY          ZZ          XY          YZ          ZX
  --------------------------------------------------------------------------------------
  Alpha Z     0.06770     0.06770     0.06770
  Ewald    1215.18741  1194.61540  -124.12123    23.18829   221.75582  -143.44324
  Hartree  1278.55765  1266.63718   505.81979    13.37143   127.44479   -82.48024
  E(xc)    -115.29594  -115.33553  -117.87425     0.04474     0.43022    -0.27793
  Local   -2854.58066 -2822.78053  -790.03176   -35.75495  -341.23493   220.78600
  n-local     3.58453     3.55989     0.88434     0.03743     0.44897    -0.29025
  augment     0.61431     0.61311     0.54127     0.00131     0.01213    -0.00785
  Kinetic   473.38692   474.08427   524.76595    -0.83973    -8.61713     5.55750
  Fock        0.00000     0.00000     0.00000     0.00000     0.00000     0.00000
  -------------------------------------------------------------------------------------
  Total       1.52190     1.46149     0.05181     0.04852     0.23986    -0.15601
  in kB       0.05687     0.05461     0.00194     0.00181     0.00896    -0.00583
  external pressure =        0.04 kB  Pullay stress =        0.00 kB


 VOLUME and BASIS-vectors are now :
 -----------------------------------------------------------------------------
  energy-cutoff  :     2000.00
  volume of cell :    42875.00
      direct lattice vectors                 reciprocal lattice vectors
    35.000000000  0.000000000  0.000000000     0.028571429  0.000000000  0.000000000
     0.000000000 35.000000000  0.000000000     0.000000000  0.028571429  0.000000000
     0.000000000  0.000000000 35.000000000     0.000000000  0.000000000  0.028571429

  length of vectors
    35.000000000 35.000000000 35.000000000     0.028571429  0.028571429  0.028571429


 FORCES acting on ions
    electron-ion (+dipol)            ewald-force                    non-local-force                 convergence-correction
 -----------------------------------------------------------------------------------------------
   -.116E+03 -.138E+03 -.933E+01   0.116E+03 0.138E+03 0.936E+01   0.189E+00 0.274E+00 -.212E-01   0.239E-05 0.270E-05 0.218E-06
   -.177E+03 0.289E+02 0.240E+02   0.177E+03 -.288E+02 -.239E+02   0.326E+00 -.240E-01 -.712E-01   0.338E-05 -.653E-06 -.454E-06
   -.606E+02 0.167E+03 0.336E+02   0.604E+02 -.167E+03 -.335E+02   0.106E+00 -.306E+00 -.989E-01   0.115E-05 -.306E-05 -.643E-06
   0.117E+03 0.138E+03 0.108E+02   -.116E+03 -.138E+03 -.107E+02   -.234E+00 -.234E+00 -.461E-01   -.225E-05 -.310E-05 -.240E-06
   0.177E+03 -.291E+02 -.226E+02   -.177E+03 0.290E+02 0.226E+02   -.320E+00 0.849E-01 0.221E-02   -.362E-05 0.420E-06 0.453E-06
   0.607E+02 -.167E+03 -.330E+02   -.605E+02 0.167E+03 0.330E+02   -.951E-01 0.246E+00 0.333E-01   -.842E-06 0.328E-05 0.640E-06
   -.522E+02 -.618E+02 -.493E+01   0.562E+02 0.666E+02 0.531E+01   -.378E+01 -.449E+01 -.372E+00   0.751E-06 0.874E-06 0.795E-07
   -.793E+02 0.130E+02 0.103E+02   0.854E+02 -.140E+02 -.111E+02   -.575E+01 0.947E+00 0.738E+00   0.111E-05 -.194E-06 -.141E-06
   -.272E+02 0.750E+02 0.147E+02   0.293E+02 -.807E+02 -.158E+02   -.197E+01 0.544E+01 0.106E+01   0.380E-06 -.103E-05 -.206E-06
   0.522E+02 0.619E+02 0.436E+01   -.561E+02 -.666E+02 -.469E+01   0.378E+01 0.449E+01 0.307E+00   -.741E-06 -.898E-06 -.583E-07
   0.793E+02 -.130E+02 -.109E+02   -.853E+02 0.140E+02 0.118E+02   0.575E+01 -.946E+00 -.809E+00   -.121E-05 0.171E-06 0.170E-06
   0.270E+02 -.747E+02 -.164E+02   -.291E+02 0.804E+02 0.177E+02   0.196E+01 -.542E+01 -.123E+01   -.348E-06 0.106E-05 0.239E-06
 -----------------------------------------------------------------------------------------------
   0.476E-01 -.651E-01 0.508E+00   -.533E-13 -.142E-13 -.711E-14   -.476E-01 0.651E-01 -.508E+00   0.129E-06 -.424E-06 0.573E-07
 
 
 POSITION                                       TOTAL-FORCE (eV/Angst)
 -----------------------------------------------------------------------------------
      0.96408      0.87509      0.37801        -0.150518     -0.135451      0.011064
      1.43106     34.58687      0.11899        -0.188532      0.049086      0.025509
      0.53413     33.52236      0.04242        -0.068000      0.180023      0.029569
     34.16967     33.74640      0.22086         0.112761      0.159315      0.013935
     33.70241      0.03441      0.48024         0.209623     -0.002120     -0.003109
     34.59955      1.09978      0.56160         0.093721     -0.270766     -0.014544
      1.65983      1.69993      0.44604         0.213604      0.240950      0.010890
      2.48952     34.41279     34.98299         0.311956     -0.049345     -0.045615
      0.89696     32.52261     34.84799         0.107265     -0.297032     -0.065254
     33.47424     32.92038      0.16412        -0.206429     -0.242407     -0.022599
     32.64560      0.20802      0.62856        -0.318790      0.042071      0.032707
     34.23954      2.09377      0.78476        -0.116661      0.325676      0.027446
 -----------------------------------------------------------------------------------
    total drift:                               -0.000004      0.000009     -0.000007


--------------------------------------------------------------------------------------------------------



  FREE ENERGIE OF THE ION-ELECTRON SYSTEM (eV)
  ---------------------------------------------------
  free  energy   TOTEN  =       -76.12650977 eV

  energy  without entropy=      -76.12650977  energy(sigma->0) =      -76.12650977
 


--------------------------------------------------------------------------------------------------------


    POTLOK:  cpu time   44.4841: real time   44.6050


--------------------------------------------------------------------------------------------------------


 writing wavefunctions
     LOOP+:  cpu time 3454.0007: real time 3463.4242
    4ORBIT:  cpu time    0.0000: real time    0.0000

 total amount of memory used by VASP on root node  9037898. kBytes
========================================================================

   base      :      30000. kBytes
   nonl-proj :     116099. kBytes
   fftplans  :    3255861. kBytes
   grid      :    5508227. kBytes
   one-center:          1. kBytes
   wavefun   :     127710. kBytes
 
  
  
 General timing and accounting informations for this job:
 ========================================================
  
                  Total CPU time used (sec):     4457.658
                            User time (sec):     4041.402
                          System time (sec):      416.255
                         Elapsed time (sec):     4469.781
  
                   Maximum memory used (kb):    14313400.
                   Average memory used (kb):           0.
  
                          Minor page faults:     45367147
                          Major page faults:            6
                 Voluntary context switches:          788
 
 PROFILE, used timers:      14
 =============================
 
 index                 routine                    time                            calls level
----------------------------------------------------------------------------------------------
    1    total_time                         4469.781919                                1   1
    2      w1_copy                              11.365867                           7420   2
    3      fftwav_mpi                          507.416908                           2893   2
    4      fftext_mpi                            2.467840                             22   2
    5      overl                                 0.002403                           4251   2
    6      orth1                                13.693827                           1025   2
    7      lincom                                0.855986                             32   2
    8      eccp                                 18.097204                            682   2
    9      hamiltmu                            587.244698                            341   2
   10        vhamil                              106.968856                         2466   3
   11        overl1                                0.001721                         2466   3
   12        kinhamil                            294.821309                         2466   3
   13          fftext_mpi                          291.592437                       2466   4
   14      pdssyex_zheevx                        0.042937                             31   2
 
 Flat profile
 ============
 
             routine name                   CPU           calls
 ---------------------------------------------------------------
 total_time                           3328.594250           1
 fftwav_mpi                            507.416908        2893
 fftext_mpi                            294.060277        2488
 hamiltmu                              185.452813         341
 vhamil                                106.968856        2466
 eccp                                   18.097204         682
 orth1                                  13.693827        1025
 w1_copy                                11.365867        7420
 kinhamil                                3.228872        2466
 lincom                                  0.855986          32
 pdssyex_zheevx                          0.042937          31
 overl                                   0.002403        4251
 overl1                                  0.001721        2466
 ---------------------------------------------------------------
  summed up times    4469.78191900253     
 
Profiling took   0.013659  0.007337  0.003298  0.003292 seconds
Profiling took   0.013243 seconds
