 vasp.5.4.1 24Jun15 (build Jan 02 2020 16:21:29) gamma-only                     
  
 executed on           IFC15_impi date 2020.04.14  10:25:22
 running on   12 total cores
 distrk:  each k-point on   12 cores,    1 groups
 distr:  one band on NCORES_PER_BAND=  12 cores,    1 groups


--------------------------------------------------------------------------------------------------------


 INCAR:
 POTCAR:    PAW_PBE C_h 06Feb2004                 
 POTCAR:    PAW_PBE H_h 06Feb2004                 

 ----------------------------------------------------------------------------- 
|                                                                             |
|           W    W    AA    RRRRR   N    N  II  N    N   GGGG   !!!           |
|           W    W   A  A   R    R  NN   N  II  NN   N  G    G  !!!           |
|           W    W  A    A  R    R  N N  N  II  N N  N  G       !!!           |
|           W WW W  AAAAAA  RRRRR   N  N N  II  N  N N  G  GGG   !            |
|           WW  WW  A    A  R   R   N   NN  II  N   NN  G    G                |
|           W    W  A    A  R    R  N    N  II  N    N   GGGG   !!!           |
|                                                                             |
|      For optimal performance we recommend to set                            |
|        NCORE= 4 - approx SQRT( number of cores)                             |
|      NCORE specifies how many cores store one orbital (NPAR=cpu/NCORE).     |
|      This setting can  greatly improve the performance of VASP for DFT.     |
|      The default, NPAR=number of cores might be grossly inefficient         |
|      on modern multi-core architectures or massively parallel machines.     |
|      Do your own testing !!!!                                               |
|      Unfortunately you need to use the default for GW and RPA calculations. |
|      (for HF NCORE is supported but not extensively tested yet)             |
|                                                                             |
 ----------------------------------------------------------------------------- 

 POTCAR:    PAW_PBE C_h 06Feb2004                 
   VRHFIN =C: s2p2                                                              
   LEXCH  = PE                                                                  
   EATOM  =   147.1560 eV,   10.8157 Ry                                         
                                                                                
   TITEL  = PAW_PBE C_h 06Feb2004                                               
   LULTRA =        F    use ultrasoft PP ?                                      
   IUNSCR =        1    unscreen: 0-lin 1-nonlin 2-no                           
   RPACOR =    0.800    partial core radius                                     
   POMASS =   12.011; ZVAL   =    4.000    mass and valenz                      
   RCORE  =    1.100    outmost cutoff radius                                   
   RWIGS  =    1.630; RWIGS  =    0.863    wigner-seitz radius (au A)           
   ENMAX  =  700.000; ENMIN  =  500.000 eV                                      
   ICORE  =        2    local potential                                         
   LCOR   =        T    correct aug charges                                     
   LPAW   =        T    paw PP                                                  
   EAUG   =  946.768                                                            
   DEXC   =    0.000                                                            
   RMAX   =    1.128    core radius for proj-oper                               
   RAUG   =    1.300    factor for augmentation sphere                          
   RDEP   =    1.162    radius for radial grids                                 
   RDEPT  =    1.088    core radius for aug-charge                              
                                                                                
   Atomic configuration                                                         
    4 entries                                                                   
     n  l   j            E        occ.                                          
     1  0  0.50      -273.3789   2.0000                                         
     2  0  0.50       -13.7508   2.0000                                         
     2  1  0.50        -5.2854   2.0000                                         
     3  2  1.50        -5.4423   0.0000                                         
   Description                                                                  
     l       E           TYP  RCUT    TYP  RCUT                                 
     0    -13.7508458     23  1.100                                             
     0     -8.2022199     23  1.100                                             
     1     -5.2854383     23  1.100                                             
     1      1.1560700     23  1.100                                             
     2     -5.4423304      7  1.100                                             
  local pseudopotential read in
  partial core-charges read in
  partial kinetic energy density read in
  atomic valenz-charges read in
  non local Contribution for L=           0  read in
    real space projection operators read in
  non local Contribution for L=           0  read in
    real space projection operators read in
  non local Contribution for L=           1  read in
    real space projection operators read in
  non local Contribution for L=           1  read in
    real space projection operators read in
    PAW grid and wavefunctions read in
 
   number of l-projection  operators is LMAX  =           4
   number of lm-projection operators is LMMAX =           8
 
 POTCAR:    PAW_PBE H_h 06Feb2004                 
   VRHFIN =H: ultrasoft test                                                    
   LEXCH  = PE                                                                  
   EATOM  =    12.4884 eV,    0.9179 Ry                                         
                                                                                
   TITEL  = PAW_PBE H_h 06Feb2004                                               
   LULTRA =        F    use ultrasoft PP ?                                      
   IUNSCR =        0    unscreen: 0-lin 1-nonlin 2-no                           
   RPACOR =    0.000    partial core radius                                     
   POMASS =    1.000; ZVAL   =    1.000    mass and valenz                      
   RCORE  =    0.800    outmost cutoff radius                                   
   RWIGS  =    0.700; RWIGS  =    0.370    wigner-seitz radius (au A)           
   ENMAX  =  700.000; ENMIN  =  350.000 eV                                      
   RCLOC  =    0.701    cutoff for local pot                                    
   LCOR   =        T    correct aug charges                                     
   LPAW   =        T    paw PP                                                  
   EAUG   = 1000.000                                                            
   RMAX   =    0.819    core radius for proj-oper                               
   RAUG   =    1.000    factor for augmentation sphere                          
   RDEP   =    0.817    radius for radial grids                                 
   RDEPT  =    0.817    core radius for aug-charge                              
                                                                                
   Atomic configuration                                                         
    2 entries                                                                   
     n  l   j            E        occ.                                          
     1  0  0.50        -6.4927   1.0000                                         
     2  1  0.50        -3.4015   0.0000                                         
   Description                                                                  
     l       E           TYP  RCUT    TYP  RCUT                                 
     0     -6.4927493     23  0.800                                             
     0      6.8029130     23  0.800                                             
     1     -6.8029130     23  0.800                                             
  local pseudopotential read in
  atomic valenz-charges read in
  non local Contribution for L=           0  read in
    real space projection operators read in
  non local Contribution for L=           0  read in
    real space projection operators read in
  non local Contribution for L=           1  read in
    real space projection operators read in
    PAW grid and wavefunctions read in
 
   number of l-projection  operators is LMAX  =           3
   number of lm-projection operators is LMMAX =           5
 
  PAW_PBE C_h 06Feb2004                 :
 energy of atom  1       EATOM= -147.1560
 kinetic energy error for atom=    0.0004 (will be added to EATOM!!)
  PAW_PBE H_h 06Feb2004                 :
 energy of atom  2       EATOM=  -12.4884
 kinetic energy error for atom=    0.0001 (will be added to EATOM!!)
 
 
 POSCAR: C H                                     
  positions in cartesian coordinates
  No initial velocities read in
 exchange correlation table for  LEXCH =        8
   RHO(1)=    0.500       N(1)  =     2000
   RHO(2)=  100.500       N(2)  =     4000
 


--------------------------------------------------------------------------------------------------------


 ion  position               nearest neighbor table
   1  0.022  0.983  0.965-   7 1.08   2 1.39   6 1.39
   2  0.014  0.021  0.965-   8 1.08   1 1.39   3 1.39
   3  0.009  0.041  0.000-   9 1.08   2 1.39   4 1.39
   4  0.014  0.021  0.035-  10 1.08   5 1.39   3 1.39
   5  0.022  0.983  0.035-  11 1.08   4 1.39   6 1.39
   6  0.027  0.963  0.000-  12 1.08   5 1.39   1 1.39
   7  0.026  0.967  0.939-   1 1.08
   8  0.010  0.037  0.939-   2 1.08
   9  0.003  0.071  0.000-   3 1.08
  10  0.010  0.037  0.061-   4 1.08
  11  0.026  0.967  0.061-   5 1.08
  12  0.033  0.933  0.000-   6 1.08
 
  LATTYP: Found a simple cubic cell.
 ALAT       =    35.0000000000
  
  Lattice vectors:
  
 A1 = (  35.0000000000,   0.0000000000,   0.0000000000)
 A2 = (   0.0000000000,  35.0000000000,   0.0000000000)
 A3 = (   0.0000000000,   0.0000000000,  35.0000000000)


Analysis of symmetry for initial positions (statically):
=====================================================================
 Subroutine PRICEL returns:
 Original cell was already a primitive cell.
 

 Routine SETGRP: Setting up the symmetry group for a 
 simple cubic supercell.


 Subroutine GETGRP returns: Found  2 space group operations
 (whereof  2 operations were pure point group operations)
 out of a pool of 48 trial point group operations.


The static configuration has the point symmetry C_1h.


Analysis of symmetry for dynamics (positions and initial velocities):
=====================================================================
 Subroutine PRICEL returns:
 Original cell was already a primitive cell.
 

 Routine SETGRP: Setting up the symmetry group for a 
 simple cubic supercell.


 Subroutine GETGRP returns: Found  2 space group operations
 (whereof  2 operations were pure point group operations)
 out of a pool of 48 trial point group operations.


The dynamic configuration has the point symmetry C_1h.
 
 
 KPOINTS: automatic mesh                          

Automatic generation of k-mesh.
Space group operators:
 irot       det(A)        alpha          n_x          n_y          n_z        tau_x        tau_y        tau_z
    1     1.000000     0.000000     1.000000     0.000000     0.000000     0.000000     0.000000     0.000000
    2    -1.000000   180.000000     0.000000     0.000000     1.000000     0.000000     0.000000     0.000000
 
 Subroutine IBZKPT returns following result:
 ===========================================
 
 Found      1 irreducible k-points:
 
 Following reciprocal coordinates:
            Coordinates               Weight
  0.000000  0.000000  0.000000      1.000000
 
 Following cartesian coordinates:
            Coordinates               Weight
  0.000000  0.000000  0.000000      1.000000
 


--------------------------------------------------------------------------------------------------------




 Dimension of arrays:
   k-points           NKPTS =      1   k-points in BZ     NKDIM =      1   number of bands    NBANDS=     22
   number of dos      NEDOS =    301   number of ions     NIONS =     12
   non local maximal  LDIM  =      4   non local SUM 2l+1 LMDIM =      8
   total plane-waves  NPLWV = ******
   max r-space proj   IRMAX =      1   max aug-charges    IRDMAX=  20964
   dimension x,y,z NGX =   512 NGY =  512 NGZ =  512
   dimension x,y,z NGXF=  1024 NGYF= 1024 NGZF= 1024
   support grid    NGXF=  1024 NGYF= 1024 NGZF= 1024
   ions per type =               6   6
 NGX,Y,Z   is equivalent  to a cutoff of  24.32, 24.32, 24.32 a.u.
 NGXF,Y,Z  is equivalent  to a cutoff of  48.64, 48.64, 48.64 a.u.


 I would recommend the setting:
   dimension x,y,z NGX =   511 NGY =  511 NGZ =  511
 SYSTEM =  C                                       
 POSCAR =  C H                                     

 Startparameter for this run:
   NWRITE =      2    write-flag & timer
   PREC   = acc       normal or accurate (medium, high low for compatibility)
   ISTART =      0    job   : 0-new  1-cont  2-samecut
   ICHARG =      2    charge: 1-file 2-atom 10-const
   ISPIN  =      1    spin polarized calculation?
   LNONCOLLINEAR =      F non collinear calculations
   LSORBIT =      F    spin-orbit coupling
   INIWAV =      1    electr: 0-lowe 1-rand  2-diag
   LASPH  =      T    aspherical Exc in radial PAW
   METAGGA=      F    non-selfconsistent MetaGGA calc.

 Electronic Relaxation 1
   ENCUT  = 2000.0 eV 147.00 Ry   12.12 a.u. 127.63127.63127.63*2*pi/ulx,y,z
   ENINI  = 2000.0     initial cutoff
   ENAUG  = 1000.0 eV  augmentation charge cutoff
   NELM   =     60;   NELMIN=  2; NELMDL= -5     # of ELM steps 
   EDIFF  = 0.1E-06   stopping-criterion for ELM
   LREAL  =      F    real-space projection
   NLSPLINE    = F    spline interpolate recip. space projectors
   LCOMPAT=      F    compatible to vasp.4.4
   GGA_COMPAT  = T    GGA compatible to vasp.4.4-vasp.4.6
   LMAXPAW     = -100 max onsite density
   LMAXMIX     =    2 max onsite mixed and CHGCAR
   VOSKOWN=      0    Vosko Wilk Nusair interpolation
   ROPT   =    0.00000   0.00000
 Ionic relaxation
   EDIFFG = 0.1E-05   stopping-criterion for IOM
   NSW    =      0    number of steps for IOM
   NBLOCK =      1;   KBLOCK =      1    inner block; outer block 
   IBRION =     -1    ionic relax: 0-MD 1-quasi-New 2-CG
   NFREE  =      0    steps in history (QN), initial steepest desc. (CG)
   ISIF   =      2    stress and relaxation
   IWAVPR =     10    prediction:  0-non 1-charg 2-wave 3-comb
   ISYM   =      2    0-nonsym 1-usesym 2-fastsym
   LCORR  =      T    Harris-Foulkes like correction to forces

   POTIM  = 0.5000    time-step for ionic-motion
   TEIN   =    0.0    initial temperature
   TEBEG  =    0.0;   TEEND  =   0.0 temperature during run
   SMASS  =  -3.00    Nose mass-parameter (am)
   estimated Nose-frequenzy (Omega)   =  0.10E-29 period in steps =****** mass=  -0.280E-25a.u.
   SCALEE = 1.0000    scale energy and forces
   NPACO  =    256;   APACO  = 16.0  distance and # of slots for P.C.
   PSTRESS=    0.0 pullay stress

  Mass of Ions in am
   POMASS =  12.01  1.00
  Ionic Valenz
   ZVAL   =   4.00  1.00
  Atomic Wigner-Seitz radii
   RWIGS  =  -1.00 -1.00
  virtual crystal weights 
   VCA    =   1.00  1.00
   NELECT =      30.0000    total number of electrons
   NUPDOWN=      -1.0000    fix difference up-down

 DOS related values:
   EMIN   =  10.00;   EMAX   =-10.00  energy-range for DOS
   EFERMI =   0.00
   ISMEAR =     0;   SIGMA  =   0.01  broadening in eV -4-tet -1-fermi 0-gaus

 Electronic relaxation 2 (details)
   IALGO  =     38    algorithm
   LDIAG  =      T    sub-space diagonalisation (order eigenvalues)
   LSUBROT=      F    optimize rotation matrix (better conditioning)
   TURBO    =      0    0=normal 1=particle mesh
   IRESTART =      0    0=no restart 2=restart with 2 vectors
   NREBOOT  =      0    no. of reboots
   NMIN     =      0    reboot dimension
   EREF     =   0.00    reference energy to select bands
   IMIX   =      4    mixing-type and parameters
     AMIX     =   0.40;   BMIX     =  1.00
     AMIX_MAG =   1.60;   BMIX_MAG =  1.00
     AMIN     =   0.10
     WC   =   100.;   INIMIX=   1;  MIXPRE=   1;  MAXMIX= -45

 Intra band minimization:
   WEIMIN = 0.0000     energy-eigenvalue tresh-hold
   EBREAK =  0.11E-08  absolut break condition
   DEPER  =   0.30     relativ break condition  

   TIME   =   0.40     timestep for ELM

  volume/ion in A,a.u.               =    3572.92     24111.23
  Fermi-wavevector in a.u.,A,eV,Ry     =   0.145338  0.274650  0.287399  0.021123
  Thomas-Fermi vector in A             =   0.812913
 
 Write flags
   LWAVE  =      T    write WAVECAR
   LCHARG =      T    write CHGCAR
   LVTOT  =      F    write LOCPOT, total local potential
   LVHAR  =      F    write LOCPOT, Hartree potential only
   LELF   =      F    write electronic localiz. function (ELF)
   LORBIT =      0    0 simple, 1 ext, 2 COOP (PROOUT)


 Dipole corrections
   LMONO  =      F    monopole corrections only (constant potential shift)
   LDIPOL =      F    correct potential (dipole corrections)
   IDIPOL =      0    1-x, 2-y, 3-z, 4-all directions 
   EPSILON=  1.0000000 bulk dielectric constant

 Exchange correlation treatment:
   GGA     =    --    GGA type
   LEXCH   =     8    internal setting for exchange type
   VOSKOWN=      0    Vosko Wilk Nusair interpolation
   LHFCALC =     F    Hartree Fock is set to
   LHFONE  =     F    Hartree Fock one center treatment
   AEXX    =    0.0000 exact exchange contribution

 Linear response parameters
   LEPSILON=     F    determine dielectric tensor
   LRPA    =     F    only Hartree local field effects (RPA)
   LNABLA  =     F    use nabla operator in PAW spheres
   LVEL    =     F    velocity operator in full k-point grid
   LINTERFAST=   F  fast interpolation
   KINTER  =     0    interpolate to denser k-point grid
   CSHIFT  =0.1000    complex shift for real part using Kramers Kronig
   OMEGAMAX=  -1.0    maximum frequency
   DEG_THRESHOLD= 0.2000000E-02 threshold for treating states as degnerate
   RTIME   =    0.100 relaxation time in fs

 Orbital magnetization related:
   ORBITALMAG=     F  switch on orbital magnetization
   LCHIMAG   =     F  perturbation theory with respect to B field
   DQ        =  0.001000  dq finite difference perturbation B field



--------------------------------------------------------------------------------------------------------


 Static calculation
 charge density and potential will be updated during run
 non-spin polarized calculation
 Variant of blocked Davidson
 Davidson routine will perform the subspace rotation
 perform sub-space diagonalisation
    after iterative eigenvector-optimisation
 modified Broyden-mixing scheme, WC =      100.0
 initial mixing is a Kerker type mixing with AMIX =  0.4000 and BMIX =      1.0000
 Hartree-type preconditioning will be used
 using additional bands            7
 reciprocal scheme for non local part
 use partial core corrections
 calculate Harris-corrections to forces 
   (improved forces if not selfconsistent)
 use gradient corrections 
 use of overlap-Matrix (Vanderbilt PP)
 Gauss-broadening in eV      SIGMA  =   0.01


--------------------------------------------------------------------------------------------------------


  energy-cutoff  :     2000.00
  volume of cell :    42875.00
      direct lattice vectors                 reciprocal lattice vectors
    35.000000000  0.000000000  0.000000000     0.028571429  0.000000000  0.000000000
     0.000000000 35.000000000  0.000000000     0.000000000  0.028571429  0.000000000
     0.000000000  0.000000000 35.000000000     0.000000000  0.000000000  0.028571429

  length of vectors
    35.000000000 35.000000000 35.000000000     0.028571429  0.028571429  0.028571429


 
 k-points in units of 2pi/SCALE and weight: automatic mesh                          
   0.00000000  0.00000000  0.00000000       1.000
 
 k-points in reciprocal lattice and weights: automatic mesh                          
   0.00000000  0.00000000  0.00000000       1.000
 
 position of ions in fractional coordinates (direct lattice) 
   0.02228992  0.98257386  0.96549837
   0.01365551  0.02145696  0.96548870
   0.00935112  0.04091051  0.00000000
   0.01365551  0.02145696  0.03451130
   0.02228992  0.98257386  0.03450163
   0.02661852  0.96314339  0.00000000
   0.02560547  0.96749601  0.93873873
   0.01019898  0.03651908  0.93874131
   0.00261329  0.07106112  0.00000000
   0.01019898  0.03651908  0.06125869
   0.02560547  0.96749601  0.06126127
   0.03338531  0.93299389  0.00000000
 
 position of ions in cartesian coordinates  (Angst):
   0.78014717 34.39008527 33.79244311
   0.47794275  0.75099363 33.79210459
   0.32728928  1.43186787  0.00000000
   0.47794275  0.75099363  1.20789541
   0.78014717 34.39008527  1.20755689
   0.93164831 33.71001866  0.00000000
   0.89619159 33.86236041 32.85585538
   0.35696423  1.27816780 32.85594593
   0.09146503  2.48713922  0.00000000
   0.35696423  1.27816780  2.14405407
   0.89619159 33.86236041  2.14414462
   1.16848573 32.65478631  0.00000000
 


--------------------------------------------------------------------------------------------------------


 use parallel FFT for wavefunctions z direction half grid
 k-point  1 :   0.0000 0.0000 0.0000  plane waves: 4353902

 maximum and minimum number of plane-waves per node :    362837   362811

 maximum number of plane-waves:   4353902
 maximum index in each direction: 
   IXMAX=  127   IYMAX=  127   IZMAX=  127
   IXMIN= -127   IYMIN= -127   IZMIN=    0

 NGX is ok and might be reduce to 510
 NGY is ok and might be reduce to 510
 NGZ is ok and might be reduce to 510

 parallel 3D FFT for wavefunctions:
    minimum data exchange during FFTs selected (reduces bandwidth)
 parallel 3D FFT for charge:
    minimum data exchange during FFTs selected (reduces bandwidth)


 total amount of memory used by VASP on root node  9037898. kBytes
========================================================================

   base      :      30000. kBytes
   nonl-proj :     116099. kBytes
   fftplans  :    3255861. kBytes
   grid      :    5508227. kBytes
   one-center:          1. kBytes
   wavefun   :     127710. kBytes
 
     INWAV:  cpu time    0.0000: real time    0.0000
 Broyden mixing: mesh for mixing (old mesh)
   NGX =255   NGY =255   NGZ =255
  (NGX  =***   NGY  =***   NGZ  =***)
  gives a total of ****** points

 initial charge density was supplied:
 charge density of overlapping atoms calculated
 number of electron      30.0000000 magnetization 
 keeping initial charge density in first step


--------------------------------------------------------------------------------------------------------


 Maximum index for augmentation-charges         2034 (set IRDMAX)


--------------------------------------------------------------------------------------------------------


 First call to EWALD:  gamma=   0.051
 Maximum number of real-space cells 3x 3x 3
 Maximum number of reciprocal cells 3x 3x 3

 FEWALD executed in parallel
    FEWALD:  cpu time    0.0014: real time    0.0014


----------------------------------------- Iteration    1(   1)  ---------------------------------------


    POTLOK:  cpu time   42.7847: real time   42.8903
    SETDIJ:  cpu time    0.0508: real time    0.0509
     EDDAV:  cpu time   31.6007: real time   31.6798
       DOS:  cpu time    0.0000: real time    0.0000
    --------------------------------------------
      LOOP:  cpu time   74.4384: real time   74.6255

 eigenvalue-minimisations  :    44
 total energy-change (2. order) : 0.3933612E+03  (-0.5409573E+03)
 number of electron      30.0000000 magnetization 
 augmentation part       30.0000000 magnetization 

 Free energy of the ion-electron system (eV)
  ---------------------------------------------------
  alpha Z        PSCENC =         0.06769965
  Ewald energy   TEWEN  =      2286.01574665
  -Hartree energ DENC   =     -2894.77311572
  -exchange      EXHF   =         0.00000000
  -V(xc)+E(xc)   XCENC  =        55.86006250
  PAW double counting   =       690.80509214     -659.29071371
  entropy T*S    EENTRO =        -0.00000000
  eigenvalues    EBANDS =       -43.18713882
  atomic energy  EATOM  =       957.86359424
  Solvation  Ediel_sol  =         0.00000000
  ---------------------------------------------------
  free energy    TOTEN  =       393.36122694 eV

  energy without entropy =      393.36122694  energy(sigma->0) =      393.36122694


--------------------------------------------------------------------------------------------------------




----------------------------------------- Iteration    1(   2)  ---------------------------------------


     EDDAV:  cpu time   47.0269: real time   47.1443
       DOS:  cpu time    0.0000: real time    0.0000
    --------------------------------------------
      LOOP:  cpu time   47.0307: real time   47.1514

 eigenvalue-minimisations  :    76
 total energy-change (2. order) :-0.2094565E+03  (-0.2079761E+03)
 number of electron      30.0000000 magnetization 
 augmentation part       30.0000000 magnetization 

 Free energy of the ion-electron system (eV)
  ---------------------------------------------------
  alpha Z        PSCENC =         0.06769965
  Ewald energy   TEWEN  =      2286.01574665
  -Hartree energ DENC   =     -2894.77311572
  -exchange      EXHF   =         0.00000000
  -V(xc)+E(xc)   XCENC  =        55.86006250
  PAW double counting   =       690.80509214     -659.29071371
  entropy T*S    EENTRO =        -0.00000000
  eigenvalues    EBANDS =      -252.64359546
  atomic energy  EATOM  =       957.86359424
  Solvation  Ediel_sol  =         0.00000000
  ---------------------------------------------------
  free energy    TOTEN  =       183.90477030 eV

  energy without entropy =      183.90477030  energy(sigma->0) =      183.90477030


--------------------------------------------------------------------------------------------------------




----------------------------------------- Iteration    1(   3)  ---------------------------------------


     EDDAV:  cpu time   45.0773: real time   45.1898
       DOS:  cpu time    0.0000: real time    0.0000
    --------------------------------------------
      LOOP:  cpu time   45.0807: real time   45.1962

 eigenvalue-minimisations  :    72
 total energy-change (2. order) :-0.1892532E+03  (-0.1867144E+03)
 number of electron      30.0000000 magnetization 
 augmentation part       30.0000000 magnetization 

 Free energy of the ion-electron system (eV)
  ---------------------------------------------------
  alpha Z        PSCENC =         0.06769965
  Ewald energy   TEWEN  =      2286.01574665
  -Hartree energ DENC   =     -2894.77311572
  -exchange      EXHF   =         0.00000000
  -V(xc)+E(xc)   XCENC  =        55.86006250
  PAW double counting   =       690.80509214     -659.29071371
  entropy T*S    EENTRO =        -0.00000000
  eigenvalues    EBANDS =      -441.89683269
  atomic energy  EATOM  =       957.86359424
  Solvation  Ediel_sol  =         0.00000000
  ---------------------------------------------------
  free energy    TOTEN  =        -5.34846693 eV

  energy without entropy =       -5.34846693  energy(sigma->0) =       -5.34846693


--------------------------------------------------------------------------------------------------------




----------------------------------------- Iteration    1(   4)  ---------------------------------------


     EDDAV:  cpu time   37.2530: real time   37.3460
       DOS:  cpu time    0.0000: real time    0.0000
    --------------------------------------------
      LOOP:  cpu time   37.2564: real time   37.3531

 eigenvalue-minimisations  :    56
 total energy-change (2. order) :-0.7062661E+02  (-0.7052685E+02)
 number of electron      30.0000000 magnetization 
 augmentation part       30.0000000 magnetization 

 Free energy of the ion-electron system (eV)
  ---------------------------------------------------
  alpha Z        PSCENC =         0.06769965
  Ewald energy   TEWEN  =      2286.01574665
  -Hartree energ DENC   =     -2894.77311572
  -exchange      EXHF   =         0.00000000
  -V(xc)+E(xc)   XCENC  =        55.86006250
  PAW double counting   =       690.80509214     -659.29071371
  entropy T*S    EENTRO =        -0.00000000
  eigenvalues    EBANDS =      -512.52344397
  atomic energy  EATOM  =       957.86359424
  Solvation  Ediel_sol  =         0.00000000
  ---------------------------------------------------
  free energy    TOTEN  =       -75.97507821 eV

  energy without entropy =      -75.97507821  energy(sigma->0) =      -75.97507821


--------------------------------------------------------------------------------------------------------




----------------------------------------- Iteration    1(   5)  ---------------------------------------


     EDDAV:  cpu time   37.2451: real time   37.3381
       DOS:  cpu time    0.0000: real time    0.0000
    CHARGE:  cpu time   13.1107: real time   13.1432
    MIXING:  cpu time    1.1774: real time    1.1803
    --------------------------------------------
      LOOP:  cpu time   51.5369: real time   51.6685

 eigenvalue-minimisations  :    56
 total energy-change (2. order) :-0.8318034E+01  (-0.8313496E+01)
 number of electron      30.0000000 magnetization 
 augmentation part       -0.0154709 magnetization 

 Broyden mixing:
  rms(total) = 0.18026E+01    rms(broyden)= 0.18026E+01
  rms(prec ) = 0.18392E+01
  weight for this iteration     100.00

 Free energy of the ion-electron system (eV)
  ---------------------------------------------------
  alpha Z        PSCENC =         0.06769965
  Ewald energy   TEWEN  =      2286.01574665
  -Hartree energ DENC   =     -2894.77311572
  -exchange      EXHF   =         0.00000000
  -V(xc)+E(xc)   XCENC  =        55.86006250
  PAW double counting   =       690.80509214     -659.29071371
  entropy T*S    EENTRO =        -0.00000000
  eigenvalues    EBANDS =      -520.84147845
  atomic energy  EATOM  =       957.86359424
  Solvation  Ediel_sol  =         0.00000000
  ---------------------------------------------------
  free energy    TOTEN  =       -84.29311270 eV

  energy without entropy =      -84.29311270  energy(sigma->0) =      -84.29311270


--------------------------------------------------------------------------------------------------------




----------------------------------------- Iteration    1(   6)  ---------------------------------------


    POTLOK:  cpu time   42.6218: real time   42.7295
    SETDIJ:  cpu time    0.0525: real time    0.0526
     EDDAV:  cpu time   41.1598: real time   41.2625
       DOS:  cpu time    0.0000: real time    0.0000
    CHARGE:  cpu time   12.9689: real time   13.0010
    MIXING:  cpu time    1.2402: real time    1.2433
    --------------------------------------------
      LOOP:  cpu time   98.0454: real time   98.2940

 eigenvalue-minimisations  :    64
 total energy-change (2. order) : 0.6033452E+01  (-0.7476360E+00)
 number of electron      30.0000000 magnetization 
 augmentation part       -0.0201337 magnetization 

 Broyden mixing:
  rms(total) = 0.11187E+01    rms(broyden)= 0.11187E+01
  rms(prec ) = 0.11348E+01
  weight for this iteration     100.00

 eigenvalues of (default mixing * dielectric matrix)
  average eigenvalue GAMMA=   2.2298
  2.2298

 Free energy of the ion-electron system (eV)
  ---------------------------------------------------
  alpha Z        PSCENC =         0.06769965
  Ewald energy   TEWEN  =      2286.01574665
  -Hartree energ DENC   =     -2956.96750021
  -exchange      EXHF   =         0.00000000
  -V(xc)+E(xc)   XCENC  =        58.58321486
  PAW double counting   =      2942.57752658    -2911.56676849
  entropy T*S    EENTRO =        -0.00000000
  eigenvalues    EBANDS =      -454.83317381
  atomic energy  EATOM  =       957.86359424
  Solvation  Ediel_sol  =         0.00000000
  ---------------------------------------------------
  free energy    TOTEN  =       -78.25966053 eV

  energy without entropy =      -78.25966053  energy(sigma->0) =      -78.25966053


--------------------------------------------------------------------------------------------------------




----------------------------------------- Iteration    1(   7)  ---------------------------------------


    POTLOK:  cpu time   42.7407: real time   42.8503
    SETDIJ:  cpu time    0.0574: real time    0.0575
     EDDAV:  cpu time   38.2604: real time   38.3558
       DOS:  cpu time    0.0000: real time    0.0000
    CHARGE:  cpu time   12.9618: real time   12.9939
    MIXING:  cpu time    1.2660: real time    1.2691
    --------------------------------------------
      LOOP:  cpu time   95.2885: real time   95.5321

 eigenvalue-minimisations  :    58
 total energy-change (2. order) : 0.1933773E+01  (-0.1082923E+01)
 number of electron      30.0000000 magnetization 
 augmentation part       -0.0289676 magnetization 

 Broyden mixing:
  rms(total) = 0.38559E+00    rms(broyden)= 0.38559E+00
  rms(prec ) = 0.39126E+00
  weight for this iteration     100.00

 eigenvalues of (default mixing * dielectric matrix)
  average eigenvalue GAMMA=   2.2001
  2.2001  2.2001

 Free energy of the ion-electron system (eV)
  ---------------------------------------------------
  alpha Z        PSCENC =         0.06769965
  Ewald energy   TEWEN  =      2286.01574665
  -Hartree energ DENC   =     -3034.63298967
  -exchange      EXHF   =         0.00000000
  -V(xc)+E(xc)   XCENC  =        62.41416809
  PAW double counting   =      9734.69471981    -9703.98808525
  entropy T*S    EENTRO =        -0.00000000
  eigenvalues    EBANDS =      -378.76074071
  atomic energy  EATOM  =       957.86359424
  Solvation  Ediel_sol  =         0.00000000
  ---------------------------------------------------
  free energy    TOTEN  =       -76.32588720 eV

  energy without entropy =      -76.32588720  energy(sigma->0) =      -76.32588720


--------------------------------------------------------------------------------------------------------




----------------------------------------- Iteration    1(   8)  ---------------------------------------


    POTLOK:  cpu time   42.8250: real time   42.9324
    SETDIJ:  cpu time    0.0513: real time    0.0515
     EDDAV:  cpu time   37.2370: real time   37.3299
       DOS:  cpu time    0.0000: real time    0.0000
    CHARGE:  cpu time   12.9536: real time   12.9857
    MIXING:  cpu time    1.3068: real time    1.3101
    --------------------------------------------
      LOOP:  cpu time   94.3760: real time   94.6151

 eigenvalue-minimisations  :    56
 total energy-change (2. order) : 0.1371399E+00  (-0.1996359E+00)
 number of electron      30.0000000 magnetization 
 augmentation part       -0.0259413 magnetization 

 Broyden mixing:
  rms(total) = 0.11983E+00    rms(broyden)= 0.11983E+00
  rms(prec ) = 0.12663E+00
  weight for this iteration     100.00

 eigenvalues of (default mixing * dielectric matrix)
  average eigenvalue GAMMA=   1.7225
  2.4308  1.3684  1.3684

 Free energy of the ion-electron system (eV)
  ---------------------------------------------------
  alpha Z        PSCENC =         0.06769965
  Ewald energy   TEWEN  =      2286.01574665
  -Hartree energ DENC   =     -3024.93438539
  -exchange      EXHF   =         0.00000000
  -V(xc)+E(xc)   XCENC  =        62.14709523
  PAW double counting   =     12080.94568857   -12049.92154492
  entropy T*S    EENTRO =        -0.00000000
  eigenvalues    EBANDS =      -388.37264132
  atomic energy  EATOM  =       957.86359424
  Solvation  Ediel_sol  =         0.00000000
  ---------------------------------------------------
  free energy    TOTEN  =       -76.18874728 eV

  energy without entropy =      -76.18874728  energy(sigma->0) =      -76.18874728


--------------------------------------------------------------------------------------------------------




----------------------------------------- Iteration    1(   9)  ---------------------------------------


    POTLOK:  cpu time   42.8451: real time   42.9517
    SETDIJ:  cpu time    0.0506: real time    0.0507
     EDDAV:  cpu time   41.1558: real time   41.2584
       DOS:  cpu time    0.0000: real time    0.0000
    CHARGE:  cpu time   12.9731: real time   13.0053
    MIXING:  cpu time    1.3715: real time    1.3749
    --------------------------------------------
      LOOP:  cpu time   98.3984: real time   98.6676

 eigenvalue-minimisations  :    64
 total energy-change (2. order) : 0.7305941E-01  (-0.3529811E-01)
 number of electron      30.0000000 magnetization 
 augmentation part       -0.0282949 magnetization 

 Broyden mixing:
  rms(total) = 0.38243E-01    rms(broyden)= 0.38243E-01
  rms(prec ) = 0.43211E-01
  weight for this iteration     100.00

 eigenvalues of (default mixing * dielectric matrix)
  average eigenvalue GAMMA=   1.6419
  0.9192  2.1493  1.7494  1.7494

 Free energy of the ion-electron system (eV)
  ---------------------------------------------------
  alpha Z        PSCENC =         0.06769965
  Ewald energy   TEWEN  =      2286.01574665
  -Hartree energ DENC   =     -3036.04046261
  -exchange      EXHF   =         0.00000000
  -V(xc)+E(xc)   XCENC  =        62.53303000
  PAW double counting   =     12059.67481351   -12028.74074896
  entropy T*S    EENTRO =        -0.00000000
  eigenvalues    EBANDS =      -377.48936034
  atomic energy  EATOM  =       957.86359424
  Solvation  Ediel_sol  =         0.00000000
  ---------------------------------------------------
  free energy    TOTEN  =       -76.11568787 eV

  energy without entropy =      -76.11568787  energy(sigma->0) =      -76.11568787


--------------------------------------------------------------------------------------------------------




----------------------------------------- Iteration    1(  10)  ---------------------------------------


    POTLOK:  cpu time   42.8934: real time   42.9995
    SETDIJ:  cpu time    0.0487: real time    0.0488
     EDDAV:  cpu time   39.2652: real time   39.3632
       DOS:  cpu time    0.0000: real time    0.0000
    CHARGE:  cpu time   12.9710: real time   13.0032
    MIXING:  cpu time    1.4038: real time    1.4073
    --------------------------------------------
      LOOP:  cpu time   96.5844: real time   96.8267

 eigenvalue-minimisations  :    60
 total energy-change (2. order) : 0.6009110E-02  (-0.1132625E-02)
 number of electron      30.0000000 magnetization 
 augmentation part       -0.0283542 magnetization 

 Broyden mixing:
  rms(total) = 0.24264E-01    rms(broyden)= 0.24264E-01
  rms(prec ) = 0.28749E-01
  weight for this iteration     100.00

 eigenvalues of (default mixing * dielectric matrix)
  average eigenvalue GAMMA=   1.7189
  2.4420  2.4420  1.5039  1.1032  1.1032

 Free energy of the ion-electron system (eV)
  ---------------------------------------------------
  alpha Z        PSCENC =         0.06769965
  Ewald energy   TEWEN  =      2286.01574665
  -Hartree energ DENC   =     -3039.14047899
  -exchange      EXHF   =         0.00000000
  -V(xc)+E(xc)   XCENC  =        62.56411287
  PAW double counting   =     11796.15285927   -11765.20941327
  entropy T*S    EENTRO =        -0.00000000
  eigenvalues    EBANDS =      -374.42379917
  atomic energy  EATOM  =       957.86359424
  Solvation  Ediel_sol  =         0.00000000
  ---------------------------------------------------
  free energy    TOTEN  =       -76.10967876 eV

  energy without entropy =      -76.10967876  energy(sigma->0) =      -76.10967876


--------------------------------------------------------------------------------------------------------




----------------------------------------- Iteration    1(  11)  ---------------------------------------


    POTLOK:  cpu time   42.9491: real time   43.0599
    SETDIJ:  cpu time    0.0486: real time    0.0487
     EDDAV:  cpu time   35.3053: real time   35.3933
       DOS:  cpu time    0.0000: real time    0.0000
    CHARGE:  cpu time   12.9849: real time   13.0171
    MIXING:  cpu time    1.4571: real time    1.4607
    --------------------------------------------
      LOOP:  cpu time   92.7471: real time   92.9851

 eigenvalue-minimisations  :    52
 total energy-change (2. order) : 0.6610471E-02  (-0.4060232E-03)
 number of electron      30.0000000 magnetization 
 augmentation part       -0.0283737 magnetization 

 Broyden mixing:
  rms(total) = 0.10473E-01    rms(broyden)= 0.10473E-01
  rms(prec ) = 0.14532E-01
  weight for this iteration     100.00

 eigenvalues of (default mixing * dielectric matrix)
  average eigenvalue GAMMA=   1.7350
  2.7313  2.7313  1.5305  1.5305  0.9433  0.9433

 Free energy of the ion-electron system (eV)
  ---------------------------------------------------
  alpha Z        PSCENC =         0.06769965
  Ewald energy   TEWEN  =      2286.01574665
  -Hartree energ DENC   =     -3043.25815622
  -exchange      EXHF   =         0.00000000
  -V(xc)+E(xc)   XCENC  =        62.64990991
  PAW double counting   =     11797.17500161   -11766.21263471
  entropy T*S    EENTRO =        -0.00000000
  eigenvalues    EBANDS =      -370.40422940
  atomic energy  EATOM  =       957.86359424
  Solvation  Ediel_sol  =         0.00000000
  ---------------------------------------------------
  free energy    TOTEN  =       -76.10306829 eV

  energy without entropy =      -76.10306829  energy(sigma->0) =      -76.10306829


--------------------------------------------------------------------------------------------------------




----------------------------------------- Iteration    1(  12)  ---------------------------------------


    POTLOK:  cpu time   42.9895: real time   43.1014
    SETDIJ:  cpu time    0.0523: real time    0.0524
     EDDAV:  cpu time   45.0719: real time   45.1843
       DOS:  cpu time    0.0000: real time    0.0000
    CHARGE:  cpu time   12.9905: real time   13.0227
    MIXING:  cpu time    1.5310: real time    1.5348
    --------------------------------------------
      LOOP:  cpu time  102.6374: real time  102.9009

 eigenvalue-minimisations  :    72
 total energy-change (2. order) :-0.6233102E-03  (-0.1327708E-03)
 number of electron      30.0000000 magnetization 
 augmentation part       -0.0284041 magnetization 

 Broyden mixing:
  rms(total) = 0.87352E-02    rms(broyden)= 0.87352E-02
  rms(prec ) = 0.11367E-01
  weight for this iteration     100.00

 eigenvalues of (default mixing * dielectric matrix)
  average eigenvalue GAMMA=   1.9122
  3.8362  2.5325  2.0666  1.8299  0.9954  1.0623  1.0623

 Free energy of the ion-electron system (eV)
  ---------------------------------------------------
  alpha Z        PSCENC =         0.06769965
  Ewald energy   TEWEN  =      2286.01574665
  -Hartree energ DENC   =     -3045.82698598
  -exchange      EXHF   =         0.00000000
  -V(xc)+E(xc)   XCENC  =        62.69241483
  PAW double counting   =     11744.59574547   -11713.63126826
  entropy T*S    EENTRO =        -0.00000000
  eigenvalues    EBANDS =      -367.88063820
  atomic energy  EATOM  =       957.86359424
  Solvation  Ediel_sol  =         0.00000000
  ---------------------------------------------------
  free energy    TOTEN  =       -76.10369160 eV

  energy without entropy =      -76.10369160  energy(sigma->0) =      -76.10369160


--------------------------------------------------------------------------------------------------------




----------------------------------------- Iteration    1(  13)  ---------------------------------------


    POTLOK:  cpu time   42.9957: real time   43.1059
    SETDIJ:  cpu time    0.0514: real time    0.0515
     EDDAV:  cpu time   41.1482: real time   41.2509
       DOS:  cpu time    0.0000: real time    0.0000
    CHARGE:  cpu time   13.0101: real time   13.0424
    MIXING:  cpu time    1.5947: real time    1.5986
    --------------------------------------------
      LOOP:  cpu time   98.8024: real time   99.0543

 eigenvalue-minimisations  :    64
 total energy-change (2. order) :-0.6622475E-02  (-0.3944159E-03)
 number of electron      30.0000000 magnetization 
 augmentation part       -0.0285332 magnetization 

 Broyden mixing:
  rms(total) = 0.37507E-02    rms(broyden)= 0.37507E-02
  rms(prec ) = 0.48844E-02
  weight for this iteration     100.00

 eigenvalues of (default mixing * dielectric matrix)
  average eigenvalue GAMMA=   2.0658
  5.3802  2.5291  2.5291  1.5903  1.5903  0.9968  0.9968  0.9138

 Free energy of the ion-electron system (eV)
  ---------------------------------------------------
  alpha Z        PSCENC =         0.06769965
  Ewald energy   TEWEN  =      2286.01574665
  -Hartree energ DENC   =     -3049.69371134
  -exchange      EXHF   =         0.00000000
  -V(xc)+E(xc)   XCENC  =        62.74682136
  PAW double counting   =     11686.96902153   -11656.00687036
  entropy T*S    EENTRO =        -0.00000000
  eigenvalues    EBANDS =      -364.07261580
  atomic energy  EATOM  =       957.86359424
  Solvation  Ediel_sol  =         0.00000000
  ---------------------------------------------------
  free energy    TOTEN  =       -76.11031407 eV

  energy without entropy =      -76.11031407  energy(sigma->0) =      -76.11031407


--------------------------------------------------------------------------------------------------------




----------------------------------------- Iteration    1(  14)  ---------------------------------------


    POTLOK:  cpu time   43.0023: real time   43.1129
    SETDIJ:  cpu time    0.0593: real time    0.0595
     EDDAV:  cpu time   41.1896: real time   41.2923
       DOS:  cpu time    0.0000: real time    0.0000
    CHARGE:  cpu time   13.0039: real time   13.0396
    MIXING:  cpu time    1.6432: real time    1.6473
    --------------------------------------------
      LOOP:  cpu time   98.9006: real time   99.1571

 eigenvalue-minimisations  :    64
 total energy-change (2. order) :-0.5733452E-02  (-0.1176849E-03)
 number of electron      30.0000000 magnetization 
 augmentation part       -0.0286133 magnetization 

 Broyden mixing:
  rms(total) = 0.45157E-02    rms(broyden)= 0.45157E-02
  rms(prec ) = 0.50079E-02
  weight for this iteration     100.00

 eigenvalues of (default mixing * dielectric matrix)
  average eigenvalue GAMMA=   2.0953
  6.0402  2.5834  2.5834  1.7624  1.7624  1.0969  1.0969  0.9662  0.9662

 Free energy of the ion-electron system (eV)
  ---------------------------------------------------
  alpha Z        PSCENC =         0.06769965
  Ewald energy   TEWEN  =      2286.01574665
  -Hartree energ DENC   =     -3050.99259823
  -exchange      EXHF   =         0.00000000
  -V(xc)+E(xc)   XCENC  =        62.75915288
  PAW double counting   =     11688.64148770   -11657.68119634
  entropy T*S    EENTRO =        -0.00000000
  eigenvalues    EBANDS =      -362.78993407
  atomic energy  EATOM  =       957.86359424
  Solvation  Ediel_sol  =         0.00000000
  ---------------------------------------------------
  free energy    TOTEN  =       -76.11604753 eV

  energy without entropy =      -76.11604753  energy(sigma->0) =      -76.11604753


--------------------------------------------------------------------------------------------------------




----------------------------------------- Iteration    1(  15)  ---------------------------------------


    POTLOK:  cpu time   43.0201: real time   43.1277
    SETDIJ:  cpu time    0.0492: real time    0.0494
     EDDAV:  cpu time   35.2919: real time   35.3800
       DOS:  cpu time    0.0000: real time    0.0000
    CHARGE:  cpu time   13.0006: real time   13.0329
    MIXING:  cpu time    1.7262: real time    1.7305
    --------------------------------------------
      LOOP:  cpu time   93.0904: real time   93.3257

 eigenvalue-minimisations  :    52
 total energy-change (2. order) :-0.4582900E-02  (-0.4744917E-04)
 number of electron      30.0000000 magnetization 
 augmentation part       -0.0285944 magnetization 

 Broyden mixing:
  rms(total) = 0.16894E-02    rms(broyden)= 0.16894E-02
  rms(prec ) = 0.21167E-02
  weight for this iteration     100.00

 eigenvalues of (default mixing * dielectric matrix)
  average eigenvalue GAMMA=   2.1445
  6.3264  3.1867  2.3333  2.3333  1.9644  1.1232  1.1232  1.0619  0.9962  0.9962

 Free energy of the ion-electron system (eV)
  ---------------------------------------------------
  alpha Z        PSCENC =         0.06769965
  Ewald energy   TEWEN  =      2286.01574665
  -Hartree energ DENC   =     -3051.05796564
  -exchange      EXHF   =         0.00000000
  -V(xc)+E(xc)   XCENC  =        62.74628786
  PAW double counting   =     11710.20190919   -11679.23973118
  entropy T*S    EENTRO =        -0.00000000
  eigenvalues    EBANDS =      -362.71817120
  atomic energy  EATOM  =       957.86359424
  Solvation  Ediel_sol  =         0.00000000
  ---------------------------------------------------
  free energy    TOTEN  =       -76.12063043 eV

  energy without entropy =      -76.12063043  energy(sigma->0) =      -76.12063043


--------------------------------------------------------------------------------------------------------




----------------------------------------- Iteration    1(  16)  ---------------------------------------


    POTLOK:  cpu time   43.0298: real time   43.1360
    SETDIJ:  cpu time    0.0526: real time    0.0527
     EDDAV:  cpu time   41.1419: real time   41.2445
       DOS:  cpu time    0.0000: real time    0.0000
    CHARGE:  cpu time   13.0099: real time   13.0422
    MIXING:  cpu time    1.7971: real time    1.8016
    --------------------------------------------
      LOOP:  cpu time   99.0335: real time   99.2820

 eigenvalue-minimisations  :    64
 total energy-change (2. order) :-0.3569383E-02  (-0.3732628E-04)
 number of electron      30.0000000 magnetization 
 augmentation part       -0.0285880 magnetization 

 Broyden mixing:
  rms(total) = 0.11882E-02    rms(broyden)= 0.11882E-02
  rms(prec ) = 0.13656E-02
  weight for this iteration     100.00

 eigenvalues of (default mixing * dielectric matrix)
  average eigenvalue GAMMA=   2.3307
  7.4357  4.5221  2.4695  2.4695  1.7288  1.7288  1.1673  1.1673  0.9467  1.0010
  1.0010

 Free energy of the ion-electron system (eV)
  ---------------------------------------------------
  alpha Z        PSCENC =         0.06769965
  Ewald energy   TEWEN  =      2286.01574665
  -Hartree energ DENC   =     -3051.12664324
  -exchange      EXHF   =         0.00000000
  -V(xc)+E(xc)   XCENC  =        62.73772248
  PAW double counting   =     11718.20516064   -11687.24233144
  entropy T*S    EENTRO =        -0.00000000
  eigenvalues    EBANDS =      -362.64514879
  atomic energy  EATOM  =       957.86359424
  Solvation  Ediel_sol  =         0.00000000
  ---------------------------------------------------
  free energy    TOTEN  =       -76.12419981 eV

  energy without entropy =      -76.12419981  energy(sigma->0) =      -76.12419981


--------------------------------------------------------------------------------------------------------




----------------------------------------- Iteration    1(  17)  ---------------------------------------


    POTLOK:  cpu time   42.9911: real time   43.1000
    SETDIJ:  cpu time    0.0489: real time    0.0491
     EDDAV:  cpu time   35.3129: real time   35.4010
       DOS:  cpu time    0.0000: real time    0.0000
    CHARGE:  cpu time   13.0276: real time   13.0598
    MIXING:  cpu time    1.8848: real time    1.8895
    --------------------------------------------
      LOOP:  cpu time   93.2676: real time   93.5045

 eigenvalue-minimisations  :    52
 total energy-change (2. order) :-0.1842990E-02  (-0.1667709E-04)
 number of electron      30.0000000 magnetization 
 augmentation part       -0.0285935 magnetization 

 Broyden mixing:
  rms(total) = 0.97216E-03    rms(broyden)= 0.97216E-03
  rms(prec ) = 0.10432E-02
  weight for this iteration     100.00

 eigenvalues of (default mixing * dielectric matrix)
  average eigenvalue GAMMA=   2.4192
  7.9186  4.9641  2.9832  2.2179  2.1790  2.1790  1.2538  1.2538  1.0584  1.0584
  0.9823  0.9823

 Free energy of the ion-electron system (eV)
  ---------------------------------------------------
  alpha Z        PSCENC =         0.06769965
  Ewald energy   TEWEN  =      2286.01574665
  -Hartree energ DENC   =     -3051.19565841
  -exchange      EXHF   =         0.00000000
  -V(xc)+E(xc)   XCENC  =        62.73362269
  PAW double counting   =     11713.28204282   -11682.31919928
  entropy T*S    EENTRO =        -0.00000000
  eigenvalues    EBANDS =      -362.57389115
  atomic energy  EATOM  =       957.86359424
  Solvation  Ediel_sol  =         0.00000000
  ---------------------------------------------------
  free energy    TOTEN  =       -76.12604280 eV

  energy without entropy =      -76.12604280  energy(sigma->0) =      -76.12604280


--------------------------------------------------------------------------------------------------------




----------------------------------------- Iteration    1(  18)  ---------------------------------------


    POTLOK:  cpu time   42.9930: real time   43.1041
    SETDIJ:  cpu time    0.0502: real time    0.0503
     EDDAV:  cpu time   45.1103: real time   45.2226
       DOS:  cpu time    0.0000: real time    0.0000
    CHARGE:  cpu time   13.0076: real time   13.0428
    MIXING:  cpu time    1.9845: real time    1.9894
    --------------------------------------------
      LOOP:  cpu time  103.1478: real time  103.4143

 eigenvalue-minimisations  :    72
 total energy-change (2. order) :-0.7982898E-03  (-0.4809420E-05)
 number of electron      30.0000000 magnetization 
 augmentation part       -0.0286058 magnetization 

 Broyden mixing:
  rms(total) = 0.37227E-03    rms(broyden)= 0.37227E-03
  rms(prec ) = 0.40152E-03
  weight for this iteration     100.00

 eigenvalues of (default mixing * dielectric matrix)
  average eigenvalue GAMMA=   2.3816
  8.2532  5.2156  2.8512  2.4089  2.2327  2.2327  1.3910  1.3910  1.0819  1.0819
  0.9876  0.9162  0.9162

 Free energy of the ion-electron system (eV)
  ---------------------------------------------------
  alpha Z        PSCENC =         0.06769965
  Ewald energy   TEWEN  =      2286.01574665
  -Hartree energ DENC   =     -3051.32118394
  -exchange      EXHF   =         0.00000000
  -V(xc)+E(xc)   XCENC  =        62.73579925
  PAW double counting   =     11705.70942974   -11674.74692055
  entropy T*S    EENTRO =        -0.00000000
  eigenvalues    EBANDS =      -362.45100612
  atomic energy  EATOM  =       957.86359424
  Solvation  Ediel_sol  =         0.00000000
  ---------------------------------------------------
  free energy    TOTEN  =       -76.12684109 eV

  energy without entropy =      -76.12684109  energy(sigma->0) =      -76.12684109


--------------------------------------------------------------------------------------------------------




----------------------------------------- Iteration    1(  19)  ---------------------------------------


    POTLOK:  cpu time   42.9606: real time   43.0714
    SETDIJ:  cpu time    0.0521: real time    0.0522
     EDDAV:  cpu time   45.1036: real time   45.2161
       DOS:  cpu time    0.0000: real time    0.0000
    CHARGE:  cpu time   13.0229: real time   13.0559
    MIXING:  cpu time    2.0548: real time    2.0599
    --------------------------------------------
      LOOP:  cpu time  103.1962: real time  103.4609

 eigenvalue-minimisations  :    72
 total energy-change (2. order) :-0.1611291E-03  (-0.1711875E-06)
 number of electron      30.0000000 magnetization 
 augmentation part       -0.0286042 magnetization 

 Broyden mixing:
  rms(total) = 0.24180E-03    rms(broyden)= 0.24180E-03
  rms(prec ) = 0.26507E-03
  weight for this iteration     100.00

 eigenvalues of (default mixing * dielectric matrix)
  average eigenvalue GAMMA=   2.4620
  8.5945  5.7449  3.6029  2.4696  2.4696  2.0011  2.0011  1.2761  1.2761  1.0571
  1.0571  0.9718  0.9718  0.9737

 Free energy of the ion-electron system (eV)
  ---------------------------------------------------
  alpha Z        PSCENC =         0.06769965
  Ewald energy   TEWEN  =      2286.01574665
  -Hartree energ DENC   =     -3051.32180983
  -exchange      EXHF   =         0.00000000
  -V(xc)+E(xc)   XCENC  =        62.73508908
  PAW double counting   =     11706.50394454   -11675.54144357
  entropy T*S    EENTRO =        -0.00000000
  eigenvalues    EBANDS =      -362.44982298
  atomic energy  EATOM  =       957.86359424
  Solvation  Ediel_sol  =         0.00000000
  ---------------------------------------------------
  free energy    TOTEN  =       -76.12700222 eV

  energy without entropy =      -76.12700222  energy(sigma->0) =      -76.12700222


--------------------------------------------------------------------------------------------------------




----------------------------------------- Iteration    1(  20)  ---------------------------------------


    POTLOK:  cpu time   42.8340: real time   42.9439
    SETDIJ:  cpu time    0.0517: real time    0.0519
     EDDAV:  cpu time   42.1385: real time   42.2437
       DOS:  cpu time    0.0000: real time    0.0000
    CHARGE:  cpu time   13.0397: real time   13.0721
    MIXING:  cpu time    2.1523: real time    2.1576
    --------------------------------------------
      LOOP:  cpu time  100.2185: real time  100.4747

 eigenvalue-minimisations  :    66
 total energy-change (2. order) :-0.1879585E-03  (-0.2807197E-06)
 number of electron      30.0000000 magnetization 
 augmentation part       -0.0286048 magnetization 

 Broyden mixing:
  rms(total) = 0.14034E-03    rms(broyden)= 0.14034E-03
  rms(prec ) = 0.15141E-03
  weight for this iteration     100.00

 eigenvalues of (default mixing * dielectric matrix)
  average eigenvalue GAMMA=   2.4409
  8.8105  5.9258  3.8503  2.4373  2.4373  2.1449  2.1449  1.4229  1.4229  1.0791
  1.0791  0.9839  0.9839  0.9452  0.9452

 Free energy of the ion-electron system (eV)
  ---------------------------------------------------
  alpha Z        PSCENC =         0.06769965
  Ewald energy   TEWEN  =      2286.01574665
  -Hartree energ DENC   =     -3051.33518299
  -exchange      EXHF   =         0.00000000
  -V(xc)+E(xc)   XCENC  =        62.73495596
  PAW double counting   =     11707.29819093   -11676.33570296
  entropy T*S    EENTRO =        -0.00000000
  eigenvalues    EBANDS =      -362.43649166
  atomic energy  EATOM  =       957.86359424
  Solvation  Ediel_sol  =         0.00000000
  ---------------------------------------------------
  free energy    TOTEN  =       -76.12719018 eV

  energy without entropy =      -76.12719018  energy(sigma->0) =      -76.12719018


--------------------------------------------------------------------------------------------------------




----------------------------------------- Iteration    1(  21)  ---------------------------------------


    POTLOK:  cpu time   42.7835: real time   42.8891
    SETDIJ:  cpu time    0.0515: real time    0.0516
     EDDAV:  cpu time   41.1968: real time   41.2996
       DOS:  cpu time    0.0000: real time    0.0000
    CHARGE:  cpu time   13.0506: real time   13.0862
    MIXING:  cpu time    2.2476: real time    2.2532
    --------------------------------------------
      LOOP:  cpu time   99.3323: real time   99.5850

 eigenvalue-minimisations  :    64
 total energy-change (2. order) :-0.5146321E-04  (-0.2215365E-07)
 number of electron      30.0000000 magnetization 
 augmentation part       -0.0286039 magnetization 

 Broyden mixing:
  rms(total) = 0.60996E-04    rms(broyden)= 0.60996E-04
  rms(prec ) = 0.69409E-04
  weight for this iteration     100.00

 eigenvalues of (default mixing * dielectric matrix)
  average eigenvalue GAMMA=   2.5165
  9.1037  6.4349  4.4436  2.9237  2.3220  2.3220  2.0475  2.0475  1.3728  1.0688
  1.0688  1.1133  1.1133  0.9400  0.9400  1.0021

 Free energy of the ion-electron system (eV)
  ---------------------------------------------------
  alpha Z        PSCENC =         0.06769965
  Ewald energy   TEWEN  =      2286.01574665
  -Hartree energ DENC   =     -3051.33331196
  -exchange      EXHF   =         0.00000000
  -V(xc)+E(xc)   XCENC  =        62.73467777
  PAW double counting   =     11707.64480900   -11676.68228532
  entropy T*S    EENTRO =        -0.00000000
  eigenvalues    EBANDS =      -362.43817167
  atomic energy  EATOM  =       957.86359424
  Solvation  Ediel_sol  =         0.00000000
  ---------------------------------------------------
  free energy    TOTEN  =       -76.12724164 eV

  energy without entropy =      -76.12724164  energy(sigma->0) =      -76.12724164


--------------------------------------------------------------------------------------------------------




----------------------------------------- Iteration    1(  22)  ---------------------------------------


    POTLOK:  cpu time   42.7376: real time   42.8473
    SETDIJ:  cpu time    0.0485: real time    0.0486
     EDDAV:  cpu time   31.4306: real time   31.5091
       DOS:  cpu time    0.0000: real time    0.0000
    CHARGE:  cpu time   13.0494: real time   13.0817
    MIXING:  cpu time    2.3527: real time    2.3586
    --------------------------------------------
      LOOP:  cpu time   89.6211: real time   89.8501

 eigenvalue-minimisations  :    44
 total energy-change (2. order) :-0.4027962E-04  (-0.2276249E-07)
 number of electron      30.0000000 magnetization 
 augmentation part       -0.0286035 magnetization 

 Broyden mixing:
  rms(total) = 0.64895E-04    rms(broyden)= 0.64895E-04
  rms(prec ) = 0.67155E-04
  weight for this iteration     100.00

 eigenvalues of (default mixing * dielectric matrix)
  average eigenvalue GAMMA=   2.5107
  9.1767  6.6503  4.6874  3.0933  2.3605  2.3605  2.1898  2.1898  1.4064  1.4064
  1.1038  1.1038  1.0312  1.0312  0.9497  0.9497  0.9914

 Free energy of the ion-electron system (eV)
  ---------------------------------------------------
  alpha Z        PSCENC =         0.06769965
  Ewald energy   TEWEN  =      2286.01574665
  -Hartree energ DENC   =     -3051.33381605
  -exchange      EXHF   =         0.00000000
  -V(xc)+E(xc)   XCENC  =        62.73453597
  PAW double counting   =     11708.31098864   -11677.34842548
  entropy T*S    EENTRO =        -0.00000000
  eigenvalues    EBANDS =      -362.43760553
  atomic energy  EATOM  =       957.86359424
  Solvation  Ediel_sol  =         0.00000000
  ---------------------------------------------------
  free energy    TOTEN  =       -76.12728192 eV

  energy without entropy =      -76.12728192  energy(sigma->0) =      -76.12728192


--------------------------------------------------------------------------------------------------------




----------------------------------------- Iteration    1(  23)  ---------------------------------------


    POTLOK:  cpu time   42.7517: real time   42.8583
    SETDIJ:  cpu time    0.0521: real time    0.0523
     EDDAV:  cpu time   37.2627: real time   37.3557
       DOS:  cpu time    0.0000: real time    0.0000
    CHARGE:  cpu time   13.0729: real time   13.1053
    MIXING:  cpu time    2.4666: real time    2.4727
    --------------------------------------------
      LOOP:  cpu time   95.6083: real time   95.8496

 eigenvalue-minimisations  :    56
 total energy-change (2. order) :-0.1275720E-04  (-0.3419197E-08)
 number of electron      30.0000000 magnetization 
 augmentation part       -0.0286036 magnetization 

 Broyden mixing:
  rms(total) = 0.16462E-04    rms(broyden)= 0.16462E-04
  rms(prec ) = 0.19007E-04
  weight for this iteration     100.00

 eigenvalues of (default mixing * dielectric matrix)
  average eigenvalue GAMMA=   2.5488
  9.2658  6.9403  5.0884  3.6263  2.5182  2.5182  2.1865  2.1865  1.8727  1.4231
  1.1358  1.1358  1.0642  1.0642  0.9777  0.9777  0.9488  0.9488

 Free energy of the ion-electron system (eV)
  ---------------------------------------------------
  alpha Z        PSCENC =         0.06769965
  Ewald energy   TEWEN  =      2286.01574665
  -Hartree energ DENC   =     -3051.33677400
  -exchange      EXHF   =         0.00000000
  -V(xc)+E(xc)   XCENC  =        62.73458559
  PAW double counting   =     11707.74467869   -11676.78213260
  entropy T*S    EENTRO =        -0.00000000
  eigenvalues    EBANDS =      -362.43469289
  atomic energy  EATOM  =       957.86359424
  Solvation  Ediel_sol  =         0.00000000
  ---------------------------------------------------
  free energy    TOTEN  =       -76.12729468 eV

  energy without entropy =      -76.12729468  energy(sigma->0) =      -76.12729468


--------------------------------------------------------------------------------------------------------




----------------------------------------- Iteration    1(  24)  ---------------------------------------


    POTLOK:  cpu time   42.7993: real time   42.9083
    SETDIJ:  cpu time    0.0496: real time    0.0498
     EDDAV:  cpu time   31.4463: real time   31.5248
       DOS:  cpu time    0.0000: real time    0.0000
    CHARGE:  cpu time   13.0639: real time   13.0963
    MIXING:  cpu time    2.5778: real time    2.5842
    --------------------------------------------
      LOOP:  cpu time   89.9392: real time   90.1691

 eigenvalue-minimisations  :    44
 total energy-change (2. order) :-0.7635779E-05  (-0.2645333E-08)
 number of electron      30.0000000 magnetization 
 augmentation part       -0.0286036 magnetization 

 Broyden mixing:
  rms(total) = 0.10957E-04    rms(broyden)= 0.10957E-04
  rms(prec ) = 0.11887E-04
  weight for this iteration     100.00

 eigenvalues of (default mixing * dielectric matrix)
  average eigenvalue GAMMA=   2.5657
  9.4007  7.1196  5.4031  3.8489  2.7358  2.4831  2.4831  2.1577  2.1577  1.3561
  1.3561  1.1221  1.1221  1.0425  1.0425  1.0463  0.9420  0.9420  0.9871

 Free energy of the ion-electron system (eV)
  ---------------------------------------------------
  alpha Z        PSCENC =         0.06769965
  Ewald energy   TEWEN  =      2286.01574665
  -Hartree energ DENC   =     -3051.33780935
  -exchange      EXHF   =         0.00000000
  -V(xc)+E(xc)   XCENC  =        62.73460043
  PAW double counting   =     11707.72215781   -11676.75961670
  entropy T*S    EENTRO =        -0.00000000
  eigenvalues    EBANDS =      -362.43367504
  atomic energy  EATOM  =       957.86359424
  Solvation  Ediel_sol  =         0.00000000
  ---------------------------------------------------
  free energy    TOTEN  =       -76.12730231 eV

  energy without entropy =      -76.12730231  energy(sigma->0) =      -76.12730231


--------------------------------------------------------------------------------------------------------




----------------------------------------- Iteration    1(  25)  ---------------------------------------


    POTLOK:  cpu time   42.8657: real time   42.9741
    SETDIJ:  cpu time    0.0541: real time    0.0542
     EDDAV:  cpu time   37.2787: real time   37.3718
       DOS:  cpu time    0.0000: real time    0.0000
    CHARGE:  cpu time   13.0795: real time   13.1120
    MIXING:  cpu time    2.6898: real time    2.6965
    --------------------------------------------
      LOOP:  cpu time   95.9701: real time   96.2131

 eigenvalue-minimisations  :    56
 total energy-change (2. order) :-0.2841391E-05  (-0.9976091E-09)
 number of electron      30.0000000 magnetization 
 augmentation part       -0.0286037 magnetization 

 Broyden mixing:
  rms(total) = 0.75387E-05    rms(broyden)= 0.75387E-05
  rms(prec ) = 0.80142E-05
  weight for this iteration     100.00

 eigenvalues of (default mixing * dielectric matrix)
  average eigenvalue GAMMA=   2.5755
  9.4077  7.4210  5.6735  4.2197  3.0094  2.4039  2.4039  2.1919  2.1919  1.8543
  1.3910  1.1415  1.1415  1.0672  1.0672  1.0273  1.0273  0.9933  0.9381  0.9381

 Free energy of the ion-electron system (eV)
  ---------------------------------------------------
  alpha Z        PSCENC =         0.06769965
  Ewald energy   TEWEN  =      2286.01574665
  -Hartree energ DENC   =     -3051.33838141
  -exchange      EXHF   =         0.00000000
  -V(xc)+E(xc)   XCENC  =        62.73460692
  PAW double counting   =     11707.78370179   -11676.82116114
  entropy T*S    EENTRO =        -0.00000000
  eigenvalues    EBANDS =      -362.43311185
  atomic energy  EATOM  =       957.86359424
  Solvation  Ediel_sol  =         0.00000000
  ---------------------------------------------------
  free energy    TOTEN  =       -76.12730515 eV

  energy without entropy =      -76.12730515  energy(sigma->0) =      -76.12730515


--------------------------------------------------------------------------------------------------------




----------------------------------------- Iteration    1(  26)  ---------------------------------------


    POTLOK:  cpu time   42.8527: real time   42.9651
    SETDIJ:  cpu time    0.0516: real time    0.0517
     EDDAV:  cpu time   31.4260: real time   31.5045
       DOS:  cpu time    0.0000: real time    0.0000
    CHARGE:  cpu time   13.0869: real time   13.1194
    MIXING:  cpu time    2.7979: real time    2.8049
    --------------------------------------------
      LOOP:  cpu time   90.2174: real time   90.4511

 eigenvalue-minimisations  :    44
 total energy-change (2. order) :-0.1161845E-05  (-0.7734560E-09)
 number of electron      30.0000000 magnetization 
 augmentation part       -0.0286037 magnetization 

 Broyden mixing:
  rms(total) = 0.61153E-05    rms(broyden)= 0.61153E-05
  rms(prec ) = 0.63293E-05
  weight for this iteration     100.00

 eigenvalues of (default mixing * dielectric matrix)
  average eigenvalue GAMMA=   2.5796
  9.4850  7.5057  5.8590  4.3932  3.0640  2.6574  2.6574  2.3918  2.1374  2.1374
  1.3729  1.2473  1.1252  1.1252  1.0533  1.0533  1.1117  0.9457  0.9457  0.9765
  0.9262

 Free energy of the ion-electron system (eV)
  ---------------------------------------------------
  alpha Z        PSCENC =         0.06769965
  Ewald energy   TEWEN  =      2286.01574665
  -Hartree energ DENC   =     -3051.33842409
  -exchange      EXHF   =         0.00000000
  -V(xc)+E(xc)   XCENC  =        62.73460506
  PAW double counting   =     11707.75400229   -11676.79146162
  entropy T*S    EENTRO =        -0.00000000
  eigenvalues    EBANDS =      -362.43306849
  atomic energy  EATOM  =       957.86359424
  Solvation  Ediel_sol  =         0.00000000
  ---------------------------------------------------
  free energy    TOTEN  =       -76.12730632 eV

  energy without entropy =      -76.12730632  energy(sigma->0) =      -76.12730632


--------------------------------------------------------------------------------------------------------




----------------------------------------- Iteration    1(  27)  ---------------------------------------


    POTLOK:  cpu time   42.8304: real time   42.9363
    SETDIJ:  cpu time    0.0550: real time    0.0551
     EDDAV:  cpu time   37.2573: real time   37.3502
       DOS:  cpu time    0.0000: real time    0.0000
    CHARGE:  cpu time   13.0880: real time   13.1205
    MIXING:  cpu time    2.9183: real time    2.9256
    --------------------------------------------
      LOOP:  cpu time   96.1512: real time   96.3930

 eigenvalue-minimisations  :    56
 total energy-change (2. order) :-0.6040536E-06  (-0.6799770E-09)
 number of electron      30.0000000 magnetization 
 augmentation part       -0.0286036 magnetization 

 Broyden mixing:
  rms(total) = 0.55365E-05    rms(broyden)= 0.55365E-05
  rms(prec ) = 0.56197E-05
  weight for this iteration     100.00

 eigenvalues of (default mixing * dielectric matrix)
  average eigenvalue GAMMA=   2.5690
  9.4857  7.7528  6.0240  4.6881  3.4228  2.5854  2.5706  2.1522  2.1522  1.9404
  1.9404  1.2992  1.2992  1.1211  1.1211  1.0496  1.0496  1.0207  0.9895  0.9895
  0.9317  0.9317

 Free energy of the ion-electron system (eV)
  ---------------------------------------------------
  alpha Z        PSCENC =         0.06769965
  Ewald energy   TEWEN  =      2286.01574665
  -Hartree energ DENC   =     -3051.33816759
  -exchange      EXHF   =         0.00000000
  -V(xc)+E(xc)   XCENC  =        62.73459463
  PAW double counting   =     11707.83027029   -11676.86772575
  entropy T*S    EENTRO =        -0.00000000
  eigenvalues    EBANDS =      -362.43331904
  atomic energy  EATOM  =       957.86359424
  Solvation  Ediel_sol  =         0.00000000
  ---------------------------------------------------
  free energy    TOTEN  =       -76.12730692 eV

  energy without entropy =      -76.12730692  energy(sigma->0) =      -76.12730692


--------------------------------------------------------------------------------------------------------




----------------------------------------- Iteration    1(  28)  ---------------------------------------


    POTLOK:  cpu time   42.7554: real time   42.8690
    SETDIJ:  cpu time    0.0556: real time    0.0558
     EDDAV:  cpu time   23.6104: real time   23.6693
       DOS:  cpu time    0.0000: real time    0.0000
    CHARGE:  cpu time   13.1015: real time   13.1350
    MIXING:  cpu time    3.0746: real time    3.0822
    --------------------------------------------
      LOOP:  cpu time   82.5998: real time   82.8169

 eigenvalue-minimisations  :    28
 total energy-change (2. order) :-0.2114139E-06  (-0.5415615E-09)
 number of electron      30.0000000 magnetization 
 augmentation part       -0.0286036 magnetization 

 Broyden mixing:
  rms(total) = 0.24614E-05    rms(broyden)= 0.24614E-05
  rms(prec ) = 0.25170E-05
  weight for this iteration     100.00

 eigenvalues of (default mixing * dielectric matrix)
  average eigenvalue GAMMA=   2.5895
  9.5464  7.9424  6.2620  5.0264  3.7590  2.8360  2.3134  2.3134  2.2900  2.2900
  1.9870  1.3941  1.2031  1.2031  1.1030  1.1030  1.0616  0.9465  0.9465  0.9945
  0.9945  1.0219  1.0219

 Free energy of the ion-electron system (eV)
  ---------------------------------------------------
  alpha Z        PSCENC =         0.06769965
  Ewald energy   TEWEN  =      2286.01574665
  -Hartree energ DENC   =     -3051.33826420
  -exchange      EXHF   =         0.00000000
  -V(xc)+E(xc)   XCENC  =        62.73459579
  PAW double counting   =     11707.81707421   -11676.85453090
  entropy T*S    EENTRO =        -0.00000000
  eigenvalues    EBANDS =      -362.43322257
  atomic energy  EATOM  =       957.86359424
  Solvation  Ediel_sol  =         0.00000000
  ---------------------------------------------------
  free energy    TOTEN  =       -76.12730713 eV

  energy without entropy =      -76.12730713  energy(sigma->0) =      -76.12730713


--------------------------------------------------------------------------------------------------------




----------------------------------------- Iteration    1(  29)  ---------------------------------------


    POTLOK:  cpu time   42.7512: real time   42.8568
    SETDIJ:  cpu time    0.0487: real time    0.0488
     EDDAV:  cpu time   31.4381: real time   31.5166
       DOS:  cpu time    0.0000: real time    0.0000
    CHARGE:  cpu time   13.1090: real time   13.1415
    MIXING:  cpu time    3.1860: real time    3.1940
    --------------------------------------------
      LOOP:  cpu time   90.5352: real time   90.7634

 eigenvalue-minimisations  :    44
 total energy-change (2. order) :-0.1732787E-06  (-0.3276650E-09)
 number of electron      30.0000000 magnetization 
 augmentation part       -0.0286036 magnetization 

 Broyden mixing:
  rms(total) = 0.60474E-06    rms(broyden)= 0.60474E-06
  rms(prec ) = 0.66584E-06
  weight for this iteration     100.00

 eigenvalues of (default mixing * dielectric matrix)
  average eigenvalue GAMMA=   2.5476
  9.5474  8.0041  6.2761  5.1318  3.7360  2.8286  2.6641  2.3309  2.2118  2.2118
  1.9426  1.4399  1.3011  1.3011  1.1229  1.1229  1.1045  1.0485  1.0485  0.9144
  0.9589  0.9589  0.9683  0.9683

 Free energy of the ion-electron system (eV)
  ---------------------------------------------------
  alpha Z        PSCENC =         0.06769965
  Ewald energy   TEWEN  =      2286.01574665
  -Hartree energ DENC   =     -3051.33827743
  -exchange      EXHF   =         0.00000000
  -V(xc)+E(xc)   XCENC  =        62.73459544
  PAW double counting   =     11707.79071047   -11676.82816790
  entropy T*S    EENTRO =        -0.00000000
  eigenvalues    EBANDS =      -362.43320841
  atomic energy  EATOM  =       957.86359424
  Solvation  Ediel_sol  =         0.00000000
  ---------------------------------------------------
  free energy    TOTEN  =       -76.12730730 eV

  energy without entropy =      -76.12730730  energy(sigma->0) =      -76.12730730


--------------------------------------------------------------------------------------------------------




----------------------------------------- Iteration    1(  30)  ---------------------------------------


    POTLOK:  cpu time   42.8764: real time   42.9841
    SETDIJ:  cpu time    0.0511: real time    0.0512
     EDDAV:  cpu time   29.4661: real time   29.5397
       DOS:  cpu time    0.0000: real time    0.0000
    --------------------------------------------
      LOOP:  cpu time   72.3955: real time   72.5804

 eigenvalue-minimisations  :    40
 total energy-change (2. order) :-0.5814218E-07  (-0.2025757E-09)
 number of electron      30.0000000 magnetization 
 augmentation part       -0.0286036 magnetization 

 Free energy of the ion-electron system (eV)
  ---------------------------------------------------
  alpha Z        PSCENC =         0.06769965
  Ewald energy   TEWEN  =      2286.01574665
  -Hartree energ DENC   =     -3051.33826292
  -exchange      EXHF   =         0.00000000
  -V(xc)+E(xc)   XCENC  =        62.73459526
  PAW double counting   =     11707.79868378   -11676.83614091
  entropy T*S    EENTRO =        -0.00000000
  eigenvalues    EBANDS =      -362.43322312
  atomic energy  EATOM  =       957.86359424
  Solvation  Ediel_sol  =         0.00000000
  ---------------------------------------------------
  free energy    TOTEN  =       -76.12730736 eV

  energy without entropy =      -76.12730736  energy(sigma->0) =      -76.12730736


--------------------------------------------------------------------------------------------------------




 average (electrostatic) potential at core
  the test charge radii are     0.5770  0.4325
  (the norm of the test charge is              1.0000)
       1 -86.0845       2 -86.0850       3 -86.0859       4 -86.0850       5 -86.0845
       6 -86.0849       7 -45.0218       8 -45.0229       9 -45.0211      10 -45.0229
      11 -45.0218      12 -45.0190
 
 
 
 E-fermi :  -6.2292     XC(G=0):  -0.0478     alpha+bet : -0.0186


 k-point     1 :       0.0000    0.0000    0.0000
  band No.  band energies     occupation 
      1     -21.2106      2.00000
      2     -18.4282      2.00000
      3     -18.4242      2.00000
      4     -14.8193      2.00000
      5     -14.8179      2.00000
      6     -12.9019      2.00000
      7     -11.1988      2.00000
      8     -10.8712      2.00000
      9     -10.2154      2.00000
     10     -10.2109      2.00000
     11      -9.0586      2.00000
     12      -8.2108      2.00000
     13      -8.2100      2.00000
     14      -6.3209      2.00000
     15      -6.3179      2.00000
     16      -1.1995      0.00000
     17      -1.1977      0.00000
     18      -0.4983      0.00000
     19      -0.0296      0.00000
     20      -0.0295      0.00000
     21       0.0146      0.00000
     22       0.1128      0.00000


--------------------------------------------------------------------------------------------------------


 soft charge-density along one line, spin component           1
         0         1         2         3         4         5         6         7         8         9
 total charge-density along one line
 
 pseudopotential strength for first ion, spin component:           1
 12.720  21.405  -0.000  -0.000   0.000  -0.000  -0.000   0.000
 21.405  36.019  -0.000  -0.000   0.000  -0.000  -0.001   0.000
 -0.000  -0.000  -3.175  -0.000  -0.001  -5.692  -0.000  -0.002
 -0.000  -0.000  -0.000  -3.175   0.000  -0.000  -5.691   0.000
  0.000   0.000  -0.001   0.000  -3.180  -0.002   0.000  -5.701
 -0.000  -0.000  -5.692  -0.000  -0.002 -10.180  -0.001  -0.004
 -0.000  -0.001  -0.000  -5.691   0.000  -0.001 -10.180   0.000
  0.000   0.000  -0.002   0.000  -5.701  -0.004   0.000 -10.197
 total augmentation occupancy for first ion, spin component:           1
  7.547  -2.580   0.354   0.625  -0.079  -0.161  -0.284   0.036
 -2.580   0.910  -0.170  -0.300   0.038   0.075   0.133  -0.017
  0.354  -0.170   7.219  -0.341  -0.914  -2.434   0.146   0.359
  0.625  -0.300  -0.341   7.020   0.079   0.146  -2.342  -0.034
 -0.079   0.038  -0.914   0.079   3.306   0.359  -0.034  -0.897
 -0.161   0.075  -2.434   0.146   0.359   0.833  -0.062  -0.136
 -0.284   0.133   0.146  -2.342  -0.034  -0.062   0.790   0.014
  0.036  -0.017   0.359  -0.034  -0.897  -0.136   0.014   0.249


------------------------ aborting loop because EDIFF is reached ----------------------------------------


    CHARGE:  cpu time   13.0732: real time   13.1056
    FORLOC:  cpu time    5.2085: real time    5.2213
    FORNL :  cpu time    4.0064: real time    4.0164
    STRESS:  cpu time   15.6141: real time   15.6527
    FORCOR:  cpu time   43.1427: real time   43.2507
    FORHAR:  cpu time   14.5793: real time   14.6153
    MIXING:  cpu time    3.3210: real time    3.3292
    OFIELD:  cpu time    0.0000: real time    0.0000

  FORCE on cell =-STRESS in cart. coord.  units (eV):
  Direction    XX          YY          ZZ          XY          YZ          ZX
  --------------------------------------------------------------------------------------
  Alpha Z     0.06770     0.06770     0.06770
  Ewald    -109.63080  1164.54175  1231.10393  -297.21269     0.00000     0.00000
  Hartree   514.31082  1249.29267  1287.73483  -170.97078    -0.00000    -0.00000
  E(xc)    -117.85187  -115.39872  -115.26974    -0.57492     0.00000    -0.00000
  Local    -812.54239 -2776.44447 -2879.08761   457.56602    -0.00000    -0.00000
  n-local     0.91270     3.48893     3.62824    -0.60162    -0.00000     0.00000
  augment     0.54195     0.61151     0.61499    -0.01629     0.00000     0.00000
  Kinetic   524.26338   475.34952   472.73000    11.47221     0.00000    -0.00000
  Fock        0.00000     0.00000     0.00000     0.00000     0.00000     0.00000
  -------------------------------------------------------------------------------------
  Total       0.07150     1.50889     1.52234    -0.33806     0.00000     0.00000
  in kB       0.00267     0.05639     0.05689    -0.01263     0.00000     0.00000
  external pressure =        0.04 kB  Pullay stress =        0.00 kB


 VOLUME and BASIS-vectors are now :
 -----------------------------------------------------------------------------
  energy-cutoff  :     2000.00
  volume of cell :    42875.00
      direct lattice vectors                 reciprocal lattice vectors
    35.000000000  0.000000000  0.000000000     0.028571429  0.000000000  0.000000000
     0.000000000 35.000000000  0.000000000     0.000000000  0.028571429  0.000000000
     0.000000000  0.000000000 35.000000000     0.000000000  0.000000000  0.028571429

  length of vectors
    35.000000000 35.000000000 35.000000000     0.028571429  0.028571429  0.028571429


 FORCES acting on ions
    electron-ion (+dipol)            ewald-force                    non-local-force                 convergence-correction
 -----------------------------------------------------------------------------------------------
   -.197E+02 0.884E+02 0.157E+03   0.196E+02 -.881E+02 -.156E+03   0.417E-01 -.165E+00 -.298E+00   0.269E-06 -.149E-05 -.359E-05
   0.195E+02 -.885E+02 0.157E+03   -.194E+02 0.882E+02 -.156E+03   -.399E-01 0.185E+00 -.271E+00   -.614E-06 0.247E-05 -.261E-05
   0.390E+02 -.177E+03 -.297E-06   -.389E+02 0.176E+03 0.239E-07   -.594E-01 0.321E+00 0.000E+00   -.757E-06 0.341E-05 -.248E-13
   0.195E+02 -.885E+02 -.157E+03   -.194E+02 0.882E+02 0.156E+03   -.399E-01 0.185E+00 0.271E+00   -.614E-06 0.247E-05 0.261E-05
   -.197E+02 0.884E+02 -.157E+03   0.196E+02 -.881E+02 0.156E+03   0.417E-01 -.165E+00 0.298E+00   0.269E-06 -.149E-05 0.359E-05
   -.393E+02 0.177E+03 0.541E-06   0.391E+02 -.176E+03 -.461E-08   0.872E-01 -.343E+00 0.000E+00   0.779E-06 -.340E-05 -.167E-13
   -.872E+01 0.396E+02 0.702E+02   0.939E+01 -.426E+02 -.756E+02   -.630E+00 0.287E+01 0.509E+01   0.103E-06 -.518E-06 -.991E-06
   0.901E+01 -.395E+02 0.702E+02   -.970E+01 0.426E+02 -.756E+02   0.660E+00 -.287E+01 0.509E+01   -.136E-06 0.540E-06 -.836E-06
   0.176E+02 -.791E+02 -.115E-09   -.190E+02 0.852E+02 0.176E-08   0.128E+01 -.574E+01 0.000E+00   -.185E-06 0.805E-06 -.378E-14
   0.901E+01 -.395E+02 -.702E+02   -.970E+01 0.426E+02 0.756E+02   0.660E+00 -.287E+01 -.509E+01   -.136E-06 0.540E-06 0.836E-06
   -.872E+01 0.396E+02 -.702E+02   0.939E+01 -.426E+02 0.756E+02   -.630E+00 0.287E+01 -.509E+01   0.103E-06 -.518E-06 0.991E-06
   -.177E+02 0.791E+02 0.999E-10   0.191E+02 -.851E+02 -.320E-09   -.129E+01 0.573E+01 0.000E+00   0.265E-06 -.115E-05 -.125E-14
 -----------------------------------------------------------------------------------------------
   -.844E-01 -.161E-01 -.528E-07   0.000E+00 0.426E-13 0.164E-13   0.844E-01 0.161E-01 -.888E-15   -.654E-06 0.167E-05 -.655E-13
 
 
 POSITION                                       TOTAL-FORCE (eV/Angst)
 -----------------------------------------------------------------------------------
      0.78015     34.39009     33.79244        -0.020642      0.093686      0.160496
      0.47794      0.75099     33.79210         0.009021     -0.078088      0.191011
      0.32729      1.43187      0.00000         0.040227     -0.203320      0.000000
      0.47794      0.75099      1.20790         0.009021     -0.078088     -0.191011
      0.78015     34.39009      1.20756        -0.020642      0.093686     -0.160496
      0.93165     33.71002      0.00000        -0.027743      0.169821      0.000000
      0.89619     33.86236     32.85586         0.036372     -0.158890     -0.274533
      0.35696      1.27817     32.85595        -0.028309      0.157825     -0.279706
      0.09147      2.48714      0.00000        -0.067870      0.310693      0.000000
      0.35696      1.27817      2.14405        -0.028309      0.157825      0.279706
      0.89619     33.86236      2.14414         0.036372     -0.158890      0.274533
      1.16849     32.65479      0.00000         0.062503     -0.306260      0.000000
 -----------------------------------------------------------------------------------
    total drift:                                0.000016     -0.000009     -0.000000


--------------------------------------------------------------------------------------------------------



  FREE ENERGIE OF THE ION-ELECTRON SYSTEM (eV)
  ---------------------------------------------------
  free  energy   TOTEN  =       -76.12730736 eV

  energy  without entropy=      -76.12730736  energy(sigma->0) =      -76.12730736
 


--------------------------------------------------------------------------------------------------------


    POTLOK:  cpu time   43.2813: real time   43.3929


--------------------------------------------------------------------------------------------------------


 writing wavefunctions
     LOOP+:  cpu time 3454.0820: real time 3462.9311
    4ORBIT:  cpu time    0.0000: real time    0.0000

 total amount of memory used by VASP on root node  9037898. kBytes
========================================================================

   base      :      30000. kBytes
   nonl-proj :     116099. kBytes
   fftplans  :    3255861. kBytes
   grid      :    5508227. kBytes
   one-center:          1. kBytes
   wavefun   :     127710. kBytes
 
  
  
 General timing and accounting informations for this job:
 ========================================================
  
                  Total CPU time used (sec):     4448.886
                            User time (sec):     4064.163
                          System time (sec):      384.723
                         Elapsed time (sec):     4460.520
  
                   Maximum memory used (kb):    14256176.
                   Average memory used (kb):           0.
  
                          Minor page faults:     11433937
                          Major page faults:            6
                 Voluntary context switches:          748
 
 PROFILE, used timers:      14
 =============================
 
 index                 routine                    time                            calls level
----------------------------------------------------------------------------------------------
    1    total_time                         4460.522299                                1   1
    2      w1_copy                               9.656596                           7138   2
    3      fftwav_mpi                          479.071633                           2784   2
    4      fftext_mpi                            2.466869                             22   2
    5      overl                                 0.001830                           4085   2
    6      orth1                                12.950719                            986   2
    7      lincom                                0.842215                             31   2
    8      eccp                                 17.253184                            660   2
    9      hamiltmu                            551.844584                            328   2
   10        vhamil                              104.159762                         2372   3
   11        overl1                                0.001757                         2372   3
   12        kinhamil                            269.241978                         2372   3
   13          fftext_mpi                          265.964115                       2372   4
   14      pdssyex_zheevx                        0.042397                             30   2
 
 Flat profile
 ============
 
             routine name                   CPU           calls
 ---------------------------------------------------------------
 total_time                           3386.392271           1
 fftwav_mpi                            479.071633        2784
 fftext_mpi                            268.430984        2394
 hamiltmu                              178.441087         328
 vhamil                                104.159762        2372
 eccp                                   17.253184         660
 orth1                                  12.950719         986
 w1_copy                                 9.656596        7138
 kinhamil                                3.277863        2372
 lincom                                  0.842215          31
 pdssyex_zheevx                          0.042397          30
 overl                                   0.001830        4085
 overl1                                  0.001757        2372
 ---------------------------------------------------------------
  summed up times    4460.52229881287     
 
Profiling took   0.013259  0.007616  0.003290  0.003282 seconds
Profiling took   0.011143 seconds
