
 Working directory              : /scratch/yourdkhs/302812/molpro.SyXVVWRz40/
 Global scratch directory       : /scratch/yourdkhs/302812/molpro.SyXVVWRz40/
 Wavefunction directory         : /scratch/yourdkhs/302812/
 Main file repository           : /scratch/yourdkhs/302812/molpro.SyXVVWRz40/

 id        : karlovklimes

 Nodes                      nprocs
 nc-17.cc.karlov.mff.cuni.cz    8
 GA implementation: MPI file
 GA implementation (serial work in mppx): MPI file

 Using customized tuning parameters: mindgm=1; mindgv=20; mindgc=4; mindgr=1; noblas=0; minvec=7
 default implementation of scratch files=sf  


 Variables initialized (1015), CPU time= 0.01 sec
 ***,CH3C6H4CN+CF3CN+BF3
 memory,500,m
 gdirect
 gthresh,energy=1.d-8,twoint=1.d-19,oneint=1.d-19,zero=1.d-15,orbital=1.d-8,grid=1.d-8
 symmetry,nosym
 geomtyp=xyz
                                                                                 ! Geometry
 geometry={
 C1        0.000000000    0.056986000     0.000000000
 O1        0.000000000    1.227206000     0.000000000
 O2        0.000000000    5.127206000     0.000000000
 C2        0.000000000    6.297426000     0.000000000
 O3        0.000000000    7.467646000     0.000000000
 O4        0.000000000    -1.113234000     0.000000000
 }
 
 
 
 basis=aug-cc-pv5z
 
 
 
                                                                                 ! Dimer Calculation
 {rks,pbe,accu=1.d-8;orbital,2101.2}
 eab_PBE=energy
 
 
                                                                                 !monomer A
 dummy,3,4,5;                                                                    ! NOW MONOMER B IS DUMMY
 {rks,pbe,accu=1.d-8;orbital,2201.2}
 ea_PBE=energy
                                                                                 !monomer B
 dummy,1,2,6;                                                                    !NOW MONOMER A IS DUMMY
 {rks,pbe,accu=1.d-8;orbital,2301.2}
 eb_PBE=energy
 
 E_AB_int=eab_PBE-ea_PBE-eb_PBE
 
 
 text,results in hartree
 show,E_AB_int
 
 Commands initialized (834), CPU time= 0.02 sec, 672 directives.
 Default parameters read. Elapsed time= 0.29 sec

 Checking input...
 Passed
1


                                         ***  PROGRAM SYSTEM MOLPRO  ***
                                       Copyright, TTI GmbH Stuttgart, 2015
                                    Version 2022.2 linked Thu May  5 22:39:45 2022


 **********************************************************************************************************************************
 LABEL *   CH3C6H4CN+CF3CN+BF3                                                           
  64 bit mpp version                                                                     DATE: 20-Oct-23          TIME: 17:24:31  
 **********************************************************************************************************************************

 SHA1:             518bf5c5e315925380b88506c70af759aa1d1d96
 **********************************************************************************************************************************

 Memory per process:       500 MW
 Total memory per node:   4000 MW

 GA preallocation disabled
 GA check disabled

 Variable memory set to 500.0 MW


 THRESHOLDS:

 ZERO    =  1.00D-15  ONEINT  =  1.00D-19  TWOINT  =  1.00D-19  PREFAC  =  1.00D-14  XXXXXX  =  1.00D-09  EORDER  =  1.00D-04
 ENERGY  =  1.00D-08  ETEST   =  0.00D+00  EDENS   =  0.00D+00  THRDEDEF=  1.00D-06  GRADIENT=  1.00D-05  STEP    =  1.00D-03
 ORBITAL =  1.00D-08  CIVEC   =  1.00D-05  COEFF   =  1.00D-04  PRINTCI =  5.00D-02  PUNCHCI =  9.90D+01  OPTGRAD =  3.00D-04
 OPTENERG=  1.00D-06  OPTSTEP =  3.00D-04  THRGRAD =  1.00D-10  COMPRESS=  1.00D-11  VARMIN  =  1.00D-07  VARMAX  =  1.00D-03
 THRDOUB =  0.00D+00  THRDIV  =  1.00D-05  THRRED  =  1.00D-07  THRPSP  =  1.00D+00  THRDC   =  1.00D-10  THRCS   =  1.00D-10
 THRNRM  =  1.00D-08  THREQ   =  0.00D+00  THRDE   =  1.00D+00  THRREF  =  1.00D-05  SPARFAC =  1.00D+00  THRDLP  =  1.00D-07
 THRDIA  =  1.00D-10  THRDLS  =  1.00D-07  THRGPS  =  0.00D+00  THRKEX  =  0.00D+00  THRDIS  =  2.00D-01  THRVAR  =  1.00D-10
 THRLOC  =  1.00D-06  THRGAP  =  1.00D-06  THRLOCT = -1.00D+00  THRGAPT = -1.00D+00  THRORB  =  1.00D-06  THRMLTP =  0.00D+00
 THRCPQCI=  1.00D-10  KEXTA   =  0.00D+00  THRCOARS=  0.00D+00  SYMTOL  =  1.00D-06  GRADTOL =  1.00D-06  THROVL  =  1.00D-08
 THRORTH =  1.00D-08  THRDLOVL= -1.00D+00  GRID    =  1.00D-08  GRIDMAX =  1.00D-03  DTMAX   =  0.00D+00  THROCCDE=  1.00D-01
 THROCCDE=  1.00D-01  THRPRINT=  2.50D-01

 SETTING GEOMTYP        =    XYZ
 ZSYMEL=NOSYM

 SETTING BASIS          =    AUG-CC-PV5Z


 Recomputing integrals since basis changed


 Using spherical harmonics

 Library entry C      S aug-cc-pV5Z          selected for orbital group  1
 Library entry C      P aug-cc-pV5Z          selected for orbital group  1
 Library entry C      D aug-cc-pV5Z          selected for orbital group  1
 Library entry C      F aug-cc-pV5Z          selected for orbital group  1
 Library entry C      G aug-cc-pV5Z          selected for orbital group  1
 Library entry C      H aug-cc-pV5Z          selected for orbital group  1
 Library entry O      S aug-cc-pV5Z          selected for orbital group  2
 Library entry O      P aug-cc-pV5Z          selected for orbital group  2
 Library entry O      D aug-cc-pV5Z          selected for orbital group  2
 Library entry O      F aug-cc-pV5Z          selected for orbital group  2
 Library entry O      G aug-cc-pV5Z          selected for orbital group  2
 Library entry O      H aug-cc-pV5Z          selected for orbital group  2


 PROGRAM * SEWARD (Integral evaluation for generally contracted gaussian basis sets)     Author: Roland Lindh, 1990

 Geometry written to block  1 of record 700


 Point group  C1  



 ATOMIC COORDINATES

 NR  ATOM    CHARGE       X              Y              Z

   1  C1      6.00    0.000000000    0.107687933    0.000000000
   2  O1      8.00    0.000000000    2.319083238    0.000000000
   3  O2      8.00    0.000000000    9.689015125    0.000000000
   4  C2      6.00    0.000000000   11.900410430    0.000000000
   5  O3      8.00    0.000000000   14.111805736    0.000000000
   6  O4      8.00    0.000000000   -2.103707373    0.000000000

 Bond lengths in Bohr (Angstrom)

 1-2  2.211395306  1-6  2.211395306  3-4  2.211395306  4-5  2.211395306
     ( 1.170220000)     ( 1.170220000)     ( 1.170220000)     ( 1.170220000)

 Bond angles

  2-1-6  180.00000000   3-4-5  180.00000000

 NUCLEAR CHARGE:                   44
 NUMBER OF PRIMITIVE AOS:        1194
 NUMBER OF SYMMETRY AOS:          864
 NUMBER OF CONTRACTIONS:          762   (  762A   )
 NUMBER OF INNER CORE ORBITALS:     0   (    0A   )
 NUMBER OF OUTER CORE ORBITALS:     6   (    6A   )
 NUMBER OF VALENCE ORBITALS:       24   (   24A   )


 NUCLEAR REPULSION ENERGY  159.17628412

 EXTRA SYMMETRY OF AOS IN SYMMETRY 1:   1 1 1 1 1 1 1 2 1 3   2 1 3 2 1 3 2 1 3 2   1 3 2 1 3 1 2 4 1 3   1 2 4 1 3 1 2 4 1 3
                                        1 2 4 1 3 1 2 4 1 3   2 1 3 2 4 1 3 2 1 3   2 4 1 3 2 1 3 2 4 1   3 2 1 3 2 4 1 3 1 2
                                        4 1 3 1 2 4 3 1 2 4   1 3 1 2 4 3 1 2 4 1   3 1 2 4 3 2 1 3 2 4   1 3 1 3 2 4 2 1 3 2
                                        4 1 3 1 3 2 4 1 1 1   1 1 1 1 2 1 3 2 1 3   2 1 3 2 1 3 2 1 3 2   1 3 1 2 4 1 3 1 2 4
                                        1 3 1 2 4 1 3 1 2 4   1 3 1 2 4 1 3 2 1 3   2 4 1 3 2 1 3 2 4 1   3 2 1 3 2 4 1 3 2 1
                                        3 2 4 1 3 1 2 4 1 3   1 2 4 3 1 2 4 1 3 1   2 4 3 1 2 4 1 3 1 2   4 3 2 1 3 2 4 1 3 1
                                        3 2 4 2 1 3 2 4 1 3   1 3 2 4 1 1 1 1 1 1   1 2 1 3 2 1 3 2 1 3   2 1 3 2 1 3 2 1 3 1
                                        2 4 1 3 1 2 4 1 3 1   2 4 1 3 1 2 4 1 3 1   2 4 1 3 2 1 3 2 4 1   3 2 1 3 2 4 1 3 2 1
                                        3 2 4 1 3 2 1 3 2 4   1 3 1 2 4 1 3 1 2 4   3 1 2 4 1 3 1 2 4 3   1 2 4 1 3 1 2 4 3 2
                                        1 3 2 4 1 3 1 3 2 4   2 1 3 2 4 1 3 1 3 2   4 1 1 1 1 1 1 1 2 1   3 2 1 3 2 1 3 2 1 3
                                        2 1 3 2 1 3 1 2 4 1   3 1 2 4 1 3 1 2 4 1   3 1 2 4 1 3 1 2 4 1   3 2 1 3 2 4 1 3 2 1
                                        3 2 4 1 3 2 1 3 2 4   1 3 2 1 3 2 4 1 3 1   2 4 1 3 1 2 4 3 1 2   4 1 3 1 2 4 3 1 2 4
                                        1 3 1 2 4 3 2 1 3 2   4 1 3 1 3 2 4 2 1 3   2 4 1 3 1 3 2 4 1 1   1 1 1 1 1 2 1 3 2 1
                                        3 2 1 3 2 1 3 2 1 3   2 1 3 1 2 4 1 3 1 2   4 1 3 1 2 4 1 3 1 2   4 1 3 1 2 4 1 3 2 1
                                        3 2 4 1 3 2 1 3 2 4   1 3 2 1 3 2 4 1 3 2   1 3 2 4 1 3 1 2 4 1   3 1 2 4 3 1 2 4 1 3
                                        1 2 4 3 1 2 4 1 3 1   2 4 3 2 1 3 2 4 1 3   1 3 2 4 2 1 3 2 4 1   3 1 3 2 4 1 1 1 1 1
                                        1 1 2 1 3 2 1 3 2 1   3 2 1 3 2 1 3 2 1 3   1 2 4 1 3 1 2 4 1 3   1 2 4 1 3 1 2 4 1 3
                                        1 2 4 1 3 2 1 3 2 4   1 3 2 1 3 2 4 1 3 2   1 3 2 4 1 3 2 1 3 2   4 1 3 1 2 4 1 3 1 2
                                        4 3 1 2 4 1 3 1 2 4   3 1 2 4 1 3 1 2 4 3   2 1 3 2 4 1 3 1 3 2   4 2 1 3 2 4 1 3 1 3
                                        2 4

 Eigenvalues of metric

         1 0.312E-05 0.422E-05 0.840E-05 0.974E-05 0.110E-04 0.255E-04 0.256E-04 0.352E-04


 OPERATOR DM      FOR CENTER  0  COORDINATES:    0.000000    0.000000    0.000000


 **********************************************************************************************************************************
 DATASETS  * FILE   NREC   LENGTH (MB)   RECORD NAMES
              1      18       48.88       500      610      700      900      950      970     1000      129      960     1100   
                                          VAR    BASINP    GEOM    SYMINP    ZMAT    AOBASIS   BASIS     P2S    ABASIS      S 
                                         1400     1410     1200     1210     1080     1600     1650     1700   
                                           T        V       H0       H01     AOSYM     SMH    MOLCAS    OPER   

 PROGRAMS   *        TOTAL       INT
 CPU TIMES  *         1.01      0.72
 REAL TIME  *         2.31 SEC
 DISK USED  *        49.49 MB (local),      395.94 MB (total)
 GA USED    *         0.00 MB       (max)       0.00 MB       (current)
 **********************************************************************************************************************************


 Program * Restricted Kohn-Sham

 Density functional group PBE=PBEX+PBEC
 Functional: PBEX(Automatically generated (new) PBEX)                          Gradient terms: 1
 Functional: PBEC(Automatically generated (new) PBEC)                          Gradient terms: 1

 Functional: PBEX                   Factor:  1.0000
 Functional: PBEC                   Factor:  1.0000


 Setting radial_scaling=1d0
 Radial grid threshold:                     5.0D-09
 Global grid threshold:                     1.0D-08
 Angular grid threshold:                    1.0D-09
 Fac_Neighbour:                                 4.0
 Size adjustment in partitioning scheme:   TREUTLER
 Skip grid points with weights lower than:  1.0D-20
 Grid orientation:                           T

 Generated new metagrid on record  1800.2 with target accuracy 1.0D-08 and 83808 points in CPU time    0.2
 Computed new grid on record 1800.1 in CPU time    0.3

 DFT orbital screening threshold (tolorb):   1.0D-09


 Integral-direct calculation

 Orbital guess generated from atomic densities. Full valence occupancy:   30

 Initial occupancy:  22

 NELEC=   44   SYM=1   MS2= 0   THRE=1.0D-09   THRD=1.0D-04   THRG=1.0D-04  HFMA2=F  DIIS_START=2   DIIS_MAX=10   DIIS_INCORE=F

 Level shifts:    0.00 (CLOSED)    0.00 (OPEN)    0.30 (GAP_MIN)

 ITER           ETOT              DE          GRAD        DDIFF     DIIS  NEXP   TIME(IT)  TIME(TOT)  DIAG
   1     -376.84121458    -376.84121458     0.00D+00     0.19D-01     0     0     379.13    389.01    start
   2     -376.48345893       0.35775564     0.36D-02     0.43D-02     1     0     365.78    754.79    diag
   3     -376.97728247      -0.49382354     0.68D-02     0.32D-02     2     0     358.35   1113.14    diag
   4     -376.98219328      -0.00491081     0.63D-03     0.40D-03     3     0     342.69   1455.83    diag
   5     -376.98194314       0.00025014     0.18D-03     0.15D-03     4     0     326.67   1782.50    diag
   6     -376.98260452      -0.00066138     0.24D-03     0.94D-04     5     0     318.63   2101.13    diag
   7     -376.98260707      -0.00000255     0.15D-04     0.64D-05     6     0     295.50   2396.63    diag
   8     -376.98260708      -0.00000002     0.14D-05     0.55D-06     7     0     263.09   2659.72    fixocc
   9     -376.98260708      -0.00000000     0.12D-06     0.77D-07     8     0     228.06   2887.78    diag
  10     -376.98260708       0.00000000     0.16D-07     0.21D-07     0     0     190.89   3078.67    diag/orth

 Final occupancy:  22

 !RKS STATE 1.1 Energy               -376.982607083093
  RKS One-electron energy            -830.863481505570
  RKS Two-electron energy             339.403253093697
  RKS Kinetic energy                  375.680705019704
  RKS Nuclear energy                  159.176284115471
  RKS Virial quotient                  -1.003465448308
 Density functional                   -44.69866279     PBEX=-43.22208083 PBEC= -1.47658195

 !RKS STATE 1.1 Dipole moment          -0.00000000     0.00000024     0.00000000
 Dipole moment /Debye                  -0.00000000     0.00000060     0.00000000

 Orbital energies:

           1.1          2.1          3.1          4.1          5.1          6.1          7.1          8.1          9.1         10.1
    -18.830528   -18.830527   -18.830236   -18.830235   -10.059979   -10.059979    -1.066870    -1.066850    -1.029945    -1.029916

          11.1         12.1         13.1         14.1         15.1         16.1         17.1         18.1         19.1         20.1
     -0.506964    -0.505718    -0.465030    -0.463981    -0.463981    -0.463900    -0.463900    -0.463349    -0.331826    -0.331826

          21.1         22.1         23.1         24.1
     -0.331514    -0.331514    -0.037861    -0.028747


 HOMO     22.1    -0.331514 =      -9.0210eV
 LUMO     23.1    -0.037861 =      -1.0303eV
 LUMO-HOMO         0.293653 =       7.9907eV

 Orbitals saved in record  2101.2


 **********************************************************************************************************************************
 DATASETS  * FILE   NREC   LENGTH (MB)   RECORD NAMES
              1      19       48.88       500      610      700      900      950      970     1000      129      960     1100   
                                          VAR    BASINP    GEOM    SYMINP    ZMAT    AOBASIS   BASIS     P2S    ABASIS      S 
                                         1400     1410     1200     1210     1080     1600     1650     1700     1800   
                                           T        V       H0       H01     AOSYM     SMH    MOLCAS    OPER     GRID   

              2       5        9.46       700     1000      520     1800     2101   
                                         GEOM     BASIS   MCVARS    GRID      RKS  

              4       2        4.44      8000     8001   

 PROGRAMS   *        TOTAL   RKS-SCF       INT
 CPU TIMES  *      3080.23   3079.21      0.72
 REAL TIME  *      3088.04 SEC
 DISK USED  *        96.22 MB (local),      769.75 MB (total)
 SF USED    *         4.44 MB
 GA USED    *         0.00 MB       (max)       0.00 MB       (current)
 **********************************************************************************************************************************
 SETTING EAB_PBE        =      -376.98260708  AU                              

 Dummy atoms: O2  C2  O3


 Recomputing one-electron integrals since nuclear charges changed


 PROGRAM * SEWARD (Integral evaluation for generally contracted gaussian basis sets)     Author: Roland Lindh, 1990

 Geometry written to block  1 of record 700


 Point group  C1  



 ATOMIC COORDINATES

 NR  ATOM    CHARGE       X              Y              Z

   1  C1      6.00    0.000000000    0.107687933    0.000000000
   2  O1      8.00    0.000000000    2.319083238    0.000000000
   3  O2      0.00    0.000000000    9.689015125    0.000000000
   4  C2      0.00    0.000000000   11.900410430    0.000000000
   5  O3      0.00    0.000000000   14.111805736    0.000000000
   6  O4      8.00    0.000000000   -2.103707373    0.000000000

 Bond lengths in Bohr (Angstrom)

 1-2  2.211395306  1-6  2.211395306  3-4  2.211395306  4-5  2.211395306
     ( 1.170220000)     ( 1.170220000)     ( 1.170220000)     ( 1.170220000)

 Bond angles

  2-1-6  180.00000000   3-4-5  180.00000000

 NUCLEAR CHARGE:                   22
 NUMBER OF PRIMITIVE AOS:        1194
 NUMBER OF SYMMETRY AOS:          864
 NUMBER OF CONTRACTIONS:          762   (  762A   )
 NUMBER OF INNER CORE ORBITALS:     0   (    0A   )
 NUMBER OF OUTER CORE ORBITALS:     3   (    3A   )
 NUMBER OF VALENCE ORBITALS:       12   (   12A   )

 MOLECULE CHANGED: INITIALIZING OCCUPATION AND DUMP RECORDS


 NUCLEAR REPULSION ENERGY   57.88200765

 EXTRA SYMMETRY OF AOS IN SYMMETRY 1:   1 1 1 1 1 1 1 2 1 3   2 1 3 2 1 3 2 1 3 2   1 3 2 1 3 1 2 4 1 3   1 2 4 1 3 1 2 4 1 3
                                        1 2 4 1 3 1 2 4 1 3   2 1 3 2 4 1 3 2 1 3   2 4 1 3 2 1 3 2 4 1   3 2 1 3 2 4 1 3 1 2
                                        4 1 3 1 2 4 3 1 2 4   1 3 1 2 4 3 1 2 4 1   3 1 2 4 3 2 1 3 2 4   1 3 1 3 2 4 2 1 3 2
                                        4 1 3 1 3 2 4 1 1 1   1 1 1 1 2 1 3 2 1 3   2 1 3 2 1 3 2 1 3 2   1 3 1 2 4 1 3 1 2 4
                                        1 3 1 2 4 1 3 1 2 4   1 3 1 2 4 1 3 2 1 3   2 4 1 3 2 1 3 2 4 1   3 2 1 3 2 4 1 3 2 1
                                        3 2 4 1 3 1 2 4 1 3   1 2 4 3 1 2 4 1 3 1   2 4 3 1 2 4 1 3 1 2   4 3 2 1 3 2 4 1 3 1
                                        3 2 4 2 1 3 2 4 1 3   1 3 2 4 1 1 1 1 1 1   1 2 1 3 2 1 3 2 1 3   2 1 3 2 1 3 2 1 3 1
                                        2 4 1 3 1 2 4 1 3 1   2 4 1 3 1 2 4 1 3 1   2 4 1 3 2 1 3 2 4 1   3 2 1 3 2 4 1 3 2 1
                                        3 2 4 1 3 2 1 3 2 4   1 3 1 2 4 1 3 1 2 4   3 1 2 4 1 3 1 2 4 3   1 2 4 1 3 1 2 4 3 2
                                        1 3 2 4 1 3 1 3 2 4   2 1 3 2 4 1 3 1 3 2   4 1 1 1 1 1 1 1 2 1   3 2 1 3 2 1 3 2 1 3
                                        2 1 3 2 1 3 1 2 4 1   3 1 2 4 1 3 1 2 4 1   3 1 2 4 1 3 1 2 4 1   3 2 1 3 2 4 1 3 2 1
                                        3 2 4 1 3 2 1 3 2 4   1 3 2 1 3 2 4 1 3 1   2 4 1 3 1 2 4 3 1 2   4 1 3 1 2 4 3 1 2 4
                                        1 3 1 2 4 3 2 1 3 2   4 1 3 1 3 2 4 2 1 3   2 4 1 3 1 3 2 4 1 1   1 1 1 1 1 2 1 3 2 1
                                        3 2 1 3 2 1 3 2 1 3   2 1 3 1 2 4 1 3 1 2   4 1 3 1 2 4 1 3 1 2   4 1 3 1 2 4 1 3 2 1
                                        3 2 4 1 3 2 1 3 2 4   1 3 2 1 3 2 4 1 3 2   1 3 2 4 1 3 1 2 4 1   3 1 2 4 3 1 2 4 1 3
                                        1 2 4 3 1 2 4 1 3 1   2 4 3 2 1 3 2 4 1 3   1 3 2 4 2 1 3 2 4 1   3 1 3 2 4 1 1 1 1 1
                                        1 1 2 1 3 2 1 3 2 1   3 2 1 3 2 1 3 2 1 3   1 2 4 1 3 1 2 4 1 3   1 2 4 1 3 1 2 4 1 3
                                        1 2 4 1 3 2 1 3 2 4   1 3 2 1 3 2 4 1 3 2   1 3 2 4 1 3 2 1 3 2   4 1 3 1 2 4 1 3 1 2
                                        4 3 1 2 4 1 3 1 2 4   3 1 2 4 1 3 1 2 4 3   2 1 3 2 4 1 3 1 3 2   4 2 1 3 2 4 1 3 1 3
                                        2 4

 Eigenvalues of metric

         1 0.312E-05 0.422E-05 0.840E-05 0.974E-05 0.110E-04 0.255E-04 0.256E-04 0.352E-04


 OPERATOR DM      FOR CENTER  0  COORDINATES:    0.000000    0.000000    0.000000


 **********************************************************************************************************************************
 DATASETS  * FILE   NREC   LENGTH (MB)   RECORD NAMES
              1      19       48.88       500      610      700      900      950      970     1000      129      960     1100   
                                          VAR    BASINP    GEOM    SYMINP    ZMAT    AOBASIS   BASIS     P2S    ABASIS      S 
                                         1400     1410     1200     1210     1080     1600     1650     1700     1800   
                                           T        V       H0       H01     AOSYM     SMH    MOLCAS    OPER     GRID   

              2       5        9.46       700     1000      520     1800     2101   
                                         GEOM     BASIS   MCVARS    GRID      RKS  

 PROGRAMS   *        TOTAL       INT   RKS-SCF       INT
 CPU TIMES  *      3080.74      0.50   3079.21      0.72
 REAL TIME  *      3088.66 SEC
 DISK USED  *        96.22 MB (local),      769.75 MB (total)
 SF USED    *         4.44 MB
 GA USED    *         0.00 MB       (max)       0.00 MB       (current)
 **********************************************************************************************************************************


 Program * Restricted Kohn-Sham

 Density functional group PBE=PBEX+PBEC
 Functional: PBEX(Automatically generated (new) PBEX)                          Gradient terms: 1
 Functional: PBEC(Automatically generated (new) PBEC)                          Gradient terms: 1

 Functional: PBEX                   Factor:  1.0000
 Functional: PBEC                   Factor:  1.0000

 Radial grid threshold:                     5.0D-09
 Accuracy mode for quadrature:              DEFAULT
 Global grid threshold:                     1.0D-08
 Angular grid threshold:                    1.0D-09
 Fac_Neighbour:                                 4.0
 Size adjustment in partitioning scheme:   TREUTLER
 Skip grid points with weights lower than:  1.0D-20
 Grid orientation:                           T

 Generated new metagrid on record  1800.2 with target accuracy 1.0D-08 and 83808 points in CPU time    0.2
 Computed new grid on record 1800.1 in CPU time    0.3

 DFT orbital screening threshold (tolorb):   1.0D-09


 Integral-direct calculation

 Orbital guess generated from atomic densities. Full valence occupancy:   15

 Initial occupancy:  11

 NELEC=   22   SYM=1   MS2= 0   THRE=1.0D-09   THRD=1.0D-04   THRG=1.0D-04  HFMA2=F  DIIS_START=2   DIIS_MAX=10   DIIS_INCORE=F

 Level shifts:    0.00 (CLOSED)    0.00 (OPEN)    0.30 (GAP_MIN)

 ITER           ETOT              DE          GRAD        DDIFF     DIIS  NEXP   TIME(IT)  TIME(TOT)  DIAG
   1     -188.42089622    -188.42089622     0.00D+00     0.13D-01     0     0     355.98    363.74    start
   2     -188.24220616       0.17869006     0.36D-02     0.30D-02     1     0     341.13    704.87    diag
   3     -188.48878380      -0.24657764     0.68D-02     0.22D-02     2     0     334.53   1039.40    diag
   4     -188.49130718      -0.00252339     0.61D-03     0.28D-03     3     0     318.31   1357.71    diag
   5     -188.49136720      -0.00006002     0.96D-04     0.33D-04     4     0     297.49   1655.20    diag
   6     -188.49136915      -0.00000194     0.19D-04     0.57D-05     5     0     263.72   1918.92    diag
   7     -188.49136916      -0.00000001     0.18D-05     0.54D-06     6     0     222.98   2141.90    diag
   8     -188.49136916       0.00000000     0.25D-06     0.20D-06     7     0     174.25   2316.15    fixocc
   9     -188.49136916      -0.00000000     0.49D-06     0.14D-06     8     0     130.94   2447.09    diag
  10     -188.49136916       0.00000000     0.17D-07     0.52D-08     9     0     116.84   2563.93    diag/orth
  11     -188.49136916       0.00000000     0.63D-09     0.22D-08     0     0      89.09   2653.02    diag

 Final occupancy:  11

 !RKS STATE 1.1 Energy               -188.491369160143
  RKS One-electron energy            -371.973543967732
  RKS Two-electron energy             147.949530949987
  RKS Kinetic energy                  187.839861248928
  RKS Nuclear energy                   57.882007652906
  RKS Virial quotient                  -1.003468422021
 Density functional                   -22.34936380     PBEX=-21.61108434 PBEC= -0.73827946

 !RKS STATE 1.1 Dipole moment          -0.00000000     0.00002060     0.00000000
 Dipole moment /Debye                  -0.00000000     0.00005237     0.00000000

 Orbital energies:

           1.1          2.1          3.1          4.1          5.1          6.1          7.1          8.1          9.1         10.1
    -18.832437   -18.832435   -10.062115    -1.068894    -1.031985    -0.508573    -0.466488    -0.465946    -0.465946    -0.333740

          11.1         12.1         13.1
     -0.333740    -0.034977    -0.017838


 HOMO     11.1    -0.333740 =      -9.0815eV
 LUMO     12.1    -0.034977 =      -0.9518eV
 LUMO-HOMO         0.298763 =       8.1298eV

 Orbitals saved in record  2201.2


 **********************************************************************************************************************************
 DATASETS  * FILE   NREC   LENGTH (MB)   RECORD NAMES
              1      19       48.88       500      610      700      900      950      970     1000      129      960     1100   
                                          VAR    BASINP    GEOM    SYMINP    ZMAT    AOBASIS   BASIS     P2S    ABASIS      S 
                                         1400     1410     1200     1210     1080     1600     1650     1700     1800   
                                           T        V       H0       H01     AOSYM     SMH    MOLCAS    OPER     GRID   

              2       6       25.09       700     1000      520     1800     2101     2201   
                                         GEOM     BASIS   MCVARS    GRID      RKS      RKS  

              4       2        4.44      8000     8001   

 PROGRAMS   *        TOTAL   RKS-SCF       INT   RKS-SCF       INT
 CPU TIMES  *      5734.32   2653.58      0.50   3079.21      0.72
 REAL TIME  *      5773.76 SEC
 DISK USED  *       114.07 MB (local),      912.56 MB (total)
 SF USED    *         6.99 MB
 GA USED    *         0.00 MB       (max)       0.00 MB       (current)
 **********************************************************************************************************************************
 SETTING EA_PBE         =      -188.49136916  AU                              

 Dummy atoms: C1  O1  O4


 Recomputing one-electron integrals since nuclear charges changed


 PROGRAM * SEWARD (Integral evaluation for generally contracted gaussian basis sets)     Author: Roland Lindh, 1990

 Geometry written to block  1 of record 700


 Point group  C1  



 ATOMIC COORDINATES

 NR  ATOM    CHARGE       X              Y              Z

   1  C1      0.00    0.000000000    0.107687933    0.000000000
   2  O1      0.00    0.000000000    2.319083238    0.000000000
   3  O2      8.00    0.000000000    9.689015125    0.000000000
   4  C2      6.00    0.000000000   11.900410430    0.000000000
   5  O3      8.00    0.000000000   14.111805736    0.000000000
   6  O4      0.00    0.000000000   -2.103707373    0.000000000

 Bond lengths in Bohr (Angstrom)

 1-2  2.211395306  1-6  2.211395306  3-4  2.211395306  4-5  2.211395306
     ( 1.170220000)     ( 1.170220000)     ( 1.170220000)     ( 1.170220000)

 Bond angles

  2-1-6  180.00000000   3-4-5  180.00000000

 NUCLEAR CHARGE:                   22
 NUMBER OF PRIMITIVE AOS:        1194
 NUMBER OF SYMMETRY AOS:          864
 NUMBER OF CONTRACTIONS:          762   (  762A   )
 NUMBER OF INNER CORE ORBITALS:     0   (    0A   )
 NUMBER OF OUTER CORE ORBITALS:     3   (    3A   )
 NUMBER OF VALENCE ORBITALS:       12   (   12A   )

 MOLECULE CHANGED: INITIALIZING OCCUPATION AND DUMP RECORDS


 NUCLEAR REPULSION ENERGY   57.88200765

 EXTRA SYMMETRY OF AOS IN SYMMETRY 1:   1 1 1 1 1 1 1 2 1 3   2 1 3 2 1 3 2 1 3 2   1 3 2 1 3 1 2 4 1 3   1 2 4 1 3 1 2 4 1 3
                                        1 2 4 1 3 1 2 4 1 3   2 1 3 2 4 1 3 2 1 3   2 4 1 3 2 1 3 2 4 1   3 2 1 3 2 4 1 3 1 2
                                        4 1 3 1 2 4 3 1 2 4   1 3 1 2 4 3 1 2 4 1   3 1 2 4 3 2 1 3 2 4   1 3 1 3 2 4 2 1 3 2
                                        4 1 3 1 3 2 4 1 1 1   1 1 1 1 2 1 3 2 1 3   2 1 3 2 1 3 2 1 3 2   1 3 1 2 4 1 3 1 2 4
                                        1 3 1 2 4 1 3 1 2 4   1 3 1 2 4 1 3 2 1 3   2 4 1 3 2 1 3 2 4 1   3 2 1 3 2 4 1 3 2 1
                                        3 2 4 1 3 1 2 4 1 3   1 2 4 3 1 2 4 1 3 1   2 4 3 1 2 4 1 3 1 2   4 3 2 1 3 2 4 1 3 1
                                        3 2 4 2 1 3 2 4 1 3   1 3 2 4 1 1 1 1 1 1   1 2 1 3 2 1 3 2 1 3   2 1 3 2 1 3 2 1 3 1
                                        2 4 1 3 1 2 4 1 3 1   2 4 1 3 1 2 4 1 3 1   2 4 1 3 2 1 3 2 4 1   3 2 1 3 2 4 1 3 2 1
                                        3 2 4 1 3 2 1 3 2 4   1 3 1 2 4 1 3 1 2 4   3 1 2 4 1 3 1 2 4 3   1 2 4 1 3 1 2 4 3 2
                                        1 3 2 4 1 3 1 3 2 4   2 1 3 2 4 1 3 1 3 2   4 1 1 1 1 1 1 1 2 1   3 2 1 3 2 1 3 2 1 3
                                        2 1 3 2 1 3 1 2 4 1   3 1 2 4 1 3 1 2 4 1   3 1 2 4 1 3 1 2 4 1   3 2 1 3 2 4 1 3 2 1
                                        3 2 4 1 3 2 1 3 2 4   1 3 2 1 3 2 4 1 3 1   2 4 1 3 1 2 4 3 1 2   4 1 3 1 2 4 3 1 2 4
                                        1 3 1 2 4 3 2 1 3 2   4 1 3 1 3 2 4 2 1 3   2 4 1 3 1 3 2 4 1 1   1 1 1 1 1 2 1 3 2 1
                                        3 2 1 3 2 1 3 2 1 3   2 1 3 1 2 4 1 3 1 2   4 1 3 1 2 4 1 3 1 2   4 1 3 1 2 4 1 3 2 1
                                        3 2 4 1 3 2 1 3 2 4   1 3 2 1 3 2 4 1 3 2   1 3 2 4 1 3 1 2 4 1   3 1 2 4 3 1 2 4 1 3
                                        1 2 4 3 1 2 4 1 3 1   2 4 3 2 1 3 2 4 1 3   1 3 2 4 2 1 3 2 4 1   3 1 3 2 4 1 1 1 1 1
                                        1 1 2 1 3 2 1 3 2 1   3 2 1 3 2 1 3 2 1 3   1 2 4 1 3 1 2 4 1 3   1 2 4 1 3 1 2 4 1 3
                                        1 2 4 1 3 2 1 3 2 4   1 3 2 1 3 2 4 1 3 2   1 3 2 4 1 3 2 1 3 2   4 1 3 1 2 4 1 3 1 2
                                        4 3 1 2 4 1 3 1 2 4   3 1 2 4 1 3 1 2 4 3   2 1 3 2 4 1 3 1 3 2   4 2 1 3 2 4 1 3 1 3
                                        2 4

 Eigenvalues of metric

         1 0.312E-05 0.422E-05 0.840E-05 0.974E-05 0.110E-04 0.255E-04 0.256E-04 0.352E-04


 OPERATOR DM      FOR CENTER  0  COORDINATES:    0.000000    0.000000    0.000000


 **********************************************************************************************************************************
 DATASETS  * FILE   NREC   LENGTH (MB)   RECORD NAMES
              1      19       48.88       500      610      700      900      950      970     1000      129      960     1100   
                                          VAR    BASINP    GEOM    SYMINP    ZMAT    AOBASIS   BASIS     P2S    ABASIS      S 
                                         1400     1410     1200     1210     1080     1600     1650     1700     1800   
                                           T        V       H0       H01     AOSYM     SMH    MOLCAS    OPER     GRID   

              2       6       25.09       700     1000      520     1800     2101     2201   
                                         GEOM     BASIS   MCVARS    GRID      RKS      RKS  

 PROGRAMS   *        TOTAL       INT   RKS-SCF       INT   RKS-SCF       INT
 CPU TIMES  *      5734.84      0.51   2653.58      0.50   3079.21      0.72
 REAL TIME  *      5774.38 SEC
 DISK USED  *       114.07 MB (local),      912.56 MB (total)
 SF USED    *         6.99 MB
 GA USED    *         0.00 MB       (max)       0.00 MB       (current)
 **********************************************************************************************************************************


 Program * Restricted Kohn-Sham

 Density functional group PBE=PBEX+PBEC
 Functional: PBEX(Automatically generated (new) PBEX)                          Gradient terms: 1
 Functional: PBEC(Automatically generated (new) PBEC)                          Gradient terms: 1

 Functional: PBEX                   Factor:  1.0000
 Functional: PBEC                   Factor:  1.0000

 Radial grid threshold:                     5.0D-09
 Accuracy mode for quadrature:              DEFAULT
 Global grid threshold:                     1.0D-08
 Angular grid threshold:                    1.0D-09
 Fac_Neighbour:                                 4.0
 Size adjustment in partitioning scheme:   TREUTLER
 Skip grid points with weights lower than:  1.0D-20
 Grid orientation:                           T


 DFT orbital screening threshold (tolorb):   1.0D-09


 Integral-direct calculation

 Orbital guess generated from atomic densities. Full valence occupancy:   15

 Initial occupancy:  11

 NELEC=   22   SYM=1   MS2= 0   THRE=1.0D-09   THRD=1.0D-04   THRG=1.0D-04  HFMA2=F  DIIS_START=2   DIIS_MAX=10   DIIS_INCORE=F

 Level shifts:    0.00 (CLOSED)    0.00 (OPEN)    0.30 (GAP_MIN)

 ITER           ETOT              DE          GRAD        DDIFF     DIIS  NEXP   TIME(IT)  TIME(TOT)  DIAG
   1     -188.42089622    -188.42089622     0.00D+00     0.13D-01     0     0     358.43    365.02    start
   2     -188.24220617       0.17869005     0.36D-02     0.30D-02     1     0     343.75    708.77    diag
   3     -188.48878380      -0.24657763     0.68D-02     0.22D-02     2     0     337.52   1046.29    diag
   4     -188.49130719      -0.00252339     0.61D-03     0.28D-03     3     0     320.34   1366.63    diag
   5     -188.49136721      -0.00006002     0.96D-04     0.33D-04     4     0     299.49   1666.12    diag
   6     -188.49136915      -0.00000194     0.19D-04     0.57D-05     5     0     265.09   1931.21    diag
   7     -188.49136916      -0.00000001     0.18D-05     0.54D-06     6     0     223.70   2154.91    diag
   8     -188.49136916       0.00000000     0.25D-06     0.20D-06     7     0     174.67   2329.58    fixocc
   9     -188.49136916      -0.00000000     0.49D-06     0.14D-06     8     0     159.68   2489.26    diag
  10     -188.49136916       0.00000000     0.17D-07     0.52D-08     9     0     100.31   2589.57    diag/orth
  11     -188.49136916       0.00000000     0.63D-09     0.18D-08     0     0      80.54   2670.11    diag

 Final occupancy:  11

 !RKS STATE 1.1 Energy               -188.491369161474
  RKS One-electron energy            -371.973543951175
  RKS Two-electron energy             147.949530931360
  RKS Kinetic energy                  187.839861244760
  RKS Nuclear energy                   57.882007652906
  RKS Virial quotient                  -1.003468422051
 Density functional                   -22.34936379     PBEX=-21.61108433 PBEC= -0.73827946

 !RKS STATE 1.1 Dipole moment          -0.00000000    -0.00002059    -0.00000000
 Dipole moment /Debye                  -0.00000000    -0.00005233    -0.00000000

 Orbital energies:

           1.1          2.1          3.1          4.1          5.1          6.1          7.1          8.1          9.1         10.1
    -18.832437   -18.832435   -10.062115    -1.068894    -1.031985    -0.508573    -0.466488    -0.465946    -0.465946    -0.333740

          11.1         12.1         13.1
     -0.333740    -0.034977    -0.017838


 HOMO     11.1    -0.333740 =      -9.0815eV
 LUMO     12.1    -0.034977 =      -0.9518eV
 LUMO-HOMO         0.298763 =       8.1298eV

 Orbitals saved in record  2301.2


 **********************************************************************************************************************************
 DATASETS  * FILE   NREC   LENGTH (MB)   RECORD NAMES
              1      19       48.88       500      610      700      900      950      970     1000      129      960     1100   
                                          VAR    BASINP    GEOM    SYMINP    ZMAT    AOBASIS   BASIS     P2S    ABASIS      S 
                                         1400     1410     1200     1210     1080     1600     1650     1700     1800   
                                           T        V       H0       H01     AOSYM     SMH    MOLCAS    OPER     GRID   

              2       7       40.73       700     1000      520     1800     2101     2201     2301   
                                         GEOM     BASIS   MCVARS    GRID      RKS      RKS      RKS  

              4       2        4.44      8000     8001   

 PROGRAMS   *        TOTAL   RKS-SCF       INT   RKS-SCF       INT   RKS-SCF       INT
 CPU TIMES  *      8405.22   2670.38      0.51   2653.58      0.50   3079.21      0.72
 REAL TIME  *      8465.35 SEC
 DISK USED  *       129.70 MB (local),        1.01 GB (total)
 SF USED    *         6.99 MB
 GA USED    *         0.00 MB       (max)       0.00 MB       (current)
 **********************************************************************************************************************************
 SETTING EB_PBE         =      -188.49136916  AU                              
 SETTING E_AB_INT       =         0.00013124  AU                              

 *** results in hartree
 E_AB_INT         =         0.00013124 AU

 RPBE/aug-cc-pV5Z energy=   -188.491369161474

         RKS-SCF         RKS-SCF         RKS-SCF
   -188.49136916   -188.49136916   -376.98260708
 **********************************************************************************************************************************
 Molpro calculation terminated
