
 Working directory              : /scratch/yourdkhs/302815/molpro.GxAiVXK8ko/
 Global scratch directory       : /scratch/yourdkhs/302815/molpro.GxAiVXK8ko/
 Wavefunction directory         : /scratch/yourdkhs/302815/
 Main file repository           : /scratch/yourdkhs/302815/molpro.GxAiVXK8ko/

 id        : karlovklimes

 Nodes                      nprocs
 nd-17.cc.karlov.mff.cuni.cz    8
 GA implementation: MPI file
 GA implementation (serial work in mppx): MPI file

 Using customized tuning parameters: mindgm=1; mindgv=20; mindgc=4; mindgr=1; noblas=0; minvec=7
 default implementation of scratch files=sf  


 Variables initialized (1015), CPU time= 0.01 sec
 ***,CH3C6H4CN+CF3CN+BF3
 memory,500,m
 gdirect
 gthresh,energy=1.d-8,twoint=1.d-19,oneint=1.d-19,zero=1.d-15,orbital=1.d-8,grid=1.d-8
 symmetry,nosym
 geomtyp=xyz
                                                                                 ! Geometry
 geometry={
 C1        0.000000000    0.056986000     0.000000000
 O1        0.000000000    1.227206000     0.000000000
 O2        0.000000000    5.427206000     0.000000000
 C2        0.000000000    6.597426000     0.000000000
 O3        0.000000000    7.767646000     0.000000000
 O4        0.000000000    -1.113234000     0.000000000
 }
 
 
 
 basis=aug-cc-pv5z
 
 
 
                                                                                 ! Dimer Calculation
 {rks,pbe,accu=1.d-8;orbital,2101.2}
 eab_PBE=energy
 
 
                                                                                 !monomer A
 dummy,3,4,5;                                                                    ! NOW MONOMER B IS DUMMY
 {rks,pbe,accu=1.d-8;orbital,2201.2}
 ea_PBE=energy
                                                                                 !monomer B
 dummy,1,2,6;                                                                    !NOW MONOMER A IS DUMMY
 {rks,pbe,accu=1.d-8;orbital,2301.2}
 eb_PBE=energy
 
 E_AB_int=eab_PBE-ea_PBE-eb_PBE
 
 
 text,results in hartree
 show,E_AB_int
 
 Commands initialized (834), CPU time= 0.01 sec, 672 directives.
 Default parameters read. Elapsed time= 0.23 sec

 Checking input...
 Passed
1


                                         ***  PROGRAM SYSTEM MOLPRO  ***
                                       Copyright, TTI GmbH Stuttgart, 2015
                                    Version 2022.2 linked Thu May  5 22:39:45 2022


 **********************************************************************************************************************************
 LABEL *   CH3C6H4CN+CF3CN+BF3                                                           
  64 bit mpp version                                                                     DATE: 20-Oct-23          TIME: 18:34:58  
 **********************************************************************************************************************************

 SHA1:             518bf5c5e315925380b88506c70af759aa1d1d96
 **********************************************************************************************************************************

 Memory per process:       500 MW
 Total memory per node:   4000 MW

 GA preallocation disabled
 GA check disabled

 Variable memory set to 500.0 MW


 THRESHOLDS:

 ZERO    =  1.00D-15  ONEINT  =  1.00D-19  TWOINT  =  1.00D-19  PREFAC  =  1.00D-14  XXXXXX  =  1.00D-09  EORDER  =  1.00D-04
 ENERGY  =  1.00D-08  ETEST   =  0.00D+00  EDENS   =  0.00D+00  THRDEDEF=  1.00D-06  GRADIENT=  1.00D-05  STEP    =  1.00D-03
 ORBITAL =  1.00D-08  CIVEC   =  1.00D-05  COEFF   =  1.00D-04  PRINTCI =  5.00D-02  PUNCHCI =  9.90D+01  OPTGRAD =  3.00D-04
 OPTENERG=  1.00D-06  OPTSTEP =  3.00D-04  THRGRAD =  1.00D-10  COMPRESS=  1.00D-11  VARMIN  =  1.00D-07  VARMAX  =  1.00D-03
 THRDOUB =  0.00D+00  THRDIV  =  1.00D-05  THRRED  =  1.00D-07  THRPSP  =  1.00D+00  THRDC   =  1.00D-10  THRCS   =  1.00D-10
 THRNRM  =  1.00D-08  THREQ   =  0.00D+00  THRDE   =  1.00D+00  THRREF  =  1.00D-05  SPARFAC =  1.00D+00  THRDLP  =  1.00D-07
 THRDIA  =  1.00D-10  THRDLS  =  1.00D-07  THRGPS  =  0.00D+00  THRKEX  =  0.00D+00  THRDIS  =  2.00D-01  THRVAR  =  1.00D-10
 THRLOC  =  1.00D-06  THRGAP  =  1.00D-06  THRLOCT = -1.00D+00  THRGAPT = -1.00D+00  THRORB  =  1.00D-06  THRMLTP =  0.00D+00
 THRCPQCI=  1.00D-10  KEXTA   =  0.00D+00  THRCOARS=  0.00D+00  SYMTOL  =  1.00D-06  GRADTOL =  1.00D-06  THROVL  =  1.00D-08
 THRORTH =  1.00D-08  THRDLOVL= -1.00D+00  GRID    =  1.00D-08  GRIDMAX =  1.00D-03  DTMAX   =  0.00D+00  THROCCDE=  1.00D-01
 THROCCDE=  1.00D-01  THRPRINT=  2.50D-01

 SETTING GEOMTYP        =    XYZ
 ZSYMEL=NOSYM

 SETTING BASIS          =    AUG-CC-PV5Z


 Recomputing integrals since basis changed


 Using spherical harmonics

 Library entry C      S aug-cc-pV5Z          selected for orbital group  1
 Library entry C      P aug-cc-pV5Z          selected for orbital group  1
 Library entry C      D aug-cc-pV5Z          selected for orbital group  1
 Library entry C      F aug-cc-pV5Z          selected for orbital group  1
 Library entry C      G aug-cc-pV5Z          selected for orbital group  1
 Library entry C      H aug-cc-pV5Z          selected for orbital group  1
 Library entry O      S aug-cc-pV5Z          selected for orbital group  2
 Library entry O      P aug-cc-pV5Z          selected for orbital group  2
 Library entry O      D aug-cc-pV5Z          selected for orbital group  2
 Library entry O      F aug-cc-pV5Z          selected for orbital group  2
 Library entry O      G aug-cc-pV5Z          selected for orbital group  2
 Library entry O      H aug-cc-pV5Z          selected for orbital group  2


 PROGRAM * SEWARD (Integral evaluation for generally contracted gaussian basis sets)     Author: Roland Lindh, 1990

 Geometry written to block  1 of record 700


 Point group  C1  



 ATOMIC COORDINATES

 NR  ATOM    CHARGE       X              Y              Z

   1  C1      6.00    0.000000000    0.107687933    0.000000000
   2  O1      8.00    0.000000000    2.319083238    0.000000000
   3  O2      8.00    0.000000000   10.255932962    0.000000000
   4  C2      6.00    0.000000000   12.467328267    0.000000000
   5  O3      8.00    0.000000000   14.678723573    0.000000000
   6  O4      8.00    0.000000000   -2.103707373    0.000000000

 Bond lengths in Bohr (Angstrom)

 1-2  2.211395306  1-6  2.211395306  3-4  2.211395306  4-5  2.211395306
     ( 1.170220000)     ( 1.170220000)     ( 1.170220000)     ( 1.170220000)

 Bond angles

  2-1-6  180.00000000   3-4-5  180.00000000

 NUCLEAR CHARGE:                   44
 NUMBER OF PRIMITIVE AOS:        1194
 NUMBER OF SYMMETRY AOS:          864
 NUMBER OF CONTRACTIONS:          762   (  762A   )
 NUMBER OF INNER CORE ORBITALS:     0   (    0A   )
 NUMBER OF OUTER CORE ORBITALS:     6   (    6A   )
 NUMBER OF VALENCE ORBITALS:       24   (   24A   )


 NUCLEAR REPULSION ENERGY  156.95835113

 EXTRA SYMMETRY OF AOS IN SYMMETRY 1:   1 1 1 1 1 1 1 2 1 3   2 1 3 2 1 3 2 1 3 2   1 3 2 1 3 1 2 4 1 3   1 2 4 1 3 1 2 4 1 3
                                        1 2 4 1 3 1 2 4 1 3   2 1 3 2 4 1 3 2 1 3   2 4 1 3 2 1 3 2 4 1   3 2 1 3 2 4 1 3 1 2
                                        4 1 3 1 2 4 3 1 2 4   1 3 1 2 4 3 1 2 4 1   3 1 2 4 3 2 1 3 2 4   1 3 1 3 2 4 2 1 3 2
                                        4 1 3 1 3 2 4 1 1 1   1 1 1 1 2 1 3 2 1 3   2 1 3 2 1 3 2 1 3 2   1 3 1 2 4 1 3 1 2 4
                                        1 3 1 2 4 1 3 1 2 4   1 3 1 2 4 1 3 2 1 3   2 4 1 3 2 1 3 2 4 1   3 2 1 3 2 4 1 3 2 1
                                        3 2 4 1 3 1 2 4 1 3   1 2 4 3 1 2 4 1 3 1   2 4 3 1 2 4 1 3 1 2   4 3 2 1 3 2 4 1 3 1
                                        3 2 4 2 1 3 2 4 1 3   1 3 2 4 1 1 1 1 1 1   1 2 1 3 2 1 3 2 1 3   2 1 3 2 1 3 2 1 3 1
                                        2 4 1 3 1 2 4 1 3 1   2 4 1 3 1 2 4 1 3 1   2 4 1 3 2 1 3 2 4 1   3 2 1 3 2 4 1 3 2 1
                                        3 2 4 1 3 2 1 3 2 4   1 3 1 2 4 1 3 1 2 4   3 1 2 4 1 3 1 2 4 3   1 2 4 1 3 1 2 4 3 2
                                        1 3 2 4 1 3 1 3 2 4   2 1 3 2 4 1 3 1 3 2   4 1 1 1 1 1 1 1 2 1   3 2 1 3 2 1 3 2 1 3
                                        2 1 3 2 1 3 1 2 4 1   3 1 2 4 1 3 1 2 4 1   3 1 2 4 1 3 1 2 4 1   3 2 1 3 2 4 1 3 2 1
                                        3 2 4 1 3 2 1 3 2 4   1 3 2 1 3 2 4 1 3 1   2 4 1 3 1 2 4 3 1 2   4 1 3 1 2 4 3 1 2 4
                                        1 3 1 2 4 3 2 1 3 2   4 1 3 1 3 2 4 2 1 3   2 4 1 3 1 3 2 4 1 1   1 1 1 1 1 2 1 3 2 1
                                        3 2 1 3 2 1 3 2 1 3   2 1 3 1 2 4 1 3 1 2   4 1 3 1 2 4 1 3 1 2   4 1 3 1 2 4 1 3 2 1
                                        3 2 4 1 3 2 1 3 2 4   1 3 2 1 3 2 4 1 3 2   1 3 2 4 1 3 1 2 4 1   3 1 2 4 3 1 2 4 1 3
                                        1 2 4 3 1 2 4 1 3 1   2 4 3 2 1 3 2 4 1 3   1 3 2 4 2 1 3 2 4 1   3 1 3 2 4 1 1 1 1 1
                                        1 1 2 1 3 2 1 3 2 1   3 2 1 3 2 1 3 2 1 3   1 2 4 1 3 1 2 4 1 3   1 2 4 1 3 1 2 4 1 3
                                        1 2 4 1 3 2 1 3 2 4   1 3 2 1 3 2 4 1 3 2   1 3 2 4 1 3 2 1 3 2   4 1 3 1 2 4 1 3 1 2
                                        4 3 1 2 4 1 3 1 2 4   3 1 2 4 1 3 1 2 4 3   2 1 3 2 4 1 3 1 3 2   4 2 1 3 2 4 1 3 1 3
                                        2 4

 Eigenvalues of metric

         1 0.323E-05 0.433E-05 0.861E-05 0.994E-05 0.144E-04 0.254E-04 0.286E-04 0.378E-04


 OPERATOR DM      FOR CENTER  0  COORDINATES:    0.000000    0.000000    0.000000


 **********************************************************************************************************************************
 DATASETS  * FILE   NREC   LENGTH (MB)   RECORD NAMES
              1      18       48.88       500      610      700      900      950      970     1000      129      960     1100   
                                          VAR    BASINP    GEOM    SYMINP    ZMAT    AOBASIS   BASIS     P2S    ABASIS      S 
                                         1400     1410     1200     1210     1080     1600     1650     1700   
                                           T        V       H0       H01     AOSYM     SMH    MOLCAS    OPER   

 PROGRAMS   *        TOTAL       INT
 CPU TIMES  *         0.75      0.53
 REAL TIME  *         1.82 SEC
 DISK USED  *        49.49 MB (local),      395.94 MB (total)
 GA USED    *         0.00 MB       (max)       0.00 MB       (current)
 **********************************************************************************************************************************


 Program * Restricted Kohn-Sham

 Density functional group PBE=PBEX+PBEC
 Functional: PBEX(Automatically generated (new) PBEX)                          Gradient terms: 1
 Functional: PBEC(Automatically generated (new) PBEC)                          Gradient terms: 1

 Functional: PBEX                   Factor:  1.0000
 Functional: PBEC                   Factor:  1.0000


 Setting radial_scaling=1d0
 Radial grid threshold:                     5.0D-09
 Global grid threshold:                     1.0D-08
 Angular grid threshold:                    1.0D-09
 Fac_Neighbour:                                 4.0
 Size adjustment in partitioning scheme:   TREUTLER
 Skip grid points with weights lower than:  1.0D-20
 Grid orientation:                           T

 Generated new metagrid on record  1800.2 with target accuracy 1.0D-08 and 83808 points in CPU time    0.1
 Computed new grid on record 1800.1 in CPU time    0.2

 DFT orbital screening threshold (tolorb):   1.0D-09


 Integral-direct calculation

 Orbital guess generated from atomic densities. Full valence occupancy:   30

 Initial occupancy:  22

 NELEC=   44   SYM=1   MS2= 0   THRE=1.0D-09   THRD=1.0D-04   THRG=1.0D-04  HFMA2=F  DIIS_START=2   DIIS_MAX=10   DIIS_INCORE=F

 Level shifts:    0.00 (CLOSED)    0.00 (OPEN)    0.30 (GAP_MIN)

 ITER           ETOT              DE          GRAD        DDIFF     DIIS  NEXP   TIME(IT)  TIME(TOT)  DIAG
   1     -376.84131008    -376.84131008     0.00D+00     0.19D-01     0     0     206.55    212.72    start
   2     -376.48343213       0.35787795     0.36D-02     0.43D-02     1     0     199.17    411.89    diag
   3     -376.97733186      -0.49389973     0.68D-02     0.32D-02     2     0     195.81    607.70    diag
   4     -376.98229048      -0.00495862     0.62D-03     0.40D-03     3     0     187.66    795.36    diag
   5     -376.98200181       0.00028868     0.16D-03     0.14D-03     4     0     178.27    973.63    diag
   6     -376.98260457      -0.00060277     0.22D-03     0.90D-04     5     0     174.02   1147.65    diag
   7     -376.98260719      -0.00000262     0.16D-04     0.64D-05     6     0     163.35   1311.00    diag
   8     -376.98260721      -0.00000002     0.14D-05     0.55D-06     7     0     143.99   1454.99    fixocc
   9     -376.98260721      -0.00000000     0.12D-06     0.76D-07     8     0     125.48   1580.47    diag
  10     -376.98260721       0.00000000     0.15D-07     0.20D-07     0     0     102.00   1682.47    diag/orth

 Final occupancy:  22

 !RKS STATE 1.1 Energy               -376.982607210602
  RKS One-electron energy            -826.415208022774
  RKS Two-electron energy             337.172897775701
  RKS Kinetic energy                  375.680459269791
  RKS Nuclear energy                  156.958351128720
  RKS Virial quotient                  -1.003466105060
 Density functional                   -44.69864809     PBEX=-43.22207679 PBEC= -1.47657130

 !RKS STATE 1.1 Dipole moment          -0.00000000     0.00000021    -0.00000000
 Dipole moment /Debye                  -0.00000000     0.00000052    -0.00000000

 Orbital energies:

           1.1          2.1          3.1          4.1          5.1          6.1          7.1          8.1          9.1         10.1
    -18.830778   -18.830778   -18.830532   -18.830532   -10.060271   -10.060271    -1.067134    -1.067126    -1.030212    -1.030199

          11.1         12.1         13.1         14.1         15.1         16.1         17.1         18.1         19.1         20.1
     -0.506985    -0.506310    -0.464986    -0.464226    -0.464226    -0.464184    -0.464184    -0.464061    -0.332034    -0.332034

          21.1         22.1         23.1         24.1
     -0.331860    -0.331860    -0.037539    -0.029607


 HOMO     22.1    -0.331860 =      -9.0304eV
 LUMO     23.1    -0.037539 =      -1.0215eV
 LUMO-HOMO         0.294321 =       8.0089eV

 Orbitals saved in record  2101.2


 **********************************************************************************************************************************
 DATASETS  * FILE   NREC   LENGTH (MB)   RECORD NAMES
              1      19       48.88       500      610      700      900      950      970     1000      129      960     1100   
                                          VAR    BASINP    GEOM    SYMINP    ZMAT    AOBASIS   BASIS     P2S    ABASIS      S 
                                         1400     1410     1200     1210     1080     1600     1650     1700     1800   
                                           T        V       H0       H01     AOSYM     SMH    MOLCAS    OPER     GRID   

              2       5        9.46       700     1000      520     1800     2101   
                                         GEOM     BASIS   MCVARS    GRID      RKS  

              4       2        4.44      8000     8001   

 PROGRAMS   *        TOTAL   RKS-SCF       INT
 CPU TIMES  *      1683.56   1682.81      0.53
 REAL TIME  *      1693.04 SEC
 DISK USED  *        96.22 MB (local),      769.75 MB (total)
 SF USED    *         4.44 MB
 GA USED    *         0.00 MB       (max)       0.00 MB       (current)
 **********************************************************************************************************************************
 SETTING EAB_PBE        =      -376.98260721  AU                              

 Dummy atoms: O2  C2  O3


 Recomputing one-electron integrals since nuclear charges changed


 PROGRAM * SEWARD (Integral evaluation for generally contracted gaussian basis sets)     Author: Roland Lindh, 1990

 Geometry written to block  1 of record 700


 Point group  C1  



 ATOMIC COORDINATES

 NR  ATOM    CHARGE       X              Y              Z

   1  C1      6.00    0.000000000    0.107687933    0.000000000
   2  O1      8.00    0.000000000    2.319083238    0.000000000
   3  O2      0.00    0.000000000   10.255932962    0.000000000
   4  C2      0.00    0.000000000   12.467328267    0.000000000
   5  O3      0.00    0.000000000   14.678723573    0.000000000
   6  O4      8.00    0.000000000   -2.103707373    0.000000000

 Bond lengths in Bohr (Angstrom)

 1-2  2.211395306  1-6  2.211395306  3-4  2.211395306  4-5  2.211395306
     ( 1.170220000)     ( 1.170220000)     ( 1.170220000)     ( 1.170220000)

 Bond angles

  2-1-6  180.00000000   3-4-5  180.00000000

 NUCLEAR CHARGE:                   22
 NUMBER OF PRIMITIVE AOS:        1194
 NUMBER OF SYMMETRY AOS:          864
 NUMBER OF CONTRACTIONS:          762   (  762A   )
 NUMBER OF INNER CORE ORBITALS:     0   (    0A   )
 NUMBER OF OUTER CORE ORBITALS:     3   (    3A   )
 NUMBER OF VALENCE ORBITALS:       12   (   12A   )

 MOLECULE CHANGED: INITIALIZING OCCUPATION AND DUMP RECORDS


 NUCLEAR REPULSION ENERGY   57.88200765

 EXTRA SYMMETRY OF AOS IN SYMMETRY 1:   1 1 1 1 1 1 1 2 1 3   2 1 3 2 1 3 2 1 3 2   1 3 2 1 3 1 2 4 1 3   1 2 4 1 3 1 2 4 1 3
                                        1 2 4 1 3 1 2 4 1 3   2 1 3 2 4 1 3 2 1 3   2 4 1 3 2 1 3 2 4 1   3 2 1 3 2 4 1 3 1 2
                                        4 1 3 1 2 4 3 1 2 4   1 3 1 2 4 3 1 2 4 1   3 1 2 4 3 2 1 3 2 4   1 3 1 3 2 4 2 1 3 2
                                        4 1 3 1 3 2 4 1 1 1   1 1 1 1 2 1 3 2 1 3   2 1 3 2 1 3 2 1 3 2   1 3 1 2 4 1 3 1 2 4
                                        1 3 1 2 4 1 3 1 2 4   1 3 1 2 4 1 3 2 1 3   2 4 1 3 2 1 3 2 4 1   3 2 1 3 2 4 1 3 2 1
                                        3 2 4 1 3 1 2 4 1 3   1 2 4 3 1 2 4 1 3 1   2 4 3 1 2 4 1 3 1 2   4 3 2 1 3 2 4 1 3 1
                                        3 2 4 2 1 3 2 4 1 3   1 3 2 4 1 1 1 1 1 1   1 2 1 3 2 1 3 2 1 3   2 1 3 2 1 3 2 1 3 1
                                        2 4 1 3 1 2 4 1 3 1   2 4 1 3 1 2 4 1 3 1   2 4 1 3 2 1 3 2 4 1   3 2 1 3 2 4 1 3 2 1
                                        3 2 4 1 3 2 1 3 2 4   1 3 1 2 4 1 3 1 2 4   3 1 2 4 1 3 1 2 4 3   1 2 4 1 3 1 2 4 3 2
                                        1 3 2 4 1 3 1 3 2 4   2 1 3 2 4 1 3 1 3 2   4 1 1 1 1 1 1 1 2 1   3 2 1 3 2 1 3 2 1 3
                                        2 1 3 2 1 3 1 2 4 1   3 1 2 4 1 3 1 2 4 1   3 1 2 4 1 3 1 2 4 1   3 2 1 3 2 4 1 3 2 1
                                        3 2 4 1 3 2 1 3 2 4   1 3 2 1 3 2 4 1 3 1   2 4 1 3 1 2 4 3 1 2   4 1 3 1 2 4 3 1 2 4
                                        1 3 1 2 4 3 2 1 3 2   4 1 3 1 3 2 4 2 1 3   2 4 1 3 1 3 2 4 1 1   1 1 1 1 1 2 1 3 2 1
                                        3 2 1 3 2 1 3 2 1 3   2 1 3 1 2 4 1 3 1 2   4 1 3 1 2 4 1 3 1 2   4 1 3 1 2 4 1 3 2 1
                                        3 2 4 1 3 2 1 3 2 4   1 3 2 1 3 2 4 1 3 2   1 3 2 4 1 3 1 2 4 1   3 1 2 4 3 1 2 4 1 3
                                        1 2 4 3 1 2 4 1 3 1   2 4 3 2 1 3 2 4 1 3   1 3 2 4 2 1 3 2 4 1   3 1 3 2 4 1 1 1 1 1
                                        1 1 2 1 3 2 1 3 2 1   3 2 1 3 2 1 3 2 1 3   1 2 4 1 3 1 2 4 1 3   1 2 4 1 3 1 2 4 1 3
                                        1 2 4 1 3 2 1 3 2 4   1 3 2 1 3 2 4 1 3 2   1 3 2 4 1 3 2 1 3 2   4 1 3 1 2 4 1 3 1 2
                                        4 3 1 2 4 1 3 1 2 4   3 1 2 4 1 3 1 2 4 3   2 1 3 2 4 1 3 1 3 2   4 2 1 3 2 4 1 3 1 3
                                        2 4

 Eigenvalues of metric

         1 0.323E-05 0.433E-05 0.861E-05 0.994E-05 0.144E-04 0.254E-04 0.286E-04 0.378E-04


 OPERATOR DM      FOR CENTER  0  COORDINATES:    0.000000    0.000000    0.000000


 **********************************************************************************************************************************
 DATASETS  * FILE   NREC   LENGTH (MB)   RECORD NAMES
              1      19       48.88       500      610      700      900      950      970     1000      129      960     1100   
                                          VAR    BASINP    GEOM    SYMINP    ZMAT    AOBASIS   BASIS     P2S    ABASIS      S 
                                         1400     1410     1200     1210     1080     1600     1650     1700     1800   
                                           T        V       H0       H01     AOSYM     SMH    MOLCAS    OPER     GRID   

              2       5        9.46       700     1000      520     1800     2101   
                                         GEOM     BASIS   MCVARS    GRID      RKS  

 PROGRAMS   *        TOTAL       INT   RKS-SCF       INT
 CPU TIMES  *      1683.94      0.38   1682.81      0.53
 REAL TIME  *      1693.48 SEC
 DISK USED  *        96.22 MB (local),      769.75 MB (total)
 SF USED    *         4.44 MB
 GA USED    *         0.00 MB       (max)       0.00 MB       (current)
 **********************************************************************************************************************************


 Program * Restricted Kohn-Sham

 Density functional group PBE=PBEX+PBEC
 Functional: PBEX(Automatically generated (new) PBEX)                          Gradient terms: 1
 Functional: PBEC(Automatically generated (new) PBEC)                          Gradient terms: 1

 Functional: PBEX                   Factor:  1.0000
 Functional: PBEC                   Factor:  1.0000

 Radial grid threshold:                     5.0D-09
 Accuracy mode for quadrature:              DEFAULT
 Global grid threshold:                     1.0D-08
 Angular grid threshold:                    1.0D-09
 Fac_Neighbour:                                 4.0
 Size adjustment in partitioning scheme:   TREUTLER
 Skip grid points with weights lower than:  1.0D-20
 Grid orientation:                           T

 Generated new metagrid on record  1800.2 with target accuracy 1.0D-08 and 83808 points in CPU time    0.1
 Computed new grid on record 1800.1 in CPU time    0.2

 DFT orbital screening threshold (tolorb):   1.0D-09


 Integral-direct calculation

 Orbital guess generated from atomic densities. Full valence occupancy:   15

 Initial occupancy:  11

 NELEC=   22   SYM=1   MS2= 0   THRE=1.0D-09   THRD=1.0D-04   THRG=1.0D-04  HFMA2=F  DIIS_START=2   DIIS_MAX=10   DIIS_INCORE=F

 Level shifts:    0.00 (CLOSED)    0.00 (OPEN)    0.30 (GAP_MIN)

 ITER           ETOT              DE          GRAD        DDIFF     DIIS  NEXP   TIME(IT)  TIME(TOT)  DIAG
   1     -188.42089511    -188.42089511     0.00D+00     0.13D-01     0     0     194.18    198.91    start
   2     -188.24220285       0.17869226     0.36D-02     0.30D-02     1     0     186.20    385.11    diag
   3     -188.48878282      -0.24657997     0.68D-02     0.22D-02     2     0     182.72    567.83    diag
   4     -188.49130619      -0.00252336     0.61D-03     0.28D-03     3     0     172.90    740.73    diag
   5     -188.49136621      -0.00006003     0.96D-04     0.33D-04     4     0     162.25    902.98    diag
   6     -188.49136815      -0.00000194     0.19D-04     0.57D-05     5     0     143.40   1046.38    diag
   7     -188.49136817      -0.00000001     0.18D-05     0.55D-06     6     0     121.41   1167.79    diag
   8     -188.49136817       0.00000000     0.35D-06     0.25D-06     7     0      95.75   1263.54    fixocc
   9     -188.49136817      -0.00000000     0.58D-06     0.17D-06     8     0      89.82   1353.36    diag
  10     -188.49136817       0.00000000     0.16D-07     0.51D-08     9     0      64.32   1417.68    diag/orth
  11     -188.49136817       0.00000000     0.63D-09     0.13D-08     0     0      45.14   1462.82    diag

 Final occupancy:  11

 !RKS STATE 1.1 Energy               -188.491368168001
  RKS One-electron energy            -371.973541979263
  RKS Two-electron energy             147.949529678487
  RKS Kinetic energy                  187.839834652591
  RKS Nuclear energy                   57.882007652906
  RKS Virial quotient                  -1.003468558821
 Density functional                   -22.34936352     PBEX=-21.61108393 PBEC= -0.73827959

 !RKS STATE 1.1 Dipole moment           0.00000000     0.00001804    -0.00000000
 Dipole moment /Debye                   0.00000000     0.00004585    -0.00000000

 Orbital energies:

           1.1          2.1          3.1          4.1          5.1          6.1          7.1          8.1          9.1         10.1
    -18.832436   -18.832435   -10.062116    -1.068894    -1.031985    -0.508574    -0.466488    -0.465946    -0.465946    -0.333740

          11.1         12.1         13.1
     -0.333740    -0.034963    -0.017836


 HOMO     11.1    -0.333740 =      -9.0815eV
 LUMO     12.1    -0.034963 =      -0.9514eV
 LUMO-HOMO         0.298777 =       8.1301eV

 Orbitals saved in record  2201.2


 **********************************************************************************************************************************
 DATASETS  * FILE   NREC   LENGTH (MB)   RECORD NAMES
              1      19       48.88       500      610      700      900      950      970     1000      129      960     1100   
                                          VAR    BASINP    GEOM    SYMINP    ZMAT    AOBASIS   BASIS     P2S    ABASIS      S 
                                         1400     1410     1200     1210     1080     1600     1650     1700     1800   
                                           T        V       H0       H01     AOSYM     SMH    MOLCAS    OPER     GRID   

              2       6       25.09       700     1000      520     1800     2101     2201   
                                         GEOM     BASIS   MCVARS    GRID      RKS      RKS  

              4       2        4.44      8000     8001   

 PROGRAMS   *        TOTAL   RKS-SCF       INT   RKS-SCF       INT
 CPU TIMES  *      3147.10   1463.15      0.38   1682.81      0.53
 REAL TIME  *      3163.97 SEC
 DISK USED  *       114.07 MB (local),      912.56 MB (total)
 SF USED    *         6.99 MB
 GA USED    *         0.00 MB       (max)       0.00 MB       (current)
 **********************************************************************************************************************************
 SETTING EA_PBE         =      -188.49136817  AU                              

 Dummy atoms: C1  O1  O4


 Recomputing one-electron integrals since nuclear charges changed


 PROGRAM * SEWARD (Integral evaluation for generally contracted gaussian basis sets)     Author: Roland Lindh, 1990

 Geometry written to block  1 of record 700


 Point group  C1  



 ATOMIC COORDINATES

 NR  ATOM    CHARGE       X              Y              Z

   1  C1      0.00    0.000000000    0.107687933    0.000000000
   2  O1      0.00    0.000000000    2.319083238    0.000000000
   3  O2      8.00    0.000000000   10.255932962    0.000000000
   4  C2      6.00    0.000000000   12.467328267    0.000000000
   5  O3      8.00    0.000000000   14.678723573    0.000000000
   6  O4      0.00    0.000000000   -2.103707373    0.000000000

 Bond lengths in Bohr (Angstrom)

 1-2  2.211395306  1-6  2.211395306  3-4  2.211395306  4-5  2.211395306
     ( 1.170220000)     ( 1.170220000)     ( 1.170220000)     ( 1.170220000)

 Bond angles

  2-1-6  180.00000000   3-4-5  180.00000000

 NUCLEAR CHARGE:                   22
 NUMBER OF PRIMITIVE AOS:        1194
 NUMBER OF SYMMETRY AOS:          864
 NUMBER OF CONTRACTIONS:          762   (  762A   )
 NUMBER OF INNER CORE ORBITALS:     0   (    0A   )
 NUMBER OF OUTER CORE ORBITALS:     3   (    3A   )
 NUMBER OF VALENCE ORBITALS:       12   (   12A   )

 MOLECULE CHANGED: INITIALIZING OCCUPATION AND DUMP RECORDS


 NUCLEAR REPULSION ENERGY   57.88200765

 EXTRA SYMMETRY OF AOS IN SYMMETRY 1:   1 1 1 1 1 1 1 2 1 3   2 1 3 2 1 3 2 1 3 2   1 3 2 1 3 1 2 4 1 3   1 2 4 1 3 1 2 4 1 3
                                        1 2 4 1 3 1 2 4 1 3   2 1 3 2 4 1 3 2 1 3   2 4 1 3 2 1 3 2 4 1   3 2 1 3 2 4 1 3 1 2
                                        4 1 3 1 2 4 3 1 2 4   1 3 1 2 4 3 1 2 4 1   3 1 2 4 3 2 1 3 2 4   1 3 1 3 2 4 2 1 3 2
                                        4 1 3 1 3 2 4 1 1 1   1 1 1 1 2 1 3 2 1 3   2 1 3 2 1 3 2 1 3 2   1 3 1 2 4 1 3 1 2 4
                                        1 3 1 2 4 1 3 1 2 4   1 3 1 2 4 1 3 2 1 3   2 4 1 3 2 1 3 2 4 1   3 2 1 3 2 4 1 3 2 1
                                        3 2 4 1 3 1 2 4 1 3   1 2 4 3 1 2 4 1 3 1   2 4 3 1 2 4 1 3 1 2   4 3 2 1 3 2 4 1 3 1
                                        3 2 4 2 1 3 2 4 1 3   1 3 2 4 1 1 1 1 1 1   1 2 1 3 2 1 3 2 1 3   2 1 3 2 1 3 2 1 3 1
                                        2 4 1 3 1 2 4 1 3 1   2 4 1 3 1 2 4 1 3 1   2 4 1 3 2 1 3 2 4 1   3 2 1 3 2 4 1 3 2 1
                                        3 2 4 1 3 2 1 3 2 4   1 3 1 2 4 1 3 1 2 4   3 1 2 4 1 3 1 2 4 3   1 2 4 1 3 1 2 4 3 2
                                        1 3 2 4 1 3 1 3 2 4   2 1 3 2 4 1 3 1 3 2   4 1 1 1 1 1 1 1 2 1   3 2 1 3 2 1 3 2 1 3
                                        2 1 3 2 1 3 1 2 4 1   3 1 2 4 1 3 1 2 4 1   3 1 2 4 1 3 1 2 4 1   3 2 1 3 2 4 1 3 2 1
                                        3 2 4 1 3 2 1 3 2 4   1 3 2 1 3 2 4 1 3 1   2 4 1 3 1 2 4 3 1 2   4 1 3 1 2 4 3 1 2 4
                                        1 3 1 2 4 3 2 1 3 2   4 1 3 1 3 2 4 2 1 3   2 4 1 3 1 3 2 4 1 1   1 1 1 1 1 2 1 3 2 1
                                        3 2 1 3 2 1 3 2 1 3   2 1 3 1 2 4 1 3 1 2   4 1 3 1 2 4 1 3 1 2   4 1 3 1 2 4 1 3 2 1
                                        3 2 4 1 3 2 1 3 2 4   1 3 2 1 3 2 4 1 3 2   1 3 2 4 1 3 1 2 4 1   3 1 2 4 3 1 2 4 1 3
                                        1 2 4 3 1 2 4 1 3 1   2 4 3 2 1 3 2 4 1 3   1 3 2 4 2 1 3 2 4 1   3 1 3 2 4 1 1 1 1 1
                                        1 1 2 1 3 2 1 3 2 1   3 2 1 3 2 1 3 2 1 3   1 2 4 1 3 1 2 4 1 3   1 2 4 1 3 1 2 4 1 3
                                        1 2 4 1 3 2 1 3 2 4   1 3 2 1 3 2 4 1 3 2   1 3 2 4 1 3 2 1 3 2   4 1 3 1 2 4 1 3 1 2
                                        4 3 1 2 4 1 3 1 2 4   3 1 2 4 1 3 1 2 4 3   2 1 3 2 4 1 3 1 3 2   4 2 1 3 2 4 1 3 1 3
                                        2 4

 Eigenvalues of metric

         1 0.323E-05 0.433E-05 0.861E-05 0.994E-05 0.144E-04 0.254E-04 0.286E-04 0.378E-04


 OPERATOR DM      FOR CENTER  0  COORDINATES:    0.000000    0.000000    0.000000


 **********************************************************************************************************************************
 DATASETS  * FILE   NREC   LENGTH (MB)   RECORD NAMES
              1      19       48.88       500      610      700      900      950      970     1000      129      960     1100   
                                          VAR    BASINP    GEOM    SYMINP    ZMAT    AOBASIS   BASIS     P2S    ABASIS      S 
                                         1400     1410     1200     1210     1080     1600     1650     1700     1800   
                                           T        V       H0       H01     AOSYM     SMH    MOLCAS    OPER     GRID   

              2       6       25.09       700     1000      520     1800     2101     2201   
                                         GEOM     BASIS   MCVARS    GRID      RKS      RKS  

 PROGRAMS   *        TOTAL       INT   RKS-SCF       INT   RKS-SCF       INT
 CPU TIMES  *      3147.46      0.35   1463.15      0.38   1682.81      0.53
 REAL TIME  *      3164.41 SEC
 DISK USED  *       114.07 MB (local),      912.56 MB (total)
 SF USED    *         6.99 MB
 GA USED    *         0.00 MB       (max)       0.00 MB       (current)
 **********************************************************************************************************************************


 Program * Restricted Kohn-Sham

 Density functional group PBE=PBEX+PBEC
 Functional: PBEX(Automatically generated (new) PBEX)                          Gradient terms: 1
 Functional: PBEC(Automatically generated (new) PBEC)                          Gradient terms: 1

 Functional: PBEX                   Factor:  1.0000
 Functional: PBEC                   Factor:  1.0000

 Radial grid threshold:                     5.0D-09
 Accuracy mode for quadrature:              DEFAULT
 Global grid threshold:                     1.0D-08
 Angular grid threshold:                    1.0D-09
 Fac_Neighbour:                                 4.0
 Size adjustment in partitioning scheme:   TREUTLER
 Skip grid points with weights lower than:  1.0D-20
 Grid orientation:                           T


 DFT orbital screening threshold (tolorb):   1.0D-09


 Integral-direct calculation

 Orbital guess generated from atomic densities. Full valence occupancy:   15

 Initial occupancy:  11

 NELEC=   22   SYM=1   MS2= 0   THRE=1.0D-09   THRD=1.0D-04   THRG=1.0D-04  HFMA2=F  DIIS_START=2   DIIS_MAX=10   DIIS_INCORE=F

 Level shifts:    0.00 (CLOSED)    0.00 (OPEN)    0.30 (GAP_MIN)

 ITER           ETOT              DE          GRAD        DDIFF     DIIS  NEXP   TIME(IT)  TIME(TOT)  DIAG
   1     -188.42089512    -188.42089512     0.00D+00     0.13D-01     0     0     194.23    198.75    start
   2     -188.24220286       0.17869226     0.36D-02     0.30D-02     1     0     186.70    385.45    diag
   3     -188.48878283      -0.24657996     0.68D-02     0.22D-02     2     0     183.28    568.73    diag
   4     -188.49130619      -0.00252336     0.61D-03     0.28D-03     3     0     173.09    741.82    diag
   5     -188.49136621      -0.00006003     0.96D-04     0.33D-04     4     0     162.14    903.96    diag
   6     -188.49136816      -0.00000194     0.19D-04     0.57D-05     5     0     142.58   1046.54    diag
   7     -188.49136817      -0.00000001     0.18D-05     0.55D-06     6     0     121.52   1168.06    diag
   8     -188.49136817       0.00000000     0.35D-06     0.25D-06     7     0      95.02   1263.08    fixocc
   9     -188.49136817      -0.00000000     0.58D-06     0.17D-06     8     0      89.39   1352.47    diag
  10     -188.49136817       0.00000000     0.16D-07     0.51D-08     9     0      63.66   1416.13    diag/orth
  11     -188.49136817       0.00000000     0.63D-09     0.12D-08     0     0      44.28   1460.41    diag

 Final occupancy:  11

 !RKS STATE 1.1 Energy               -188.491368169318
  RKS One-electron energy            -371.973541962331
  RKS Two-electron energy             147.949529659482
  RKS Kinetic energy                  187.839834648427
  RKS Nuclear energy                   57.882007652906
  RKS Virial quotient                  -1.003468558850
 Density functional                   -22.34936352     PBEX=-21.61108393 PBEC= -0.73827959

 !RKS STATE 1.1 Dipole moment          -0.00000000    -0.00001802    -0.00000000
 Dipole moment /Debye                  -0.00000000    -0.00004581    -0.00000000

 Orbital energies:

           1.1          2.1          3.1          4.1          5.1          6.1          7.1          8.1          9.1         10.1
    -18.832436   -18.832435   -10.062116    -1.068894    -1.031985    -0.508574    -0.466488    -0.465946    -0.465946    -0.333740

          11.1         12.1         13.1
     -0.333740    -0.034963    -0.017836


 HOMO     11.1    -0.333740 =      -9.0815eV
 LUMO     12.1    -0.034963 =      -0.9514eV
 LUMO-HOMO         0.298777 =       8.1301eV

 Orbitals saved in record  2301.2


 **********************************************************************************************************************************
 DATASETS  * FILE   NREC   LENGTH (MB)   RECORD NAMES
              1      19       48.88       500      610      700      900      950      970     1000      129      960     1100   
                                          VAR    BASINP    GEOM    SYMINP    ZMAT    AOBASIS   BASIS     P2S    ABASIS      S 
                                         1400     1410     1200     1210     1080     1600     1650     1700     1800   
                                           T        V       H0       H01     AOSYM     SMH    MOLCAS    OPER     GRID   

              2       7       40.73       700     1000      520     1800     2101     2201     2301   
                                         GEOM     BASIS   MCVARS    GRID      RKS      RKS      RKS  

              4       2        4.44      8000     8001   

 PROGRAMS   *        TOTAL   RKS-SCF       INT   RKS-SCF       INT   RKS-SCF       INT
 CPU TIMES  *      4608.02   1460.55      0.35   1463.15      0.38   1682.81      0.53
 REAL TIME  *      4632.31 SEC
 DISK USED  *       129.70 MB (local),        1.01 GB (total)
 SF USED    *         6.99 MB
 GA USED    *         0.00 MB       (max)       0.00 MB       (current)
 **********************************************************************************************************************************
 SETTING EB_PBE         =      -188.49136817  AU                              
 SETTING E_AB_INT       =         0.00012913  AU                              

 *** results in hartree
 E_AB_INT         =         0.00012913 AU

 RPBE/aug-cc-pV5Z energy=   -188.491368169318

         RKS-SCF         RKS-SCF         RKS-SCF
   -188.49136817   -188.49136817   -376.98260721
 **********************************************************************************************************************************
 Molpro calculation terminated
