 vasp.6.1.2 22Jul20 (build Jan  6 2021 09:55:43) gamma-only                      
 executed on             LinuxPGI date 2021.03.01  17:51:53
 running on   32 total cores
 distrk:  each k-point on   32 cores,    1 groups
 distr:  one band on NCORE=   8 cores,    4 groups


--------------------------------------------------------------------------------------------------------


 INCAR:
 POTCAR:    PAW_PBE H 15Jun2001                   
 POTCAR:    PAW_PBE C 08Apr2002                   
 POTCAR:    PAW_PBE O 08Apr2002                   
 POTCAR:    PAW_PBE H 15Jun2001                   
   VRHFIN =H: ultrasoft test                                                                        
   LEXCH  = PE                                                                                      
   EATOM  =    12.4884 eV,    0.9179 Ry                                                             
                                                                                                    
   TITEL  = PAW_PBE H 15Jun2001                                                                     
   LULTRA =        F    use ultrasoft PP ?                                                          
   IUNSCR =        0    unscreen: 0-lin 1-nonlin 2-no                                               
   RPACOR =    0.000    partial core radius                                                         
   POMASS =    1.000; ZVAL   =    1.000    mass and valenz                                          
   RCORE  =    1.100    outmost cutoff radius                                                       
   RWIGS  =    0.700; RWIGS  =    0.370    wigner-seitz radius (au A)                               
   ENMAX  =  250.000; ENMIN  =  200.000 eV                                                          
   RCLOC  =    0.701    cutoff for local pot                                                        
   LCOR   =        T    correct aug charges                                                         
   LPAW   =        T    paw PP                                                                      
   EAUG   =  400.000                                                                                
   RMAX   =    1.123    core radius for proj-oper                                                   
   RAUG   =    1.200    factor for augmentation sphere                                              
   RDEP   =    1.112    radius for radial grids                                                     
   RDEPT  =    0.926    core radius for aug-charge                                                  
                                                                                                    
   Atomic configuration                                                                             
    2 entries                                                                                       
     n  l   j            E        occ.                                                              
     1  0  0.50        -6.4927   1.0000                                                             
     2  1  0.50        -3.4015   0.0000                                                             
   Description                                                                                      
     l       E           TYP  RCUT    TYP  RCUT                                                     
     0     -6.4927494     23  1.100                                                                 
     0      6.8029130     23  1.100                                                                 
     1     -4.0817478     23  1.100                                                                 
  local pseudopotential read in
  atomic valenz-charges read in
  non local Contribution for L=            0  read in
    real space projection operators read in
  non local Contribution for L=            0  read in
    real space projection operators read in
  non local Contribution for L=            1  read in
    real space projection operators read in
    PAW grid and wavefunctions read in
 
   number of l-projection  operators is LMAX  =            3
   number of lm-projection operators is LMMAX =            5
 
 POTCAR:    PAW_PBE C 08Apr2002                   
   VRHFIN =C: s2p2                                                                                  
   LEXCH  = PE                                                                                      
   EATOM  =   147.1560 eV,   10.8157 Ry                                                             
                                                                                                    
   TITEL  = PAW_PBE C 08Apr2002                                                                     
   LULTRA =        F    use ultrasoft PP ?                                                          
   IUNSCR =        1    unscreen: 0-lin 1-nonlin 2-no                                               
   RPACOR =    1.200    partial core radius                                                         
   POMASS =   12.011; ZVAL   =    4.000    mass and valenz                                          
   RCORE  =    1.500    outmost cutoff radius                                                       
   RWIGS  =    1.630; RWIGS  =    0.863    wigner-seitz radius (au A)                               
   ENMAX  =  400.000; ENMIN  =  300.000 eV                                                          
   ICORE  =        2    local potential                                                             
   LCOR   =        T    correct aug charges                                                         
   LPAW   =        T    paw PP                                                                      
   EAUG   =  644.873                                                                                
   DEXC   =    0.000                                                                                
   RMAX   =    1.529    core radius for proj-oper                                                   
   RAUG   =    1.300    factor for augmentation sphere                                              
   RDEP   =    1.501    radius for radial grids                                                     
   RDEPT  =    1.300    core radius for aug-charge                                                  
                                                                                                    
   Atomic configuration                                                                             
    4 entries                                                                                       
     n  l   j            E        occ.                                                              
     1  0  0.50      -273.3789   2.0000                                                             
     2  0  0.50       -13.7508   2.0000                                                             
     2  1  0.50        -5.2854   2.0000                                                             
     3  2  1.50        -5.4423   0.0000                                                             
   Description                                                                                      
     l       E           TYP  RCUT    TYP  RCUT                                                     
     0    -13.7508458     23  1.200                                                                 
     0     -8.2022199     23  1.200                                                                 
     1     -5.2854383     23  1.500                                                                 
     1     34.0145650     23  1.500                                                                 
     2     -5.4423304      7  1.500                                                                 
  local pseudopotential read in
  partial core-charges read in
  partial kinetic energy density read in
  atomic valenz-charges read in
  non local Contribution for L=            0  read in
    real space projection operators read in
  non local Contribution for L=            0  read in
    real space projection operators read in
  non local Contribution for L=            1  read in
    real space projection operators read in
  non local Contribution for L=            1  read in
    real space projection operators read in
    PAW grid and wavefunctions read in
 
   number of l-projection  operators is LMAX  =            4
   number of lm-projection operators is LMMAX =            8
 
 POTCAR:    PAW_PBE O 08Apr2002                   
   VRHFIN =O: s2p4                                                                                  
   LEXCH  = PE                                                                                      
   EATOM  =   432.3788 eV,   31.7789 Ry                                                             
                                                                                                    
   TITEL  = PAW_PBE O 08Apr2002                                                                     
   LULTRA =        F    use ultrasoft PP ?                                                          
   IUNSCR =        1    unscreen: 0-lin 1-nonlin 2-no                                               
   RPACOR =    1.200    partial core radius                                                         
   POMASS =   16.000; ZVAL   =    6.000    mass and valenz                                          
   RCORE  =    1.520    outmost cutoff radius                                                       
   RWIGS  =    1.550; RWIGS  =    0.820    wigner-seitz radius (au A)                               
   ENMAX  =  400.000; ENMIN  =  300.000 eV                                                          
   ICORE  =        2    local potential                                                             
   LCOR   =        T    correct aug charges                                                         
   LPAW   =        T    paw PP                                                                      
   EAUG   =  605.392                                                                                
   DEXC   =    0.000                                                                                
   RMAX   =    1.553    core radius for proj-oper                                                   
   RAUG   =    1.300    factor for augmentation sphere                                              
   RDEP   =    1.550    radius for radial grids                                                     
   RDEPT  =    1.329    core radius for aug-charge                                                  
                                                                                                    
   Atomic configuration                                                                             
    4 entries                                                                                       
     n  l   j            E        occ.                                                              
     1  0  0.50      -514.6923   2.0000                                                             
     2  0  0.50       -23.9615   2.0000                                                             
     2  1  0.50        -9.0305   4.0000                                                             
     3  2  1.50        -9.5241   0.0000                                                             
   Description                                                                                      
     l       E           TYP  RCUT    TYP  RCUT                                                     
     0    -23.9615318     23  1.200                                                                 
     0     -9.5240782     23  1.200                                                                 
     1     -9.0304911     23  1.520                                                                 
     1      8.1634956     23  1.520                                                                 
     2     -9.5240782      7  1.500                                                                 
  local pseudopotential read in
  partial core-charges read in
  partial kinetic energy density read in
  kinetic energy density of atom read in
  atomic valenz-charges read in
  non local Contribution for L=            0  read in
    real space projection operators read in
  non local Contribution for L=            0  read in
    real space projection operators read in
  non local Contribution for L=            1  read in
    real space projection operators read in
  non local Contribution for L=            1  read in
    real space projection operators read in
    PAW grid and wavefunctions read in
 
   number of l-projection  operators is LMAX  =            4
   number of lm-projection operators is LMMAX =            8
 
  PAW_PBE H 15Jun2001                   :
 energy of atom  1       EATOM=  -12.4884
 kinetic energy error for atom=    0.0000 (will be added to EATOM!!)
  PAW_PBE C 08Apr2002                   :
 energy of atom  2       EATOM= -147.1560
 kinetic energy error for atom=    0.0002 (will be added to EATOM!!)
  PAW_PBE O 08Apr2002                   :
 energy of atom  3       EATOM= -432.3788
 kinetic energy error for atom=    0.0005 (will be added to EATOM!!)
 
 
 POSCAR:  H  C  O
  positions in cartesian coordinates
  No initial velocities read in
 exchange correlation table for  LEXCH =        8
   RHO(1)=    0.500       N(1)  =     2000
   RHO(2)=  100.500       N(2)  =     4000
 


--------------------------------------------------------------------------------------------------------


 ion  position               nearest neighbor table
   1  0.001  0.050  0.973-   4 0.96
   2  0.000  0.084  1.000-   4 0.96
   3  0.001  0.251  1.000-   5 1.14
   4  0.000  0.056  0.000-   2 0.96   1 0.96
   5  0.000  0.218  1.000-   3 1.14
 
  LATTYP: Found a simple cubic cell.
 ALAT       =    35.0000000000
  
  Lattice vectors:
  
 A1 = (  35.0000000000,   0.0000000000,   0.0000000000)
 A2 = (   0.0000000000,  35.0000000000,   0.0000000000)
 A3 = (   0.0000000000,   0.0000000000,  35.0000000000)


Analysis of symmetry for initial positions (statically):
=====================================================================
 Subroutine PRICEL returns:
 Original cell was already a primitive cell.
 

 Routine SETGRP: Setting up the symmetry group for a 
 simple cubic supercell.


 Subroutine GETGRP returns: Found  1 space group operations
 (whereof  1 operations were pure point group operations)
 out of a pool of 48 trial point group operations.


The static configuration has the point symmetry C_1 .


Analysis of symmetry for dynamics (positions and initial velocities):
=====================================================================
 Subroutine PRICEL returns:
 Original cell was already a primitive cell.
 

 Routine SETGRP: Setting up the symmetry group for a 
 simple cubic supercell.


 Subroutine GETGRP returns: Found  1 space group operations
 (whereof  1 operations were pure point group operations)
 out of a pool of 48 trial point group operations.


The dynamic configuration has the point symmetry C_1 .


 Subroutine INISYM returns: Found  1 space group operations
 (whereof  1 operations are pure point group operations),
 and found     1 'primitive' translations


----------------------------------------------------------------------------------------

                                     Primitive cell                                     

  volume of cell :   42875.0000

  direct lattice vectors                    reciprocal lattice vectors
    35.000000000  0.000000000  0.000000000     0.028571429  0.000000000  0.000000000
     0.000000000 35.000000000  0.000000000     0.000000000  0.028571429  0.000000000
     0.000000000  0.000000000 35.000000000     0.000000000  0.000000000  0.028571429

  length of vectors
    35.000000000 35.000000000 35.000000000     0.028571429  0.028571429  0.028571429

  position of ions in fractional coordinates (direct lattice)
     0.000785426  0.049745327  0.973385225
     0.000340417  0.083957172  0.999957468
     0.000845402  0.250778191  0.999904630
     0.000000000  0.056491600  0.000000000
     0.000228949  0.218242666  0.999969134

  ion indices of the primitive-cell ions
   primitive index   ion index
                 1           1
                 2           2
                 3           3
                 4           4
                 5           5

----------------------------------------------------------------------------------------

 
 
 KPOINTS: automatic mesh                          

Automatic generation of k-mesh.
Space group operators:
 irot       det(A)        alpha          n_x          n_y          n_z        tau_x        tau_y        tau_z
    1     1.000000     0.000000     1.000000     0.000000     0.000000     0.000000     0.000000     0.000000
 
 Subroutine IBZKPT returns following result:
 ===========================================
 
 Found      1 irreducible k-points:
 
 Following reciprocal coordinates:
            Coordinates               Weight
  0.000000  0.000000  0.000000      1.000000
 
 Following cartesian coordinates:
            Coordinates               Weight
  0.000000  0.000000  0.000000      1.000000
 


--------------------------------------------------------------------------------------------------------




 Dimension of arrays:
   k-points           NKPTS =      1   k-points in BZ     NKDIM =      1   number of bands    NBANDS=     16
   number of dos      NEDOS =    301   number of ions     NIONS =      5
   non local maximal  LDIM  =      4   non local SUM 2l+1 LMDIM =      8
   total plane-waves  NPLWV = ******
   max r-space proj   IRMAX =      1   max aug-charges    IRDMAX=  33660
   dimension x,y,z NGX =   480 NGY =  480 NGZ =  480
   dimension x,y,z NGXF=   960 NGYF=  960 NGZF=  960
   support grid    NGXF=   960 NGYF=  960 NGZF=  960
   ions per type =               2   1   2
   NGX,Y,Z   is equivalent  to a cutoff of  22.80, 22.80, 22.80 a.u.
   NGXF,Y,Z  is equivalent  to a cutoff of  45.60, 45.60, 45.60 a.u.

 SYSTEM =  C                                       
 POSCAR =   H  C  O                                

 Startparameter for this run:
   NWRITE =      2    write-flag & timer
   PREC   = acc       normal or accurate (medium, high low for compatibility)
   ISTART =      0    job   : 0-new  1-cont  2-samecut
   ICHARG =      2    charge: 1-file 2-atom 10-const
   ISPIN  =      1    spin polarized calculation?
   LNONCOLLINEAR =      F non collinear calculations
   LSORBIT =      F    spin-orbit coupling
   INIWAV =      1    electr: 0-lowe 1-rand  2-diag
   LASPH  =      T    aspherical Exc in radial PAW
   METAGGA=      F    non-selfconsistent MetaGGA calc.

 Electronic Relaxation 1
   ENCUT  = 1600.0 eV 117.60 Ry   10.84 a.u. 114.15114.15114.15*2*pi/ulx,y,z
   ENINI  = 1600.0     initial cutoff
   ENAUG  =  644.9 eV  augmentation charge cutoff
   NELM   =     60;   NELMIN=  2; NELMDL= -5     # of ELM steps 
   EDIFF  = 0.1E-06   stopping-criterion for ELM
   LREAL  =      F    real-space projection
   NLSPLINE    = F    spline interpolate recip. space projectors
   LCOMPAT=      F    compatible to vasp.4.4
   GGA_COMPAT  = T    GGA compatible to vasp.4.4-vasp.4.6
   LMAXPAW     = -100 max onsite density
   LMAXMIX     =    2 max onsite mixed and CHGCAR
   VOSKOWN=      0    Vosko Wilk Nusair interpolation
   ROPT   =    0.00000   0.00000   0.00000
 Ionic relaxation
   EDIFFG = 0.1E-05   stopping-criterion for IOM
   NSW    =      0    number of steps for IOM
   NBLOCK =      1;   KBLOCK =      1    inner block; outer block 
   IBRION =     -1    ionic relax: 0-MD 1-quasi-New 2-CG
   NFREE  =      0    steps in history (QN), initial steepest desc. (CG)
   ISIF   =      2    stress and relaxation
   IWAVPR =     10    prediction:  0-non 1-charg 2-wave 3-comb
   ISYM   =      2    0-nonsym 1-usesym 2-fastsym
   LCORR  =      T    Harris-Foulkes like correction to forces

   POTIM  = 0.5000    time-step for ionic-motion
   TEIN   =    0.0    initial temperature
   TEBEG  =    0.0;   TEEND  =   0.0 temperature during run
   SMASS  =  -3.00    Nose mass-parameter (am)
   estimated Nose-frequenzy (Omega)   =  0.10E-29 period in steps = 0.13E+47 mass=  -0.280E-25a.u.
   SCALEE = 1.0000    scale energy and forces
   NPACO  =    256;   APACO  = 16.0  distance and # of slots for P.C.
   PSTRESS=    0.0 pullay stress

  Mass of Ions in am
   POMASS =   1.00 12.01 16.00
  Ionic Valenz
   ZVAL   =   1.00  4.00  6.00
  Atomic Wigner-Seitz radii
   RWIGS  =  -1.00 -1.00 -1.00
  virtual crystal weights 
   VCA    =   1.00  1.00  1.00
   NELECT =      18.0000    total number of electrons
   NUPDOWN=      -1.0000    fix difference up-down

 DOS related values:
   EMIN   =  10.00;   EMAX   =-10.00  energy-range for DOS
   EFERMI =   0.00
   ISMEAR =     0;   SIGMA  =   0.01  broadening in eV -4-tet -1-fermi 0-gaus

 Electronic relaxation 2 (details)
   IALGO  =     38    algorithm
   LDIAG  =      T    sub-space diagonalisation (order eigenvalues)
   LSUBROT=      F    optimize rotation matrix (better conditioning)
   TURBO    =      0    0=normal 1=particle mesh
   IRESTART =      0    0=no restart 2=restart with 2 vectors
   NREBOOT  =      0    no. of reboots
   NMIN     =      0    reboot dimension
   EREF     =   0.00    reference energy to select bands
   IMIX   =      4    mixing-type and parameters
     AMIX     =   0.40;   BMIX     =  1.00
     AMIX_MAG =   1.60;   BMIX_MAG =  1.00
     AMIN     =   0.10
     WC   =   100.;   INIMIX=   1;  MIXPRE=   1;  MAXMIX= -45

 Intra band minimization:
   WEIMIN = 0.0000     energy-eigenvalue tresh-hold
   EBREAK =  0.16E-08  absolut break condition
   DEPER  =   0.30     relativ break condition  

   TIME   =   0.40     timestep for ELM

  volume/ion in A,a.u.               =    8575.00     57866.96
  Fermi-wavevector in a.u.,A,eV,Ry     =   0.122583  0.231649  0.204450  0.015027
  Thomas-Fermi vector in A             =   0.746568
 
 Write flags
   LWAVE        =      T    write WAVECAR
   LDOWNSAMPLE  =      F    k-point downsampling of WAVECAR
   LCHARG       =      T    write CHGCAR
   LVTOT        =      F    write LOCPOT, total local potential
   LVHAR        =      F    write LOCPOT, Hartree potential only
   LELF         =      F    write electronic localiz. function (ELF)
   LORBIT       =      0    0 simple, 1 ext, 2 COOP (PROOUT), +10 PAW based schemes


 Dipole corrections
   LMONO  =      F    monopole corrections only (constant potential shift)
   LDIPOL =      F    correct potential (dipole corrections)
   IDIPOL =      4    1-x, 2-y, 3-z, 4-all directions 
   EPSILON=  1.0000000 bulk dielectric constant

 Exchange correlation treatment:
   GGA     =    --    GGA type
   LEXCH   =     8    internal setting for exchange type
   VOSKOWN=      0    Vosko Wilk Nusair interpolation
   LHFCALC =     F    Hartree Fock is set to
   LHFONE  =     F    Hartree Fock one center treatment
   AEXX    =    0.0000 exact exchange contribution

 Linear response parameters
   LEPSILON=     F    determine dielectric tensor
   LRPA    =     F    only Hartree local field effects (RPA)
   LNABLA  =     F    use nabla operator in PAW spheres
   LVEL    =     F    velocity operator in full k-point grid
   LINTERFAST=   F  fast interpolation
   KINTER  =     0    interpolate to denser k-point grid
   CSHIFT  =0.1000    complex shift for real part using Kramers Kronig
   OMEGAMAX=  -1.0    maximum frequency
   DEG_THRESHOLD= 0.2000000E-02 threshold for treating states as degnerate
   RTIME   =   -0.100 relaxation time in fs
  (WPLASMAI=    0.000 imaginary part of plasma frequency in eV, 0.658/RTIME)
   DFIELD  = 0.0000000 0.0000000 0.0000000 field for delta impulse in time
 
 Orbital magnetization related:
   ORBITALMAG=     F  switch on orbital magnetization
   LCHIMAG   =     F  perturbation theory with respect to B field
   DQ        =  0.001000  dq finite difference perturbation B field
   LLRAUG    =     F  two centre corrections for induced B field



--------------------------------------------------------------------------------------------------------


 Static calculation
 charge density and potential will be updated during run
 non-spin polarized calculation
 Variant of blocked Davidson
 Davidson routine will perform the subspace rotation
 perform sub-space diagonalisation
    after iterative eigenvector-optimisation
 modified Broyden-mixing scheme, WC =      100.0
 initial mixing is a Kerker type mixing with AMIX =  0.4000 and BMIX =      1.0000
 Hartree-type preconditioning will be used
 using additional bands             7
 reciprocal scheme for non local part
 use partial core corrections
 calculate Harris-corrections to forces 
   (improved forces if not selfconsistent)
 use gradient corrections 
 use of overlap-Matrix (Vanderbilt PP)
 Gauss-broadening in eV      SIGMA  =   0.01


--------------------------------------------------------------------------------------------------------


  energy-cutoff  :     1600.00
  volume of cell :    42875.00
      direct lattice vectors                 reciprocal lattice vectors
    35.000000000  0.000000000  0.000000000     0.028571429  0.000000000  0.000000000
     0.000000000 35.000000000  0.000000000     0.000000000  0.028571429  0.000000000
     0.000000000  0.000000000 35.000000000     0.000000000  0.000000000  0.028571429

  length of vectors
    35.000000000 35.000000000 35.000000000     0.028571429  0.028571429  0.028571429


 
 k-points in units of 2pi/SCALE and weight: automatic mesh                          
   0.00000000  0.00000000  0.00000000       1.000
 
 k-points in reciprocal lattice and weights: automatic mesh                          
   0.00000000  0.00000000  0.00000000       1.000
 
 position of ions in fractional coordinates (direct lattice) 
   0.00078543  0.04974533  0.97338523
   0.00034042  0.08395717  0.99995747
   0.00084540  0.25077819  0.99990463
   0.00000000  0.05649160  0.00000000
   0.00022895  0.21824267  0.99996913
 
 position of ions in cartesian coordinates  (Angst):
   0.02748992  1.74108643 34.06848289
   0.01191459  2.93850101 34.99851139
   0.02958908  8.77723670 34.99666206
   0.00000000  1.97720600  0.00000000
   0.00801323  7.63849332 34.99891970
 


--------------------------------------------------------------------------------------------------------


 use parallel FFT for orbitals z direction half grid
 k-point   1 :   0.0000 0.0000 0.0000  plane waves: 3115599

 maximum and minimum number of plane-waves per node :    389462   389421

 maximum number of plane-waves:   3115599
 maximum index in each direction: 
   IXMAX=  114   IYMAX=  114   IZMAX=  114
   IXMIN= -114   IYMIN= -114   IZMIN=    0


 parallel 3D FFT for wavefunctions:
    minimum data exchange during FFTs selected (reduces bandwidth)
 parallel 3D FFT for charge:
    minimum data exchange during FFTs selected (reduces bandwidth)


 total amount of memory used by VASP MPI-rank0  3701731. kBytes
=======================================================================

   base      :      30000. kBytes
   nonl-proj :     105923. kBytes
   fftplans  :    1215227. kBytes
   grid      :    2325657. kBytes
   one-center:          1. kBytes
   wavefun   :      24923. kBytes
 
     INWAV:  cpu time    0.0000: real time    0.0000
 Broyden mixing: mesh for mixing (old mesh)
   NGX =229   NGY =229   NGZ =229
  (NGX  =960   NGY  =960   NGZ  =960)
  gives a total of ****** points

 initial charge density was supplied:
 charge density of overlapping atoms calculated
 number of electron      18.0000000 magnetization 
 keeping initial charge density in first step


--------------------------------------------------------------------------------------------------------


 Maximum index for augmentation-charges          1233 (set IRDMAX)


--------------------------------------------------------------------------------------------------------


 First call to EWALD:  gamma=   0.051
 Maximum number of real-space cells 3x 3x 3
 Maximum number of reciprocal cells 3x 3x 3

    FEWALD:  cpu time    0.0014: real time    0.0014


--------------------------------------- Iteration      1(   1)  ---------------------------------------


    POTLOK:  cpu time   23.5011: real time   23.5325
    SETDIJ:  cpu time    0.0510: real time    0.0530
     EDDAV:  cpu time   12.2119: real time   12.2540
       DOS:  cpu time    0.0030: real time    0.0030
    --------------------------------------------
      LOOP:  cpu time   35.7671: real time   35.8425

 eigenvalue-minimisations  :    40
 total energy-change (2. order) : 0.1980416E+03  (-0.3364287E+03)
 number of electron      18.0000000 magnetization 
 augmentation part       18.0000000 magnetization 

 Free energy of the ion-electron system (eV)
  ---------------------------------------------------
  alpha Z        PSCENC =         0.03011286
  Ewald energy   TEWEN  =       498.98919017
  -Hartree energ DENC   =     -1315.64496029
  -exchange      EXHF   =         0.00000000
  -V(xc)+E(xc)   XCENC  =        71.44389950
  PAW double counting   =       805.88905503     -810.07355774
  entropy T*S    EENTRO =        -0.00000000
  eigenvalues    EBANDS =       -89.48135366
  atomic energy  EATOM  =      1036.88917190
  Solvation  Ediel_sol  =         0.00000000
  ---------------------------------------------------
  free energy    TOTEN  =       198.04155778 eV

  energy without entropy =      198.04155778  energy(sigma->0) =      198.04155778


--------------------------------------------------------------------------------------------------------




--------------------------------------- Iteration      1(   2)  ---------------------------------------


     EDDAV:  cpu time   17.3987: real time   17.4352
       DOS:  cpu time    0.0056: real time    0.0056
    --------------------------------------------
      LOOP:  cpu time   17.4043: real time   17.4408

 eigenvalue-minimisations  :    64
 total energy-change (2. order) :-0.1181004E+03  (-0.1164582E+03)
 number of electron      18.0000000 magnetization 
 augmentation part       18.0000000 magnetization 

 Free energy of the ion-electron system (eV)
  ---------------------------------------------------
  alpha Z        PSCENC =         0.03011286
  Ewald energy   TEWEN  =       498.98919017
  -Hartree energ DENC   =     -1315.64496029
  -exchange      EXHF   =         0.00000000
  -V(xc)+E(xc)   XCENC  =        71.44389950
  PAW double counting   =       805.88905503     -810.07355774
  entropy T*S    EENTRO =        -0.00000000
  eigenvalues    EBANDS =      -207.58179549
  atomic energy  EATOM  =      1036.88917190
  Solvation  Ediel_sol  =         0.00000000
  ---------------------------------------------------
  free energy    TOTEN  =        79.94111595 eV

  energy without entropy =       79.94111595  energy(sigma->0) =       79.94111595


--------------------------------------------------------------------------------------------------------




--------------------------------------- Iteration      1(   3)  ---------------------------------------


     EDDAV:  cpu time   12.2011: real time   12.2202
       DOS:  cpu time    0.0095: real time    0.0095
    --------------------------------------------
      LOOP:  cpu time   12.2106: real time   12.2297

 eigenvalue-minimisations  :    40
 total energy-change (2. order) :-0.9100363E+02  (-0.9093497E+02)
 number of electron      18.0000000 magnetization 
 augmentation part       18.0000000 magnetization 

 Free energy of the ion-electron system (eV)
  ---------------------------------------------------
  alpha Z        PSCENC =         0.03011286
  Ewald energy   TEWEN  =       498.98919017
  -Hartree energ DENC   =     -1315.64496029
  -exchange      EXHF   =         0.00000000
  -V(xc)+E(xc)   XCENC  =        71.44389950
  PAW double counting   =       805.88905503     -810.07355774
  entropy T*S    EENTRO =        -0.00000000
  eigenvalues    EBANDS =      -298.58542298
  atomic energy  EATOM  =      1036.88917190
  Solvation  Ediel_sol  =         0.00000000
  ---------------------------------------------------
  free energy    TOTEN  =       -11.06251153 eV

  energy without entropy =      -11.06251153  energy(sigma->0) =      -11.06251153


--------------------------------------------------------------------------------------------------------




--------------------------------------- Iteration      1(   4)  ---------------------------------------


     EDDAV:  cpu time   10.5632: real time   10.5796
       DOS:  cpu time    0.0058: real time    0.0058
    --------------------------------------------
      LOOP:  cpu time   10.5689: real time   10.5854

 eigenvalue-minimisations  :    32
 total energy-change (2. order) :-0.2030912E+02  (-0.2030011E+02)
 number of electron      18.0000000 magnetization 
 augmentation part       18.0000000 magnetization 

 Free energy of the ion-electron system (eV)
  ---------------------------------------------------
  alpha Z        PSCENC =         0.03011286
  Ewald energy   TEWEN  =       498.98919017
  -Hartree energ DENC   =     -1315.64496029
  -exchange      EXHF   =         0.00000000
  -V(xc)+E(xc)   XCENC  =        71.44389950
  PAW double counting   =       805.88905503     -810.07355774
  entropy T*S    EENTRO =        -0.00000000
  eigenvalues    EBANDS =      -318.89454271
  atomic energy  EATOM  =      1036.88917190
  Solvation  Ediel_sol  =         0.00000000
  ---------------------------------------------------
  free energy    TOTEN  =       -31.37163126 eV

  energy without entropy =      -31.37163126  energy(sigma->0) =      -31.37163126


--------------------------------------------------------------------------------------------------------




--------------------------------------- Iteration      1(   5)  ---------------------------------------


     EDDAV:  cpu time   15.6897: real time   15.7139
       DOS:  cpu time    0.0054: real time    0.0054
    CHARGE:  cpu time    3.3409: real time    3.3454
    MIXING:  cpu time    0.4417: real time    0.4424
    --------------------------------------------
      LOOP:  cpu time   19.4777: real time   19.5071

 eigenvalue-minimisations  :    56
 total energy-change (2. order) :-0.5964295E+00  (-0.5959701E+00)
 number of electron      18.0000000 magnetization 
 augmentation part        1.5688807 magnetization 

 Broyden mixing:
  rms(total) = 0.10625E+01    rms(broyden)= 0.10625E+01
  rms(prec ) = 0.10899E+01
  weight for this iteration     100.00

 Free energy of the ion-electron system (eV)
  ---------------------------------------------------
  alpha Z        PSCENC =         0.03011286
  Ewald energy   TEWEN  =       498.98919017
  -Hartree energ DENC   =     -1315.64496029
  -exchange      EXHF   =         0.00000000
  -V(xc)+E(xc)   XCENC  =        71.44389950
  PAW double counting   =       805.88905503     -810.07355774
  entropy T*S    EENTRO =        -0.00000000
  eigenvalues    EBANDS =      -319.49097219
  atomic energy  EATOM  =      1036.88917190
  Solvation  Ediel_sol  =         0.00000000
  ---------------------------------------------------
  free energy    TOTEN  =       -31.96806074 eV

  energy without entropy =      -31.96806074  energy(sigma->0) =      -31.96806074


--------------------------------------------------------------------------------------------------------




--------------------------------------- Iteration      1(   6)  ---------------------------------------


    POTLOK:  cpu time   23.3407: real time   23.3729
    SETDIJ:  cpu time    0.0562: real time    0.0563
     EDDAV:  cpu time   12.1950: real time   12.2137
       DOS:  cpu time    0.0085: real time    0.0085
    CHARGE:  cpu time    3.1516: real time    3.1558
    MIXING:  cpu time    0.4679: real time    0.4752
    --------------------------------------------
      LOOP:  cpu time   39.2200: real time   39.2824

 eigenvalue-minimisations  :    40
 total energy-change (2. order) : 0.2604583E+01  (-0.1016584E+01)
 number of electron      18.0000000 magnetization 
 augmentation part        1.3560464 magnetization 

 Broyden mixing:
  rms(total) = 0.48949E+00    rms(broyden)= 0.48949E+00
  rms(prec ) = 0.49674E+00
  weight for this iteration     100.00

 eigenvalues of (default mixing * dielectric matrix)
  average eigenvalue GAMMA=   0.9947
  0.9947

 Free energy of the ion-electron system (eV)
  ---------------------------------------------------
  alpha Z        PSCENC =         0.03011286
  Ewald energy   TEWEN  =       498.98919017
  -Hartree energ DENC   =     -1354.10357091
  -exchange      EXHF   =         0.00000000
  -V(xc)+E(xc)   XCENC  =        73.61167807
  PAW double counting   =      1040.55047746    -1045.27877137
  entropy T*S    EENTRO =        -0.00000000
  eigenvalues    EBANDS =      -280.05176636
  atomic energy  EATOM  =      1036.88917190
  Solvation  Ediel_sol  =         0.00000000
  ---------------------------------------------------
  free energy    TOTEN  =       -29.36347817 eV

  energy without entropy =      -29.36347817  energy(sigma->0) =      -29.36347817


--------------------------------------------------------------------------------------------------------




--------------------------------------- Iteration      1(   7)  ---------------------------------------


    POTLOK:  cpu time   23.3620: real time   23.3931
    SETDIJ:  cpu time    0.0562: real time    0.0562
     EDDAV:  cpu time   12.2273: real time   12.2462
       DOS:  cpu time    0.0059: real time    0.0059
    CHARGE:  cpu time    3.1667: real time    3.1707
    MIXING:  cpu time    0.5210: real time    0.5218
    --------------------------------------------
      LOOP:  cpu time   39.3391: real time   39.3939

 eigenvalue-minimisations  :    40
 total energy-change (2. order) : 0.2069323E+00  (-0.6947054E-01)
 number of electron      18.0000000 magnetization 
 augmentation part        1.3677816 magnetization 

 Broyden mixing:
  rms(total) = 0.28340E+00    rms(broyden)= 0.28340E+00
  rms(prec ) = 0.28758E+00
  weight for this iteration     100.00

 eigenvalues of (default mixing * dielectric matrix)
  average eigenvalue GAMMA=   1.3959
  0.9682  1.8237

 Free energy of the ion-electron system (eV)
  ---------------------------------------------------
  alpha Z        PSCENC =         0.03011286
  Ewald energy   TEWEN  =       498.98919017
  -Hartree energ DENC   =     -1360.28151022
  -exchange      EXHF   =         0.00000000
  -V(xc)+E(xc)   XCENC  =        73.97262170
  PAW double counting   =      1182.72805247    -1187.38535087
  entropy T*S    EENTRO =        -0.00000000
  eigenvalues    EBANDS =      -274.09883393
  atomic energy  EATOM  =      1036.88917190
  Solvation  Ediel_sol  =         0.00000000
  ---------------------------------------------------
  free energy    TOTEN  =       -29.15654592 eV

  energy without entropy =      -29.15654592  energy(sigma->0) =      -29.15654592


--------------------------------------------------------------------------------------------------------




--------------------------------------- Iteration      1(   8)  ---------------------------------------


    POTLOK:  cpu time   23.2657: real time   23.2971
    SETDIJ:  cpu time    0.0792: real time    0.0792
     EDDAV:  cpu time   13.9428: real time   13.9642
       DOS:  cpu time    0.0073: real time    0.0073
    CHARGE:  cpu time    3.1404: real time    3.1444
    MIXING:  cpu time    0.4761: real time    0.4769
    --------------------------------------------
      LOOP:  cpu time   40.9115: real time   40.9690

 eigenvalue-minimisations  :    48
 total energy-change (2. order) : 0.1077032E+00  (-0.1779695E-01)
 number of electron      18.0000000 magnetization 
 augmentation part        1.3511996 magnetization 

 Broyden mixing:
  rms(total) = 0.97066E-01    rms(broyden)= 0.97066E-01
  rms(prec ) = 0.99597E-01
  weight for this iteration     100.00

 eigenvalues of (default mixing * dielectric matrix)
  average eigenvalue GAMMA=   1.3854
  2.3541  1.0628  0.7393

 Free energy of the ion-electron system (eV)
  ---------------------------------------------------
  alpha Z        PSCENC =         0.03011286
  Ewald energy   TEWEN  =       498.98919017
  -Hartree energ DENC   =     -1368.26966322
  -exchange      EXHF   =         0.00000000
  -V(xc)+E(xc)   XCENC  =        74.44655467
  PAW double counting   =      1338.73134943    -1343.36800879
  entropy T*S    EENTRO =        -0.00000000
  eigenvalues    EBANDS =      -266.49754978
  atomic energy  EATOM  =      1036.88917190
  Solvation  Ediel_sol  =         0.00000000
  ---------------------------------------------------
  free energy    TOTEN  =       -29.04884274 eV

  energy without entropy =      -29.04884274  energy(sigma->0) =      -29.04884274


--------------------------------------------------------------------------------------------------------




--------------------------------------- Iteration      1(   9)  ---------------------------------------


    POTLOK:  cpu time   23.3417: real time   23.3725
    SETDIJ:  cpu time    0.0685: real time    0.0685
     EDDAV:  cpu time   10.7511: real time   10.7672
       DOS:  cpu time    0.0060: real time    0.0060
    CHARGE:  cpu time    3.2138: real time    3.2179
    MIXING:  cpu time    0.4772: real time    0.4785
    --------------------------------------------
      LOOP:  cpu time   37.8583: real time   37.9107

 eigenvalue-minimisations  :    32
 total energy-change (2. order) : 0.1683407E-01  (-0.1892377E-02)
 number of electron      18.0000000 magnetization 
 augmentation part        1.3543167 magnetization 

 Broyden mixing:
  rms(total) = 0.25638E-01    rms(broyden)= 0.25638E-01
  rms(prec ) = 0.28215E-01
  weight for this iteration     100.00

 eigenvalues of (default mixing * dielectric matrix)
  average eigenvalue GAMMA=   1.4909
  2.2760  1.8844  1.0320  0.7712

 Free energy of the ion-electron system (eV)
  ---------------------------------------------------
  alpha Z        PSCENC =         0.03011286
  Ewald energy   TEWEN  =       498.98919017
  -Hartree energ DENC   =     -1370.16357029
  -exchange      EXHF   =         0.00000000
  -V(xc)+E(xc)   XCENC  =        74.55897940
  PAW double counting   =      1396.71813465    -1401.32054143
  entropy T*S    EENTRO =        -0.00000000
  eigenvalues    EBANDS =      -264.73348595
  atomic energy  EATOM  =      1036.88917190
  Solvation  Ediel_sol  =         0.00000000
  ---------------------------------------------------
  free energy    TOTEN  =       -29.03200867 eV

  energy without entropy =      -29.03200867  energy(sigma->0) =      -29.03200867


--------------------------------------------------------------------------------------------------------




--------------------------------------- Iteration      1(  10)  ---------------------------------------


    POTLOK:  cpu time   23.3342: real time   23.3653
    SETDIJ:  cpu time    0.0660: real time    0.0661
     EDDAV:  cpu time   13.9601: real time   13.9817
       DOS:  cpu time    0.0017: real time    0.0017
    CHARGE:  cpu time    3.1990: real time    3.2032
    MIXING:  cpu time    0.7436: real time    0.7445
    --------------------------------------------
      LOOP:  cpu time   41.3046: real time   41.3625

 eigenvalue-minimisations  :    48
 total energy-change (2. order) :-0.2683346E-02  (-0.1029430E-02)
 number of electron      18.0000000 magnetization 
 augmentation part        1.3537531 magnetization 

 Broyden mixing:
  rms(total) = 0.14179E-01    rms(broyden)= 0.14179E-01
  rms(prec ) = 0.16120E-01
  weight for this iteration     100.00

 eigenvalues of (default mixing * dielectric matrix)
  average eigenvalue GAMMA=   1.3930
  2.4230  1.9234  0.8734  0.8734  0.8720

 Free energy of the ion-electron system (eV)
  ---------------------------------------------------
  alpha Z        PSCENC =         0.03011286
  Ewald energy   TEWEN  =       498.98919017
  -Hartree energ DENC   =     -1370.49415825
  -exchange      EXHF   =         0.00000000
  -V(xc)+E(xc)   XCENC  =        74.55563522
  PAW double counting   =      1398.00411316    -1402.58805883
  entropy T*S    EENTRO =        -0.00000000
  eigenvalues    EBANDS =      -264.42069826
  atomic energy  EATOM  =      1036.88917190
  Solvation  Ediel_sol  =         0.00000000
  ---------------------------------------------------
  free energy    TOTEN  =       -29.03469202 eV

  energy without entropy =      -29.03469202  energy(sigma->0) =      -29.03469202


--------------------------------------------------------------------------------------------------------




--------------------------------------- Iteration      1(  11)  ---------------------------------------


    POTLOK:  cpu time   23.3543: real time   23.3866
    SETDIJ:  cpu time    0.0648: real time    0.0648
     EDDAV:  cpu time   13.9658: real time   13.9872
       DOS:  cpu time    0.0082: real time    0.0082
    CHARGE:  cpu time    3.1993: real time    3.2037
    MIXING:  cpu time    0.5239: real time    0.5247
    --------------------------------------------
      LOOP:  cpu time   41.1163: real time   41.1753

 eigenvalue-minimisations  :    48
 total energy-change (2. order) :-0.2137532E-02  (-0.8041638E-04)
 number of electron      18.0000000 magnetization 
 augmentation part        1.3538251 magnetization 

 Broyden mixing:
  rms(total) = 0.67442E-02    rms(broyden)= 0.67442E-02
  rms(prec ) = 0.91110E-02
  weight for this iteration     100.00

 eigenvalues of (default mixing * dielectric matrix)
  average eigenvalue GAMMA=   1.5282
  2.4357  2.4357  1.5424  0.7990  0.9783  0.9783

 Free energy of the ion-electron system (eV)
  ---------------------------------------------------
  alpha Z        PSCENC =         0.03011286
  Ewald energy   TEWEN  =       498.98919017
  -Hartree energ DENC   =     -1370.76310646
  -exchange      EXHF   =         0.00000000
  -V(xc)+E(xc)   XCENC  =        74.56281849
  PAW double counting   =      1399.26210178    -1403.84008952
  entropy T*S    EENTRO =        -0.00000000
  eigenvalues    EBANDS =      -264.16702878
  atomic energy  EATOM  =      1036.88917190
  Solvation  Ediel_sol  =         0.00000000
  ---------------------------------------------------
  free energy    TOTEN  =       -29.03682955 eV

  energy without entropy =      -29.03682955  energy(sigma->0) =      -29.03682955


--------------------------------------------------------------------------------------------------------




--------------------------------------- Iteration      1(  12)  ---------------------------------------


    POTLOK:  cpu time   23.3067: real time   23.3374
    SETDIJ:  cpu time    0.0757: real time    0.0758
     EDDAV:  cpu time   10.5245: real time   10.5420
       DOS:  cpu time    0.0059: real time    0.0059
    CHARGE:  cpu time    3.2062: real time    3.2102
    MIXING:  cpu time    0.7486: real time    0.7495
    --------------------------------------------
      LOOP:  cpu time   37.8676: real time   37.9207

 eigenvalue-minimisations  :    32
 total energy-change (2. order) :-0.4643497E-02  (-0.1076114E-03)
 number of electron      18.0000000 magnetization 
 augmentation part        1.3536323 magnetization 

 Broyden mixing:
  rms(total) = 0.34874E-02    rms(broyden)= 0.34874E-02
  rms(prec ) = 0.52541E-02
  weight for this iteration     100.00

 eigenvalues of (default mixing * dielectric matrix)
  average eigenvalue GAMMA=   1.6687
  3.6154  2.4391  1.7055  0.7976  1.1105  1.0064  1.0064

 Free energy of the ion-electron system (eV)
  ---------------------------------------------------
  alpha Z        PSCENC =         0.03011286
  Ewald energy   TEWEN  =       498.98919017
  -Hartree energ DENC   =     -1371.20871851
  -exchange      EXHF   =         0.00000000
  -V(xc)+E(xc)   XCENC  =        74.57232759
  PAW double counting   =      1397.03883134    -1401.61292128
  entropy T*S    EENTRO =        -0.00000000
  eigenvalues    EBANDS =      -263.73946713
  atomic energy  EATOM  =      1036.88917190
  Solvation  Ediel_sol  =         0.00000000
  ---------------------------------------------------
  free energy    TOTEN  =       -29.04147305 eV

  energy without entropy =      -29.04147305  energy(sigma->0) =      -29.04147305


--------------------------------------------------------------------------------------------------------




--------------------------------------- Iteration      1(  13)  ---------------------------------------


    POTLOK:  cpu time   23.4237: real time   23.4546
    SETDIJ:  cpu time    0.0487: real time    0.0487
     EDDAV:  cpu time   12.2161: real time   12.2360
       DOS:  cpu time    0.0054: real time    0.0054
    CHARGE:  cpu time    3.1716: real time    3.1757
    MIXING:  cpu time    0.5735: real time    0.5744
    --------------------------------------------
      LOOP:  cpu time   39.4390: real time   39.4950

 eigenvalue-minimisations  :    40
 total energy-change (2. order) :-0.4011868E-02  (-0.1099004E-03)
 number of electron      18.0000000 magnetization 
 augmentation part        1.3530704 magnetization 

 Broyden mixing:
  rms(total) = 0.22276E-02    rms(broyden)= 0.22276E-02
  rms(prec ) = 0.31755E-02
  weight for this iteration     100.00

 eigenvalues of (default mixing * dielectric matrix)
  average eigenvalue GAMMA=   1.8275
  4.4396  2.5701  2.0366  1.8324  0.7999  0.9300  1.0059  1.0059

 Free energy of the ion-electron system (eV)
  ---------------------------------------------------
  alpha Z        PSCENC =         0.03011286
  Ewald energy   TEWEN  =       498.98919017
  -Hartree energ DENC   =     -1371.57512525
  -exchange      EXHF   =         0.00000000
  -V(xc)+E(xc)   XCENC  =        74.58012003
  PAW double counting   =      1396.01679528    -1400.58987500
  entropy T*S    EENTRO =        -0.00000000
  eigenvalues    EBANDS =      -263.38587491
  atomic energy  EATOM  =      1036.88917190
  Solvation  Ediel_sol  =         0.00000000
  ---------------------------------------------------
  free energy    TOTEN  =       -29.04548492 eV

  energy without entropy =      -29.04548492  energy(sigma->0) =      -29.04548492


--------------------------------------------------------------------------------------------------------




--------------------------------------- Iteration      1(  14)  ---------------------------------------


    POTLOK:  cpu time   23.3599: real time   23.3909
    SETDIJ:  cpu time    0.0657: real time    0.0657
     EDDAV:  cpu time   13.9912: real time   14.0132
       DOS:  cpu time    0.0048: real time    0.0048
    CHARGE:  cpu time    3.1882: real time    3.1922
    MIXING:  cpu time    0.6631: real time    0.6641
    --------------------------------------------
      LOOP:  cpu time   41.2728: real time   41.3309

 eigenvalue-minimisations  :    48
 total energy-change (2. order) :-0.3217634E-02  (-0.4618041E-04)
 number of electron      18.0000000 magnetization 
 augmentation part        1.3531636 magnetization 

 Broyden mixing:
  rms(total) = 0.11332E-02    rms(broyden)= 0.11332E-02
  rms(prec ) = 0.16788E-02
  weight for this iteration     100.00

 eigenvalues of (default mixing * dielectric matrix)
  average eigenvalue GAMMA=   1.9393
  5.3222  2.9803  2.4457  1.6296  1.3379  1.0163  1.0163  0.8016  0.9040

 Free energy of the ion-electron system (eV)
  ---------------------------------------------------
  alpha Z        PSCENC =         0.03011286
  Ewald energy   TEWEN  =       498.98919017
  -Hartree energ DENC   =     -1371.61447299
  -exchange      EXHF   =         0.00000000
  -V(xc)+E(xc)   XCENC  =        74.57519698
  PAW double counting   =      1395.70082212    -1400.27392676
  entropy T*S    EENTRO =        -0.00000000
  eigenvalues    EBANDS =      -263.34479683
  atomic energy  EATOM  =      1036.88917190
  Solvation  Ediel_sol  =         0.00000000
  ---------------------------------------------------
  free energy    TOTEN  =       -29.04870255 eV

  energy without entropy =      -29.04870255  energy(sigma->0) =      -29.04870255


--------------------------------------------------------------------------------------------------------




--------------------------------------- Iteration      1(  15)  ---------------------------------------


    POTLOK:  cpu time   23.3096: real time   23.3405
    SETDIJ:  cpu time    0.0867: real time    0.0868
     EDDAV:  cpu time   15.6738: real time   15.7002
       DOS:  cpu time    0.0021: real time    0.0021
    CHARGE:  cpu time    3.2659: real time    3.2701
    MIXING:  cpu time    0.6267: real time    0.6278
    --------------------------------------------
      LOOP:  cpu time   42.9648: real time   43.0274

 eigenvalue-minimisations  :    56
 total energy-change (2. order) :-0.1633147E-02  (-0.1758406E-04)
 number of electron      18.0000000 magnetization 
 augmentation part        1.3530023 magnetization 

 Broyden mixing:
  rms(total) = 0.87237E-03    rms(broyden)= 0.87237E-03
  rms(prec ) = 0.11255E-02
  weight for this iteration     100.00

 eigenvalues of (default mixing * dielectric matrix)
  average eigenvalue GAMMA=   2.1491
  6.8458  3.4205  2.3944  2.3944  1.7029  0.9866  0.9866  0.8011  1.0516  0.9072

 Free energy of the ion-electron system (eV)
  ---------------------------------------------------
  alpha Z        PSCENC =         0.03011286
  Ewald energy   TEWEN  =       498.98919017
  -Hartree energ DENC   =     -1371.63820470
  -exchange      EXHF   =         0.00000000
  -V(xc)+E(xc)   XCENC  =        74.57388366
  PAW double counting   =      1396.12513614    -1400.69882103
  entropy T*S    EENTRO =        -0.00000000
  eigenvalues    EBANDS =      -263.32080470
  atomic energy  EATOM  =      1036.88917190
  Solvation  Ediel_sol  =         0.00000000
  ---------------------------------------------------
  free energy    TOTEN  =       -29.05033570 eV

  energy without entropy =      -29.05033570  energy(sigma->0) =      -29.05033570


--------------------------------------------------------------------------------------------------------




--------------------------------------- Iteration      1(  16)  ---------------------------------------


    POTLOK:  cpu time   23.3659: real time   23.3969
    SETDIJ:  cpu time    0.0501: real time    0.0501
     EDDAV:  cpu time   10.4296: real time   10.4457
       DOS:  cpu time    0.0046: real time    0.0046
    CHARGE:  cpu time    3.1421: real time    3.1461
    MIXING:  cpu time    0.7074: real time    0.7085
    --------------------------------------------
      LOOP:  cpu time   37.6998: real time   37.7519

 eigenvalue-minimisations  :    32
 total energy-change (2. order) :-0.1065738E-02  (-0.8600279E-05)
 number of electron      18.0000000 magnetization 
 augmentation part        1.3530843 magnetization 

 Broyden mixing:
  rms(total) = 0.49456E-03    rms(broyden)= 0.49456E-03
  rms(prec ) = 0.59507E-03
  weight for this iteration     100.00

 eigenvalues of (default mixing * dielectric matrix)
  average eigenvalue GAMMA=   2.1488
  7.3563  3.7861  2.4951  2.3520  1.6679  1.3437  0.9883  0.9883  0.9949  0.8016
  0.8629

 Free energy of the ion-electron system (eV)
  ---------------------------------------------------
  alpha Z        PSCENC =         0.03011286
  Ewald energy   TEWEN  =       498.98919017
  -Hartree energ DENC   =     -1371.59463070
  -exchange      EXHF   =         0.00000000
  -V(xc)+E(xc)   XCENC  =        74.57002988
  PAW double counting   =      1396.06129220    -1400.63431581
  entropy T*S    EENTRO =        -0.00000000
  eigenvalues    EBANDS =      -263.36225196
  atomic energy  EATOM  =      1036.88917190
  Solvation  Ediel_sol  =         0.00000000
  ---------------------------------------------------
  free energy    TOTEN  =       -29.05140144 eV

  energy without entropy =      -29.05140144  energy(sigma->0) =      -29.05140144


--------------------------------------------------------------------------------------------------------




--------------------------------------- Iteration      1(  17)  ---------------------------------------


    POTLOK:  cpu time   23.3082: real time   23.3394
    SETDIJ:  cpu time    0.0787: real time    0.0787
     EDDAV:  cpu time   15.7829: real time   15.8071
       DOS:  cpu time    0.0040: real time    0.0040
    CHARGE:  cpu time    3.2478: real time    3.2521
    MIXING:  cpu time    0.6988: real time    0.7000
    --------------------------------------------
      LOOP:  cpu time   43.1204: real time   43.1814

 eigenvalue-minimisations  :    56
 total energy-change (2. order) :-0.2817850E-03  (-0.1238691E-05)
 number of electron      18.0000000 magnetization 
 augmentation part        1.3530312 magnetization 

 Broyden mixing:
  rms(total) = 0.23728E-03    rms(broyden)= 0.23728E-03
  rms(prec ) = 0.32215E-03
  weight for this iteration     100.00

 eigenvalues of (default mixing * dielectric matrix)
  average eigenvalue GAMMA=   2.3015
  8.1015  4.4140  2.6988  2.6988  2.3357  1.6870  0.9921  0.9921  1.0719  0.9711
  0.8015  0.8532

 Free energy of the ion-electron system (eV)
  ---------------------------------------------------
  alpha Z        PSCENC =         0.03011286
  Ewald energy   TEWEN  =       498.98919017
  -Hartree energ DENC   =     -1371.59484986
  -exchange      EXHF   =         0.00000000
  -V(xc)+E(xc)   XCENC  =        74.56995581
  PAW double counting   =      1396.16169056    -1400.73473389
  entropy T*S    EENTRO =        -0.00000000
  eigenvalues    EBANDS =      -263.36222080
  atomic energy  EATOM  =      1036.88917190
  Solvation  Ediel_sol  =         0.00000000
  ---------------------------------------------------
  free energy    TOTEN  =       -29.05168322 eV

  energy without entropy =      -29.05168322  energy(sigma->0) =      -29.05168322


--------------------------------------------------------------------------------------------------------




--------------------------------------- Iteration      1(  18)  ---------------------------------------


    POTLOK:  cpu time   23.2865: real time   23.3176
    SETDIJ:  cpu time    0.0505: real time    0.0505
     EDDAV:  cpu time   10.4442: real time   10.4637
       DOS:  cpu time    0.0061: real time    0.0061
    CHARGE:  cpu time    3.1570: real time    3.1611
    MIXING:  cpu time    0.9231: real time    0.9243
    --------------------------------------------
      LOOP:  cpu time   37.8673: real time   37.9234

 eigenvalue-minimisations  :    32
 total energy-change (2. order) :-0.3123903E-03  (-0.8514376E-06)
 number of electron      18.0000000 magnetization 
 augmentation part        1.3530419 magnetization 

 Broyden mixing:
  rms(total) = 0.11369E-03    rms(broyden)= 0.11369E-03
  rms(prec ) = 0.14614E-03
  weight for this iteration     100.00

 eigenvalues of (default mixing * dielectric matrix)
  average eigenvalue GAMMA=   2.2903
  8.5696  4.8918  3.1483  2.3956  2.2418  1.7154  1.2446  0.9980  0.9980  0.8017
  0.9552  0.9552  0.8589

 Free energy of the ion-electron system (eV)
  ---------------------------------------------------
  alpha Z        PSCENC =         0.03011286
  Ewald energy   TEWEN  =       498.98919017
  -Hartree energ DENC   =     -1371.58614080
  -exchange      EXHF   =         0.00000000
  -V(xc)+E(xc)   XCENC  =        74.56935140
  PAW double counting   =      1396.04821355    -1400.62126051
  entropy T*S    EENTRO =        -0.00000000
  eigenvalues    EBANDS =      -263.37063419
  atomic energy  EATOM  =      1036.88917190
  Solvation  Ediel_sol  =         0.00000000
  ---------------------------------------------------
  free energy    TOTEN  =       -29.05199561 eV

  energy without entropy =      -29.05199561  energy(sigma->0) =      -29.05199561


--------------------------------------------------------------------------------------------------------




--------------------------------------- Iteration      1(  19)  ---------------------------------------


    POTLOK:  cpu time   23.2984: real time   23.3297
    SETDIJ:  cpu time    0.0573: real time    0.0573
     EDDAV:  cpu time   13.9563: real time   13.9800
       DOS:  cpu time    0.0043: real time    0.0043
    CHARGE:  cpu time    3.2658: real time    3.2699
    MIXING:  cpu time    0.7722: real time    0.7735
    --------------------------------------------
      LOOP:  cpu time   41.3542: real time   41.4148

 eigenvalue-minimisations  :    48
 total energy-change (2. order) :-0.5981203E-04  (-0.8629866E-07)
 number of electron      18.0000000 magnetization 
 augmentation part        1.3530297 magnetization 

 Broyden mixing:
  rms(total) = 0.76833E-04    rms(broyden)= 0.76833E-04
  rms(prec ) = 0.99521E-04
  weight for this iteration     100.00

 eigenvalues of (default mixing * dielectric matrix)
  average eigenvalue GAMMA=   2.4523
  9.1562  5.6542  3.7633  2.8879  2.3760  2.1067  1.7199  1.0926  0.9966  0.9966
  0.9663  0.9663  0.8024  0.8474

 Free energy of the ion-electron system (eV)
  ---------------------------------------------------
  alpha Z        PSCENC =         0.03011286
  Ewald energy   TEWEN  =       498.98919017
  -Hartree energ DENC   =     -1371.58640119
  -exchange      EXHF   =         0.00000000
  -V(xc)+E(xc)   XCENC  =        74.56932075
  PAW double counting   =      1396.08009012    -1400.65310229
  entropy T*S    EENTRO =        -0.00000000
  eigenvalues    EBANDS =      -263.37043775
  atomic energy  EATOM  =      1036.88917190
  Solvation  Ediel_sol  =         0.00000000
  ---------------------------------------------------
  free energy    TOTEN  =       -29.05205542 eV

  energy without entropy =      -29.05205542  energy(sigma->0) =      -29.05205542


--------------------------------------------------------------------------------------------------------




--------------------------------------- Iteration      1(  20)  ---------------------------------------


    POTLOK:  cpu time   23.3214: real time   23.3525
    SETDIJ:  cpu time    0.1542: real time    0.1542
     EDDAV:  cpu time   10.4962: real time   10.5133
       DOS:  cpu time    0.0061: real time    0.0061
    CHARGE:  cpu time    3.2361: real time    3.2403
    MIXING:  cpu time    1.0238: real time    1.0251
    --------------------------------------------
      LOOP:  cpu time   38.2378: real time   38.2916

 eigenvalue-minimisations  :    32
 total energy-change (2. order) :-0.8379220E-04  (-0.1221871E-06)
 number of electron      18.0000000 magnetization 
 augmentation part        1.3530334 magnetization 

 Broyden mixing:
  rms(total) = 0.44195E-04    rms(broyden)= 0.44195E-04
  rms(prec ) = 0.50169E-04
  weight for this iteration     100.00

 eigenvalues of (default mixing * dielectric matrix)
  average eigenvalue GAMMA=   2.4125
  9.2080  5.9180  3.9207  2.8149  2.4567  2.2641  1.7152  1.3349  0.9988  0.9988
  1.0212  0.9428  0.9428  0.8026  0.8476

 Free energy of the ion-electron system (eV)
  ---------------------------------------------------
  alpha Z        PSCENC =         0.03011286
  Ewald energy   TEWEN  =       498.98919017
  -Hartree energ DENC   =     -1371.58692633
  -exchange      EXHF   =         0.00000000
  -V(xc)+E(xc)   XCENC  =        74.56923068
  PAW double counting   =      1396.08179965    -1400.65487536
  entropy T*S    EENTRO =        -0.00000000
  eigenvalues    EBANDS =      -263.36984279
  atomic energy  EATOM  =      1036.88917190
  Solvation  Ediel_sol  =         0.00000000
  ---------------------------------------------------
  free energy    TOTEN  =       -29.05213922 eV

  energy without entropy =      -29.05213922  energy(sigma->0) =      -29.05213922


--------------------------------------------------------------------------------------------------------




--------------------------------------- Iteration      1(  21)  ---------------------------------------


    POTLOK:  cpu time   23.2489: real time   23.2798
    SETDIJ:  cpu time    0.0596: real time    0.0596
     EDDAV:  cpu time   12.2867: real time   12.3067
       DOS:  cpu time    0.0045: real time    0.0045
    CHARGE:  cpu time    3.2091: real time    3.2132
    MIXING:  cpu time    0.8719: real time    0.8733
    --------------------------------------------
      LOOP:  cpu time   39.6807: real time   39.7371

 eigenvalue-minimisations  :    40
 total energy-change (2. order) :-0.1504891E-04  (-0.8894542E-08)
 number of electron      18.0000000 magnetization 
 augmentation part        1.3530361 magnetization 

 Broyden mixing:
  rms(total) = 0.22687E-04    rms(broyden)= 0.22687E-04
  rms(prec ) = 0.27601E-04
  weight for this iteration     100.00

 eigenvalues of (default mixing * dielectric matrix)
  average eigenvalue GAMMA=   2.5139
  9.4740  6.4431  4.4810  3.2184  2.7100  2.3799  2.2013  1.7130  1.0891  1.0001
  1.0001  0.8023  0.9818  0.9350  0.9350  0.8592

 Free energy of the ion-electron system (eV)
  ---------------------------------------------------
  alpha Z        PSCENC =         0.03011286
  Ewald energy   TEWEN  =       498.98919017
  -Hartree energ DENC   =     -1371.58717370
  -exchange      EXHF   =         0.00000000
  -V(xc)+E(xc)   XCENC  =        74.56922300
  PAW double counting   =      1396.09284457    -1400.66589142
  entropy T*S    EENTRO =        -0.00000000
  eigenvalues    EBANDS =      -263.36963166
  atomic energy  EATOM  =      1036.88917190
  Solvation  Ediel_sol  =         0.00000000
  ---------------------------------------------------
  free energy    TOTEN  =       -29.05215426 eV

  energy without entropy =      -29.05215426  energy(sigma->0) =      -29.05215426


--------------------------------------------------------------------------------------------------------




--------------------------------------- Iteration      1(  22)  ---------------------------------------


    POTLOK:  cpu time   23.2950: real time   23.3258
    SETDIJ:  cpu time    0.0506: real time    0.0507
     EDDAV:  cpu time    8.7630: real time    8.7764
       DOS:  cpu time    0.0045: real time    0.0046
    CHARGE:  cpu time    3.1843: real time    3.1885
    MIXING:  cpu time    1.1687: real time    1.1703
    --------------------------------------------
      LOOP:  cpu time   36.4662: real time   36.5161

 eigenvalue-minimisations  :    24
 total energy-change (2. order) :-0.1498586E-04  (-0.1023603E-07)
 number of electron      18.0000000 magnetization 
 augmentation part        1.3530339 magnetization 

 Broyden mixing:
  rms(total) = 0.13164E-04    rms(broyden)= 0.13164E-04
  rms(prec ) = 0.14745E-04
  weight for this iteration     100.00

 eigenvalues of (default mixing * dielectric matrix)
  average eigenvalue GAMMA=   2.4785
  9.5783  6.5366  4.6980  3.3062  2.7302  2.4279  2.2316  1.7207  1.3681  0.8022
  1.0003  1.0003  0.8557  0.9986  0.9986  0.9408  0.9408

 Free energy of the ion-electron system (eV)
  ---------------------------------------------------
  alpha Z        PSCENC =         0.03011286
  Ewald energy   TEWEN  =       498.98919017
  -Hartree energ DENC   =     -1371.58796461
  -exchange      EXHF   =         0.00000000
  -V(xc)+E(xc)   XCENC  =        74.56925491
  PAW double counting   =      1396.09136949    -1400.66441563
  entropy T*S    EENTRO =        -0.00000000
  eigenvalues    EBANDS =      -263.36888836
  atomic energy  EATOM  =      1036.88917190
  Solvation  Ediel_sol  =         0.00000000
  ---------------------------------------------------
  free energy    TOTEN  =       -29.05216925 eV

  energy without entropy =      -29.05216925  energy(sigma->0) =      -29.05216925


--------------------------------------------------------------------------------------------------------




--------------------------------------- Iteration      1(  23)  ---------------------------------------


    POTLOK:  cpu time   23.2637: real time   23.2947
    SETDIJ:  cpu time    0.0584: real time    0.0585
     EDDAV:  cpu time   12.6052: real time   12.6241
       DOS:  cpu time    0.0030: real time    0.0030
    CHARGE:  cpu time    3.1931: real time    3.1971
    MIXING:  cpu time    1.0928: real time    1.0943
    --------------------------------------------
      LOOP:  cpu time   40.2162: real time   40.2717

 eigenvalue-minimisations  :    40
 total energy-change (2. order) :-0.3050977E-05  (-0.2445567E-08)
 number of electron      18.0000000 magnetization 
 augmentation part        1.3530332 magnetization 

 Broyden mixing:
  rms(total) = 0.61924E-05    rms(broyden)= 0.61924E-05
  rms(prec ) = 0.75819E-05
  weight for this iteration     100.00

 eigenvalues of (default mixing * dielectric matrix)
  average eigenvalue GAMMA=   2.5479
  9.6634  7.0263  5.0645  3.7888  2.9063  2.4569  2.4569  2.1753  1.7114  0.8023
  1.0013  1.0013  1.0775  0.8553  1.0037  1.0037  0.9341  0.9341

 Free energy of the ion-electron system (eV)
  ---------------------------------------------------
  alpha Z        PSCENC =         0.03011286
  Ewald energy   TEWEN  =       498.98919017
  -Hartree energ DENC   =     -1371.58806141
  -exchange      EXHF   =         0.00000000
  -V(xc)+E(xc)   XCENC  =        74.56925562
  PAW double counting   =      1396.08844445    -1400.66149347
  entropy T*S    EENTRO =        -0.00000000
  eigenvalues    EBANDS =      -263.36879244
  atomic energy  EATOM  =      1036.88917190
  Solvation  Ediel_sol  =         0.00000000
  ---------------------------------------------------
  free energy    TOTEN  =       -29.05217230 eV

  energy without entropy =      -29.05217230  energy(sigma->0) =      -29.05217230


--------------------------------------------------------------------------------------------------------




--------------------------------------- Iteration      1(  24)  ---------------------------------------


    POTLOK:  cpu time   23.2720: real time   23.3032
    SETDIJ:  cpu time    0.0566: real time    0.0566
     EDDAV:  cpu time    8.7496: real time    8.7630
       DOS:  cpu time    0.0028: real time    0.0028
    CHARGE:  cpu time    3.1844: real time    3.1886
    MIXING:  cpu time    1.0555: real time    1.0571
    --------------------------------------------
      LOOP:  cpu time   36.3210: real time   36.3715

 eigenvalue-minimisations  :    24
 total energy-change (2. order) :-0.2778359E-05  (-0.2094973E-08)
 number of electron      18.0000000 magnetization 
 augmentation part        1.3530338 magnetization 

 Broyden mixing:
  rms(total) = 0.43093E-05    rms(broyden)= 0.43093E-05
  rms(prec ) = 0.47768E-05
  weight for this iteration     100.00

 eigenvalues of (default mixing * dielectric matrix)
  average eigenvalue GAMMA=   2.5038
  9.6885  7.1434  5.1739  3.8834  2.6967  2.6967  2.4167  2.2149  1.7224  1.3783
  0.8023  1.0041  1.0041  1.0037  1.0037  1.0151  0.8572  0.9338  0.9338

 Free energy of the ion-electron system (eV)
  ---------------------------------------------------
  alpha Z        PSCENC =         0.03011286
  Ewald energy   TEWEN  =       498.98919017
  -Hartree energ DENC   =     -1371.58793745
  -exchange      EXHF   =         0.00000000
  -V(xc)+E(xc)   XCENC  =        74.56924535
  PAW double counting   =      1396.08763997    -1400.66068834
  entropy T*S    EENTRO =        -0.00000000
  eigenvalues    EBANDS =      -263.36890954
  atomic energy  EATOM  =      1036.88917190
  Solvation  Ediel_sol  =         0.00000000
  ---------------------------------------------------
  free energy    TOTEN  =       -29.05217508 eV

  energy without entropy =      -29.05217508  energy(sigma->0) =      -29.05217508


--------------------------------------------------------------------------------------------------------




--------------------------------------- Iteration      1(  25)  ---------------------------------------


    POTLOK:  cpu time   23.2945: real time   23.3255
    SETDIJ:  cpu time    0.0751: real time    0.0752
     EDDAV:  cpu time   12.2445: real time   12.2633
       DOS:  cpu time    0.0063: real time    0.0063
    CHARGE:  cpu time    3.1916: real time    3.1956
    MIXING:  cpu time    1.1265: real time    1.1282
    --------------------------------------------
      LOOP:  cpu time   39.9384: real time   39.9940

 eigenvalue-minimisations  :    40
 total energy-change (2. order) :-0.6322502E-06  (-0.1009697E-08)
 number of electron      18.0000000 magnetization 
 augmentation part        1.3530340 magnetization 

 Broyden mixing:
  rms(total) = 0.21761E-05    rms(broyden)= 0.21761E-05
  rms(prec ) = 0.25790E-05
  weight for this iteration     100.00

 eigenvalues of (default mixing * dielectric matrix)
  average eigenvalue GAMMA=   2.5744
  9.7567  7.5179  5.6281  4.3385  3.2680  2.7616  2.4198  2.4198  2.0315  1.7152
  1.0943  1.0943  0.9999  0.9999  0.8023  0.8572  0.9412  0.9412  0.9743  0.9268

 Free energy of the ion-electron system (eV)
  ---------------------------------------------------
  alpha Z        PSCENC =         0.03011286
  Ewald energy   TEWEN  =       498.98919017
  -Hartree energ DENC   =     -1371.58789615
  -exchange      EXHF   =         0.00000000
  -V(xc)+E(xc)   XCENC  =        74.56924239
  PAW double counting   =      1396.08814721    -1400.66119627
  entropy T*S    EENTRO =        -0.00000000
  eigenvalues    EBANDS =      -263.36894784
  atomic energy  EATOM  =      1036.88917190
  Solvation  Ediel_sol  =         0.00000000
  ---------------------------------------------------
  free energy    TOTEN  =       -29.05217571 eV

  energy without entropy =      -29.05217571  energy(sigma->0) =      -29.05217571


--------------------------------------------------------------------------------------------------------




--------------------------------------- Iteration      1(  26)  ---------------------------------------


    POTLOK:  cpu time   23.2373: real time   23.2685
    SETDIJ:  cpu time    0.0900: real time    0.0900
     EDDAV:  cpu time    8.7440: real time    8.7610
       DOS:  cpu time    0.0034: real time    0.0034
    CHARGE:  cpu time    3.1668: real time    3.1711
    MIXING:  cpu time    1.1959: real time    1.1977
    --------------------------------------------
      LOOP:  cpu time   36.4374: real time   36.4917

 eigenvalue-minimisations  :    24
 total energy-change (2. order) :-0.6575947E-06  (-0.9057608E-09)
 number of electron      18.0000000 magnetization 
 augmentation part        1.3530339 magnetization 

 Broyden mixing:
  rms(total) = 0.13417E-05    rms(broyden)= 0.13417E-05
  rms(prec ) = 0.14851E-05
  weight for this iteration     100.00

 eigenvalues of (default mixing * dielectric matrix)
  average eigenvalue GAMMA=   2.5479
  9.7562  7.6481  5.7286  4.4184  3.4052  2.7500  2.3984  2.1634  2.1634  1.7726
  1.6493  0.8023  0.9999  0.9999  1.0829  1.0829  0.8559  0.9389  0.9389  1.0061
  0.9451

 Free energy of the ion-electron system (eV)
  ---------------------------------------------------
  alpha Z        PSCENC =         0.03011286
  Ewald energy   TEWEN  =       498.98919017
  -Hartree energ DENC   =     -1371.58787701
  -exchange      EXHF   =         0.00000000
  -V(xc)+E(xc)   XCENC  =        74.56924046
  PAW double counting   =      1396.08844332    -1400.66149218
  entropy T*S    EENTRO =        -0.00000000
  eigenvalues    EBANDS =      -263.36896591
  atomic energy  EATOM  =      1036.88917190
  Solvation  Ediel_sol  =         0.00000000
  ---------------------------------------------------
  free energy    TOTEN  =       -29.05217637 eV

  energy without entropy =      -29.05217637  energy(sigma->0) =      -29.05217637


--------------------------------------------------------------------------------------------------------




--------------------------------------- Iteration      1(  27)  ---------------------------------------


    POTLOK:  cpu time   23.2185: real time   23.2493
    SETDIJ:  cpu time    0.0585: real time    0.0585
     EDDAV:  cpu time   12.2407: real time   12.2596
       DOS:  cpu time    0.0079: real time    0.0079
    CHARGE:  cpu time    3.2156: real time    3.2198
    MIXING:  cpu time    1.2079: real time    1.2098
    --------------------------------------------
      LOOP:  cpu time   39.9490: real time   40.0049

 eigenvalue-minimisations  :    40
 total energy-change (2. order) :-0.1717735E-06  (-0.7147705E-09)
 number of electron      18.0000000 magnetization 
 augmentation part        1.3530338 magnetization 

 Broyden mixing:
  rms(total) = 0.54818E-06    rms(broyden)= 0.54818E-06
  rms(prec ) = 0.66660E-06
  weight for this iteration     100.00

 eigenvalues of (default mixing * dielectric matrix)
  average eigenvalue GAMMA=   2.5730
  9.7891  7.8933  6.0556  4.7038  3.6485  2.7144  2.7144  2.3839  2.3839  1.9317
  1.7226  1.1472  1.1472  0.9998  0.9998  0.8023  0.9409  0.9409  0.8560  0.9813
  0.9243  0.9243

 Free energy of the ion-electron system (eV)
  ---------------------------------------------------
  alpha Z        PSCENC =         0.03011286
  Ewald energy   TEWEN  =       498.98919017
  -Hartree energ DENC   =     -1371.58790761
  -exchange      EXHF   =         0.00000000
  -V(xc)+E(xc)   XCENC  =        74.56924179
  PAW double counting   =      1396.08841729    -1400.66146602
  entropy T*S    EENTRO =        -0.00000000
  eigenvalues    EBANDS =      -263.36893693
  atomic energy  EATOM  =      1036.88917190
  Solvation  Ediel_sol  =         0.00000000
  ---------------------------------------------------
  free energy    TOTEN  =       -29.05217654 eV

  energy without entropy =      -29.05217654  energy(sigma->0) =      -29.05217654


--------------------------------------------------------------------------------------------------------




--------------------------------------- Iteration      1(  28)  ---------------------------------------


    POTLOK:  cpu time   23.1569: real time   23.1874
    SETDIJ:  cpu time    0.0741: real time    0.0741
     EDDAV:  cpu time    8.7583: real time    8.7719
       DOS:  cpu time    0.0021: real time    0.0021
    CHARGE:  cpu time    3.0988: real time    3.1029
    MIXING:  cpu time    1.5321: real time    1.5341
    --------------------------------------------
      LOOP:  cpu time   36.6222: real time   36.6726

 eigenvalue-minimisations  :    24
 total energy-change (2. order) :-0.1177148E-06  (-0.6242562E-09)
 number of electron      18.0000000 magnetization 
 augmentation part        1.3530337 magnetization 

 Broyden mixing:
  rms(total) = 0.36792E-06    rms(broyden)= 0.36792E-06
  rms(prec ) = 0.42362E-06
  weight for this iteration     100.00

 eigenvalues of (default mixing * dielectric matrix)
  average eigenvalue GAMMA=   2.5890
  9.8219  8.0309  6.2887  4.8709  3.8855  3.0552  2.5112  2.5112  2.2215  2.2215
  1.6790  1.6790  1.2331  1.1161  0.8023  1.0006  1.0006  0.8560  0.9836  0.9836
  0.9412  0.9412  0.9125

 Free energy of the ion-electron system (eV)
  ---------------------------------------------------
  alpha Z        PSCENC =         0.03011286
  Ewald energy   TEWEN  =       498.98919017
  -Hartree energ DENC   =     -1371.58791026
  -exchange      EXHF   =         0.00000000
  -V(xc)+E(xc)   XCENC  =        74.56924178
  PAW double counting   =      1396.08847381    -1400.66152210
  entropy T*S    EENTRO =        -0.00000000
  eigenvalues    EBANDS =      -263.36893483
  atomic energy  EATOM  =      1036.88917190
  Solvation  Ediel_sol  =         0.00000000
  ---------------------------------------------------
  free energy    TOTEN  =       -29.05217666 eV

  energy without entropy =      -29.05217666  energy(sigma->0) =      -29.05217666


--------------------------------------------------------------------------------------------------------




--------------------------------------- Iteration      1(  29)  ---------------------------------------


    POTLOK:  cpu time   23.2280: real time   23.2589
    SETDIJ:  cpu time    0.0954: real time    0.0955
     EDDAV:  cpu time   12.2017: real time   12.2212
       DOS:  cpu time    0.0027: real time    0.0027
    --------------------------------------------
      LOOP:  cpu time   35.5278: real time   35.5783

 eigenvalue-minimisations  :    40
 total energy-change (2. order) :-0.5476841E-07  (-0.5797176E-09)
 number of electron      18.0000000 magnetization 
 augmentation part        1.3530337 magnetization 

 Free energy of the ion-electron system (eV)
  ---------------------------------------------------
  alpha Z        PSCENC =         0.03011286
  Ewald energy   TEWEN  =       498.98919017
  -Hartree energ DENC   =     -1371.58789710
  -exchange      EXHF   =         0.00000000
  -V(xc)+E(xc)   XCENC  =        74.56924083
  PAW double counting   =      1396.08838755    -1400.66143577
  entropy T*S    EENTRO =        -0.00000000
  eigenvalues    EBANDS =      -263.36894717
  atomic energy  EATOM  =      1036.88917190
  Solvation  Ediel_sol  =         0.00000000
  ---------------------------------------------------
  free energy    TOTEN  =       -29.05217671 eV

  energy without entropy =      -29.05217671  energy(sigma->0) =      -29.05217671


--------------------------------------------------------------------------------------------------------




 average (electrostatic) potential at core
  the test charge radii are     0.5201  0.6991  0.7215
  (the norm of the test charge is              1.0000)
       1 -44.7784       2 -44.7733       3 -61.8215       4 -80.5648       5 -83.6622
 
 
 
 E-fermi :  -7.1640     XC(G=0):  -0.0342     alpha+bet : -0.0071


 k-point     1 :       0.0000    0.0000    0.0000
  band No.  band energies     occupation 
      1     -29.4462      2.00000
      2     -25.4001      2.00000
      3     -14.1943      2.00000
      4     -13.1515      2.00000
      5     -11.9066      2.00000
      6     -11.9063      2.00000
      7      -9.2880      2.00000
      8      -9.1686      2.00000
      9      -7.2229      2.00000
     10      -2.2289      0.00000
     11      -2.2286      0.00000
     12      -0.9998      0.00000
     13      -0.0767      0.00000
     14       0.0099      0.00000
     15       0.1045      0.00000
     16       0.1090      0.00000


--------------------------------------------------------------------------------------------------------


 soft charge-density along one line, spin component            1
         0         1         2         3         4         5         6         7         8         9
 total charge-density along one line
 
 pseudopotential strength for first ion, spin component:            1
 -2.380  -4.111  -0.005  -0.016   0.000
 -4.111  -7.013  -0.009  -0.031   0.001
 -0.005  -0.009  -0.321   0.008  -0.000
 -0.016  -0.031   0.008  -0.295  -0.001
  0.000   0.001  -0.000  -0.001  -0.324
 total augmentation occupancy for first ion, spin component:            1
  3.784  -0.789   0.195   0.725  -0.021
 -0.789   0.219  -0.034  -0.147   0.004
  0.195  -0.034   0.036   0.029  -0.001
  0.725  -0.147   0.029   0.143  -0.003
 -0.021   0.004  -0.001  -0.003   0.044


------------------------ aborting loop because EDIFF is reached ----------------------------------------



 DIPCOR: dipole corrections for dipol
 direction  1 min pos   575, direction  2 min pos   624, direction  3 min pos   545,
 dipolmoment          -0.011979     -0.206741      0.298385 electrons x Angstroem
 Tr[quadrupol]         8.618949

 energy correction for charged system         0.000000 eV
 dipol+quadrupol energy correction            0.000093 eV
 added-field ion interaction          0.000000 eV  (added to PSCEN)

 
  *************** adding dipol energy to TOTEN NOW **************** 
    CHARGE:  cpu time    3.1442: real time    3.1494
    FORLOC:  cpu time    1.2058: real time    1.2071
    FORNL :  cpu time    0.3418: real time    0.3423
    STRESS:  cpu time    5.6407: real time    5.6493
    FORCOR:  cpu time   22.4052: real time   22.4342
    FORHAR:  cpu time    6.7094: real time    6.7186
    MIXING:  cpu time    1.3019: real time    1.3041
    OFIELD:  cpu time    0.0000: real time    0.0000

  FORCE on cell =-STRESS in cart. coord.  units (eV):
  Direction    XX          YY          ZZ          XY          YZ          ZX
  --------------------------------------------------------------------------------------
  Alpha Z     0.03011     0.03011     0.03011
  Ewald     -63.81261   538.34640    24.45484     6.45938    28.35478    -2.56959
  Hartree   347.10057   661.75178   362.73556     2.43251     6.26299    -0.45681
  E(xc)     -80.55247   -79.02723   -80.18248     0.02310     0.09101    -0.01099
  Local    -527.55381 -1386.83868  -604.67987    -8.24566   -27.26591     2.24153
  n-local   -49.20512   -60.43719   -49.14795    -0.22791     0.42854     0.00371
  augment    14.43241    11.87145    12.63637    -0.01968    -0.47031     0.05289
  Kinetic   359.55946   315.35791   334.61206    -0.41101    -7.22117     0.72645
  Fock        0.00000     0.00000     0.00000     0.00000     0.00000     0.00000
  -------------------------------------------------------------------------------------
  Total      -0.00145     1.05457     0.45865     0.01073     0.17992    -0.01281
  in kB      -0.00005     0.03941     0.01714     0.00040     0.00672    -0.00048
  external pressure =        0.02 kB  Pullay stress =        0.00 kB


 VOLUME and BASIS-vectors are now :
 -----------------------------------------------------------------------------
  energy-cutoff  :     1600.00
  volume of cell :    42875.00
      direct lattice vectors                 reciprocal lattice vectors
    35.000000000  0.000000000  0.000000000     0.028571429  0.000000000  0.000000000
     0.000000000 35.000000000  0.000000000     0.000000000  0.028571429  0.000000000
     0.000000000  0.000000000 35.000000000     0.000000000  0.000000000  0.028571429

  length of vectors
    35.000000000 35.000000000 35.000000000     0.028571429  0.028571429  0.028571429


 FORCES acting on ions
    electron-ion (+dipol)            ewald-force                    non-local-force                 convergence-correction
 -----------------------------------------------------------------------------------------------
   -.249E+01 0.287E+02 0.861E+02   0.274E+01 -.313E+02 -.949E+02   -.241E+00 0.240E+01 0.830E+01   0.307E-07 -.350E-06 -.123E-05
   -.990E+00 -.837E+02 -.336E+01   0.109E+01 0.929E+02 0.370E+01   -.978E-01 -.864E+01 -.270E+00   0.119E-07 0.132E-05 -.719E-08
   -.454E+01 -.248E+03 0.329E+00   0.508E+01 0.276E+03 -.387E+00   -.532E+00 -.281E+02 0.584E-01   -.922E-07 -.668E-06 0.595E-06
   0.221E+01 0.628E+02 -.511E+02   -.389E+01 -.936E+02 0.907E+02   0.166E+01 0.304E+02 -.392E+02   -.582E-07 -.864E-06 -.535E-06
   0.389E+01 0.184E+03 -.747E+00   -.503E+01 -.244E+03 0.896E+00   0.113E+01 0.595E+02 -.150E+00   -.188E-06 0.237E-06 0.111E-05
 -----------------------------------------------------------------------------------------------
   -.192E+01 -.556E+02 0.313E+02   -.888E-15 0.284E-13 -.600E-14   0.192E+01 0.556E+02 -.313E+02   -.296E-06 -.320E-06 -.696E-07
 
 
 POSITION                                       TOTAL-FORCE (eV/Angst)
 -----------------------------------------------------------------------------------
      0.02749      1.74109     34.06848         0.013712     -0.195192     -0.495088
      0.01191      2.93850     34.99851         0.004168      0.533456      0.067601
      0.02959      8.77724     34.99666         0.008387      0.451790      0.000175
      0.00000      1.97721      0.00000        -0.017989     -0.335356      0.427861
      0.00801      7.63849     34.99892        -0.008278     -0.454699     -0.000549
 -----------------------------------------------------------------------------------
    total drift:                                0.000067      0.000093     -0.000029


--------------------------------------------------------------------------------------------------------



  FREE ENERGIE OF THE ION-ELECTRON SYSTEM (eV)
  ---------------------------------------------------
  free  energy   TOTEN  =       -29.05208392 eV

  energy  without entropy=      -29.05208392  energy(sigma->0) =      -29.05208392
 


--------------------------------------------------------------------------------------------------------


    POTLOK:  cpu time   23.3815: real time   23.4125


--------------------------------------------------------------------------------------------------------


 writing wavefunctions
     LOOP+:  cpu time 1926.2857: real time 1929.5511
    4ORBIT:  cpu time    0.0000: real time    0.0000

 total amount of memory used by VASP MPI-rank0  3701731. kBytes
=======================================================================

   base      :      30000. kBytes
   nonl-proj :     105923. kBytes
   fftplans  :    1215227. kBytes
   grid      :    2325657. kBytes
   one-center:          1. kBytes
   wavefun   :      24923. kBytes
 
  
  
 General timing and accounting informations for this job:
 ========================================================
  
                  Total CPU time used (sec):     2765.406
                            User time (sec):     2674.514
                          System time (sec):       90.892
                         Elapsed time (sec):     2778.169
  
                   Maximum memory used (kb):     4513484.
                   Average memory used (kb):           0.
  
                          Minor page faults:     59348853
                          Major page faults:          337
                 Voluntary context switches:        31252
