
 Primary working directories    : /scratch/sirous/460966/molpro.JvycYADDJq
 Secondary working directories  : /scratch/sirous/460966/molpro.JvycYADDJq
 Wavefunction directory         : /scratch/sirous/460966/
 Main file repository           : /scratch/sirous/460966/molpro.JvycYADDJq/

 id        : karlovklimes

 Nodes                      nprocs
 nc-17.cc.karlov.mff.cuni.cz    4

 Using customized tuning parameters: mindgm=1; mindgv=20; mindgc=4; mindgr=1; noblas=0; minvec=7
 default implementation of scratch files=sf  


 Variables initialized (934), CPU time= 0.01 sec
 ***,CH3C6H4CN+CF3CN+BF3
 memory,500,m
 gdirect
 gthresh,energy=1.d-8,twoint=1.d-19,oneint=1.d-19,zero=1.d-15,orbital=1.d-8,grid=1.d-8
 symmetry,nosym
 geomtyp=xyz
                                                                                 ! Geometry
 geometry={
 H1        0.0176077530000000    0.6404641599999999     -0.7613515990000000
 H2        -0.0133778400000000    0.6316333020000000     0.7545505100000000
 H3        0.0240861940000000    5.7269150510000006     0.0012916600000000
 H4        0.9847960170000000    6.8998273129999994     -0.0163366190000000
 O1        0.0000000000000000    1.2272060000000000     0.0000000000000000
 O2        0.0472419370000000    6.6880053420000003     0.0025334240000000
 }
 
 
 
 basis=avdz
 
 
 
                                                                                 ! Dimer Calculation
 {rks,pbe,accu=1.d-8;orbital,2101.2}
 eab_PBE=energy
 
 
                                                                                 !monomer A
 dummy,3,4,6;                                                                    ! NOW MONOMER B IS DUMMY
 {rks,pbe,accu=1.d-8;orbital,2201.2}
 ea_PBE=energy
                                                                                 !monomer B
 dummy,1,2,5;                                                                    !NOW MONOMER A IS DUMMY
 {rks,pbe,accu=1.d-8;orbital,2301.2}
 eb_PBE=energy
 
 E_AB_int=eab_PBE-ea_PBE-eb_PBE
 
 
 text,results in hartree
 show,E_AB_int
 
 Commands  initialized (763), CPU time= 0.02 sec, 617 directives.
 Default parameters read. Elapsed time= 0.30 sec

 Checking input...
 Passed
1


                                         ***  PROGRAM SYSTEM MOLPRO  ***
                                       Copyright, TTI GmbH Stuttgart, 2015
                                    Version 2019.2 linked Jun  8 2019 11:26:33


 **********************************************************************************************************************************
 LABEL *   CH3C6H4CN+CF3CN+BF3                                                           
  64 bit mpp version                                                                     DATE: 27-Mar-20          TIME: 14:34:11  
 **********************************************************************************************************************************

 SHA1:             8135a10abc80eafa5b3ae28ffc55be4890dc4c84
 **********************************************************************************************************************************

 THRESHOLDS:

 ZERO    =  1.00D-15  ONEINT  =  1.00D-19  TWOINT  =  1.00D-19  PREFAC  =  1.00D-14  XXXXXX  =  1.00D-09  EORDER  =  1.00D-04
 ENERGY  =  1.00D-08  ETEST   =  0.00D+00  EDENS   =  0.00D+00  THRDEDEF=  1.00D-06  GRADIENT=  1.00D-02  STEP    =  1.00D-03
 ORBITAL =  1.00D-08  CIVEC   =  1.00D-05  COEFF   =  1.00D-04  PRINTCI =  5.00D-02  PUNCHCI =  9.90D+01  OPTGRAD =  3.00D-04
 OPTENERG=  1.00D-06  OPTSTEP =  3.00D-04  THRGRAD =  1.00D-10  COMPRESS=  1.00D-11  VARMIN  =  1.00D-07  VARMAX  =  1.00D-03
 THRDOUB =  0.00D+00  THRDIV  =  1.00D-05  THRRED  =  1.00D-07  THRPSP  =  1.00D+00  THRDC   =  1.00D-10  THRCS   =  1.00D-10
 THRNRM  =  1.00D-08  THREQ   =  0.00D+00  THRDE   =  1.00D+00  THRREF  =  1.00D-05  SPARFAC =  1.00D+00  THRDLP  =  1.00D-07
 THRDIA  =  1.00D-10  THRDLS  =  1.00D-07  THRGPS  =  0.00D+00  THRKEX  =  0.00D+00  THRDIS  =  2.00D-01  THRVAR  =  1.00D-10
 THRLOC  =  1.00D-06  THRGAP  =  1.00D-06  THRLOCT = -1.00D+00  THRGAPT = -1.00D+00  THRORB  =  1.00D-06  THRMLTP =  0.00D+00
 THRCPQCI=  1.00D-10  KEXTA   =  0.00D+00  THRCOARS=  0.00D+00  SYMTOL  =  1.00D-06  GRADTOL =  1.00D-06  THROVL  =  1.00D-08
 THRORTH =  1.00D-08  GRID    =  1.00D-08  GRIDMAX =  1.00D-03  DTMAX   =  0.00D+00  THROCCDE=  1.00D-01  THROCCDE=  1.00D-01
 THRPRINT=  2.50D-01


 Variable memory set to  500000000 words,  buffer space 

 SETTING GEOMTYP        =    XYZ
 ZSYMEL=NOSYM

 SETTING BASIS          =    AVDZ


 Recomputing integrals since basis changed


 Using spherical harmonics

 Library entry H      S aug-cc-pVDZ          selected for orbital group  1
 Library entry H      P aug-cc-pVDZ          selected for orbital group  1
 Library entry O      S aug-cc-pVDZ          selected for orbital group  2
 Library entry O      P aug-cc-pVDZ          selected for orbital group  2
 Library entry O      D aug-cc-pVDZ          selected for orbital group  2


 PROGRAM * SEWARD (Integral evaluation for generally contracted gaussian basis sets)     Author: Roland Lindh, 1990

 Geometry written to block  1 of record 700


 Point group  C1  



 ATOMIC COORDINATES

 NR  ATOM    CHARGE       X              Y              Z

   1  H1      1.00    0.033273831    1.210301855   -1.438746007
   2  H2      1.00   -0.025280454    1.193613952    1.425893811
   3  H3      1.00    0.045516310   10.822300985    0.002440884
   4  H4      1.00    1.860994761   13.038783928   -0.030871736
   5  O1      8.00    0.000000000    2.319083238    0.000000000
   6  O2      8.00    0.089274323   12.638498416    0.004787478

 Bond lengths in Bohr (Angstrom)

 1-5  1.816726005  2-5  1.816726005  3-6  1.816726005  4-6  1.816726006
     ( 0.961370000)     ( 0.961370000)     ( 0.961370001)     ( 0.961370001)

 Bond angles

  1-5-2  104.10700004   3-6-4  104.10699993

 NUCLEAR CHARGE:                   20
 NUMBER OF PRIMITIVE AOS:         118
 NUMBER OF SYMMETRY AOS:          114
 NUMBER OF CONTRACTIONS:           82   (   82A   )
 NUMBER OF CORE ORBITALS:           2   (    2A   )
 NUMBER OF VALENCE ORBITALS:       12   (   12A   )


 NUCLEAR REPULSION ENERGY   27.94938092


 Eigenvalues of metric

         1 0.258E-02 0.293E-02 0.297E-02 0.298E-02 0.103E-01 0.112E-01 0.161E-01 0.163E-01


 OPERATOR DM      FOR CENTER  0  COORDINATES:    0.000000    0.000000    0.000000


 **********************************************************************************************************************************
 DATASETS  * FILE   NREC   LENGTH (MB)   RECORD NAMES
              1      18       30.29       500      610      700      900      950      970     1000      129      960     1100   
                                          VAR    BASINP    GEOM    SYMINP    ZMAT    AOBASIS   BASIS     P2S    ABASIS      S 
                                         1400     1410     1200     1210     1080     1600     1650     1700   
                                           T        V       H0       H01     AOSYM     SMH    MOLCAS    OPER   

 PROGRAMS   *        TOTAL       INT
 CPU TIMES  *         0.45      0.27
 REAL TIME  *         2.00 SEC
 DISK USED  *        30.66 MB (local),      122.64 MB (total)
 GA USED    *         0.00 MB       (max)       0.00 MB       (current)
 **********************************************************************************************************************************

 Density functional group PBE=PBEX+PBEC
 Functional: PBEX(Automatically generated (new) PBEX)                          Gradient terms: 1
 Functional: PBEC(Automatically generated (new) PBEC)                          Gradient terms: 1
 Use libxcgrid:  F
 Use grid at  1800.2

 Functional: PBEX                      Factor:  1.0000
 Functional: PBEC                      Factor:  1.0000

 Generated new metagrid on record  1800.2 with target accuracy 1.0D-08 and 59304 points in CPU time    0.2
 Computed new grid on record 1800.1 in CPU time    0.2
   69126 words reserved for DFT integration

 PROGRAM * RKS-SCF (Restricted closed shell Kohn-Sham)     Authors: W. Meyer, H.-J. Werner, P.J. Knowles, 1993

 NUMBER OF ELECTRONS:      10+   10-    SPACE SYMMETRY=1    SPIN SYMMETRY: Singlet 
 CONVERGENCE THRESHOLDS:    1.00E-04 (Density)    1.00E-08 (Energy)
 INTEGRAL THRESHOLDS:       1.00E-11 (Initial)    1.00E-11 (Final)
 MAX. NUMBER OF ITERATIONS:       60
 INTERPOLATION TYPE:            DIIS
 INTERPOLATION STEPS:              2 (START)      1 (STEP)
 LEVEL SHIFTS:                  0.00 (CLOSED)  0.00 (OPEN) 



 Use fine grid record 1800.2 for energy threshold  1.0D-08
 Orbital guess generated from atomic densities. Full valence occupancy:   14

 Molecular orbital dump at record        2101.2

 Initial occupancy:  10

 Direct Fock-matrix evaluation.        Authors: Roland Lindh & Martin Schuetz (1993/96)

 Integral Threshold:                  0.1D-10
 Threshold for writing integrals:     0.1D-06
 Prescreening on density matrix:        ON 
 Calculation will be performed fully direct        

 ITERATION   DDIFF            GRAD            ENERGY        2-EL.EN.            DIPOLE MOMENTS         DIIS   CPU(IT)  CPU(TOT)
    1      0.000D+00      0.000D+00      -152.57025858    214.661553    0.84646   -1.78066   -0.02480    0      6.4     10.9     start
    2      0.000D+00      0.163D-01      -151.94880166    184.870382   -0.24382    0.34329    0.00689    1      3.1     14.0     diag
    3      0.447D-01      0.365D-01      -152.71878425    205.924729    0.56181   -1.20817   -0.01646    2      2.6     16.6     diag
    4      0.301D-01      0.695D-03      -152.71915846    205.395121    0.54832   -1.19138   -0.01607    3      2.0     18.6     diag
    5      0.891D-03      0.181D-03      -152.71917402    205.452712    0.54744   -1.18448   -0.01604    4      1.7     20.3     diag
    6      0.159D-03      0.594D-04      -152.71917514    205.471944    0.54716   -1.18708   -0.01605    5      2.0     22.3     diag
    7      0.745D-04      0.400D-04      -152.71917600    205.476888    0.54809   -1.18746   -0.01606    6      1.7     24.0     diag
    8      0.357D-04      0.111D-05      -152.71917600    205.477410    0.54811   -1.18745   -0.01607    7      2.2     26.2     diag
    9      0.107D-05      0.176D-06      -152.71917600    205.477535    0.54810   -1.18747   -0.01606    0      3.2     29.4     orth

 Final occupancy:  10

 !RKS STATE  1.1 Energy              -152.719175997308
 Nuclear energy                        27.94938092
 One-electron energy                 -264.95048403
 Two-electron energy                  102.73876756
 Density functional                   -18.45684045     PBEX=-17.80592350 PBEC= -0.65091695
 Virial quotient                       -1.00567955
 !RKS STATE  1.1 Dipole moment          0.54810043    -1.18747180    -0.01606437
 Dipole moment /Debye                   1.39304110    -3.01805457    -0.04082888

 Orbital energies:

         1.1          2.1          3.1          4.1          5.1          6.1          7.1          8.1          9.1         10.1
    -18.784716   -18.772560    -0.939244    -0.927120    -0.489433    -0.477275    -0.349718    -0.337230    -0.270757    -0.258782

        11.1         12.1
     -0.041081    -0.024760


 HOMO     10.1    -0.258782 =      -7.0418eV
 LUMO     11.1    -0.041081 =      -1.1179eV
 LUMO-HOMO         0.217701 =       5.9239eV


 **********************************************************************************************************************************
 DATASETS  * FILE   NREC   LENGTH (MB)   RECORD NAMES
              1      19       30.29       500      610      700      900      950      970     1000      129      960     1100   
                                          VAR    BASINP    GEOM    SYMINP    ZMAT    AOBASIS   BASIS     P2S    ABASIS      S 
                                         1400     1410     1200     1210     1080     1600     1650     1700     1800   
                                           T        V       H0       H01     AOSYM     SMH    MOLCAS    OPER     GRID   

              2       5        2.98       700     1000      520     1800     2101   
                                         GEOM     BASIS   MCVARS    GRID      RKS  

 PROGRAMS   *        TOTAL   RKS-SCF       INT
 CPU TIMES  *        30.08     29.63      0.27
 REAL TIME  *        34.26 SEC
 DISK USED  *        33.76 MB (local),      135.02 MB (total)
 SF USED    *         0.08 MB
 GA USED    *         1.96 MB       (max)       1.96 MB       (current)
 **********************************************************************************************************************************
 SETTING EAB_PBE        =      -152.71917600  AU                              

 Dummy atoms: H3  H4  O2


 Recomputing one-electron integrals since nuclear charges changed


 PROGRAM * SEWARD (Integral evaluation for generally contracted gaussian basis sets)     Author: Roland Lindh, 1990

 Geometry written to block  1 of record 700


 Point group  C1  



 ATOMIC COORDINATES

 NR  ATOM    CHARGE       X              Y              Z

   1  H1      1.00    0.033273831    1.210301855   -1.438746007
   2  H2      1.00   -0.025280454    1.193613952    1.425893811
   3  H3      0.00    0.045516310   10.822300985    0.002440884
   4  H4      0.00    1.860994761   13.038783928   -0.030871736
   5  O1      8.00    0.000000000    2.319083238    0.000000000
   6  O2      0.00    0.089274323   12.638498416    0.004787478

 Bond lengths in Bohr (Angstrom)

 1-5  1.816726005  2-5  1.816726005  3-6  1.816726005  4-6  1.816726006
     ( 0.961370000)     ( 0.961370000)     ( 0.961370001)     ( 0.961370001)

 Bond angles

  1-5-2  104.10700004   3-6-4  104.10699993

 NUCLEAR CHARGE:                   10
 NUMBER OF PRIMITIVE AOS:         118
 NUMBER OF SYMMETRY AOS:          114
 NUMBER OF CONTRACTIONS:           82   (   82A   )
 NUMBER OF CORE ORBITALS:           1   (    1A   )
 NUMBER OF VALENCE ORBITALS:        6   (    6A   )

 MOLECULE CHANGED: INITIALIZING OCCUPATION AND DUMP RECORDS


 NUCLEAR REPULSION ENERGY    9.15605699


 Eigenvalues of metric

         1 0.258E-02 0.293E-02 0.297E-02 0.298E-02 0.103E-01 0.112E-01 0.161E-01 0.163E-01


 OPERATOR DM      FOR CENTER  0  COORDINATES:    0.000000    0.000000    0.000000


 **********************************************************************************************************************************
 DATASETS  * FILE   NREC   LENGTH (MB)   RECORD NAMES
              1      19       30.29       500      610      700      900      950      970     1000      129      960     1100   
                                          VAR    BASINP    GEOM    SYMINP    ZMAT    AOBASIS   BASIS     P2S    ABASIS      S 
                                         1400     1410     1200     1210     1080     1600     1650     1700     1800   
                                           T        V       H0       H01     AOSYM     SMH    MOLCAS    OPER     GRID   

              2       5        2.98       700     1000      520     1800     2101   
                                         GEOM     BASIS   MCVARS    GRID      RKS  

 PROGRAMS   *        TOTAL       INT   RKS-SCF       INT
 CPU TIMES  *        30.11      0.03     29.63      0.27
 REAL TIME  *        34.36 SEC
 DISK USED  *        33.76 MB (local),      135.02 MB (total)
 SF USED    *         0.08 MB
 GA USED    *         1.96 MB       (max)       1.96 MB       (current)
 **********************************************************************************************************************************

 Density functional group PBE=PBEX+PBEC
 Functional: PBEX(Automatically generated (new) PBEX)                          Gradient terms: 1
 Functional: PBEC(Automatically generated (new) PBEC)                          Gradient terms: 1
 Use libxcgrid:  F
 Use grid at  1800.2

 Functional: PBEX                      Factor:  1.0000
 Functional: PBEC                      Factor:  1.0000

 Generated new metagrid on record  1800.2 with target accuracy 1.0D-08 and 59304 points in CPU time    0.2
 Computed new grid on record 1800.1 in CPU time    0.2
   69126 words reserved for DFT integration

 PROGRAM * RKS-SCF (Restricted closed shell Kohn-Sham)     Authors: W. Meyer, H.-J. Werner, P.J. Knowles, 1993

 NUMBER OF ELECTRONS:       5+    5-    SPACE SYMMETRY=1    SPIN SYMMETRY: Singlet 
 CONVERGENCE THRESHOLDS:    1.00E-04 (Density)    1.00E-08 (Energy)
 INTEGRAL THRESHOLDS:       1.00E-11 (Initial)    1.00E-11 (Final)
 MAX. NUMBER OF ITERATIONS:       60
 INTERPOLATION TYPE:            DIIS
 INTERPOLATION STEPS:              2 (START)      1 (STEP)
 LEVEL SHIFTS:                  0.00 (CLOSED)  0.00 (OPEN) 



 Use fine grid record 1800.2 for energy threshold  1.0D-08
 Orbital guess generated from atomic densities. Full valence occupancy:    7

 Molecular orbital dump at record        2201.2

 Initial occupancy:   5

 Direct Fock-matrix evaluation.        Authors: Roland Lindh & Martin Schuetz (1993/96)

 Integral Threshold:                  0.1D-10
 Threshold for writing integrals:     0.1D-06
 Prescreening on density matrix:        ON 
 Calculation will be performed fully direct        

 ITERATION   DDIFF            GRAD            ENERGY        2-EL.EN.            DIPOLE MOMENTS         DIIS   CPU(IT)  CPU(TOT)
    1      0.000D+00      0.000D+00       -76.28419562     97.670673    0.00387   -1.08952   -0.00627    0      6.5     11.7     start
    2      0.000D+00      0.158D-01       -75.96833113     82.761497   -0.00085    0.28427    0.00165    1      3.2     14.9     diag
    3      0.317D-01      0.355D-01       -76.35894982     93.306637    0.00253   -0.72579   -0.00418    2      2.8     17.7     diag
    4      0.215D-01      0.670D-03       -76.35913752     93.041375    0.00248   -0.71220   -0.00410    3      2.6     20.4     diag
    5      0.632D-03      0.175D-03       -76.35914555     93.071854    0.00247   -0.70888   -0.00408    4      2.2     22.6     diag
    6      0.106D-03      0.457D-04       -76.35914620     93.083388    0.00248   -0.71061   -0.00409    5      1.9     24.5     diag
    7      0.300D-04      0.159D-05       -76.35914620     93.083805    0.00248   -0.71062   -0.00409    6      1.6     26.0     diag
    8      0.107D-05      0.944D-07       -76.35914620     93.083883    0.00248   -0.71063   -0.00409    0      1.6     27.6     orth

 Final occupancy:   5

 !RKS STATE  1.1 Energy               -76.359146200763
 Nuclear energy                         9.15605699
 One-electron energy                 -122.82882554
 Two-electron energy                   46.54194128
 Density functional                    -9.22831893     PBEX=-8.90286932 PBEC=-0.32544961
 Virial quotient                       -1.00566034
 !RKS STATE  1.1 Dipole moment          0.00247676    -0.71062639    -0.00409103
 Dipole moment /Debye                   0.00629488    -1.80611383    -0.01039769

 Orbital energies:

         1.1          2.1          3.1          4.1          5.1          6.1          7.1
    -18.779530    -0.934125    -0.484361    -0.344042    -0.265524    -0.034650     0.019044


 HOMO      5.1    -0.265524 =      -7.2253eV
 LUMO      6.1    -0.034650 =      -0.9429eV
 LUMO-HOMO         0.230874 =       6.2824eV


 **********************************************************************************************************************************
 DATASETS  * FILE   NREC   LENGTH (MB)   RECORD NAMES
              1      19       30.29       500      610      700      900      950      970     1000      129      960     1100   
                                          VAR    BASINP    GEOM    SYMINP    ZMAT    AOBASIS   BASIS     P2S    ABASIS      S 
                                         1400     1410     1200     1210     1080     1600     1650     1700     1800   
                                           T        V       H0       H01     AOSYM     SMH    MOLCAS    OPER     GRID   

              2       6        5.74       700     1000      520     1800     2101     2201   
                                         GEOM     BASIS   MCVARS    GRID      RKS      RKS  

 PROGRAMS   *        TOTAL   RKS-SCF       INT   RKS-SCF       INT
 CPU TIMES  *        57.95     27.83      0.03     29.63      0.27
 REAL TIME  *        62.75 SEC
 DISK USED  *        36.49 MB (local),      145.96 MB (total)
 SF USED    *         0.08 MB
 GA USED    *         1.96 MB       (max)       1.96 MB       (current)
 **********************************************************************************************************************************
 SETTING EA_PBE         =       -76.35914620  AU                              

 Dummy atoms: H1  H2  O1


 Recomputing one-electron integrals since nuclear charges changed


 PROGRAM * SEWARD (Integral evaluation for generally contracted gaussian basis sets)     Author: Roland Lindh, 1990

 Geometry written to block  1 of record 700


 Point group  C1  



 ATOMIC COORDINATES

 NR  ATOM    CHARGE       X              Y              Z

   1  H1      0.00    0.033273831    1.210301855   -1.438746007
   2  H2      0.00   -0.025280454    1.193613952    1.425893811
   3  H3      1.00    0.045516310   10.822300985    0.002440884
   4  H4      1.00    1.860994761   13.038783928   -0.030871736
   5  O1      0.00    0.000000000    2.319083238    0.000000000
   6  O2      8.00    0.089274323   12.638498416    0.004787478

 Bond lengths in Bohr (Angstrom)

 1-5  1.816726005  2-5  1.816726005  3-6  1.816726005  4-6  1.816726006
     ( 0.961370000)     ( 0.961370000)     ( 0.961370001)     ( 0.961370001)

 Bond angles

  1-5-2  104.10700004   3-6-4  104.10699993

 NUCLEAR CHARGE:                   10
 NUMBER OF PRIMITIVE AOS:         118
 NUMBER OF SYMMETRY AOS:          114
 NUMBER OF CONTRACTIONS:           82   (   82A   )
 NUMBER OF CORE ORBITALS:           1   (    1A   )
 NUMBER OF VALENCE ORBITALS:        6   (    6A   )

 MOLECULE CHANGED: INITIALIZING OCCUPATION AND DUMP RECORDS


 NUCLEAR REPULSION ENERGY    9.15605698


 Eigenvalues of metric

         1 0.258E-02 0.293E-02 0.297E-02 0.298E-02 0.103E-01 0.112E-01 0.161E-01 0.163E-01


 OPERATOR DM      FOR CENTER  0  COORDINATES:    0.000000    0.000000    0.000000


 **********************************************************************************************************************************
 DATASETS  * FILE   NREC   LENGTH (MB)   RECORD NAMES
              1      19       30.29       500      610      700      900      950      970     1000      129      960     1100   
                                          VAR    BASINP    GEOM    SYMINP    ZMAT    AOBASIS   BASIS     P2S    ABASIS      S 
                                         1400     1410     1200     1210     1080     1600     1650     1700     1800   
                                           T        V       H0       H01     AOSYM     SMH    MOLCAS    OPER     GRID   

              2       6        5.74       700     1000      520     1800     2101     2201   
                                         GEOM     BASIS   MCVARS    GRID      RKS      RKS  

 PROGRAMS   *        TOTAL       INT   RKS-SCF       INT   RKS-SCF       INT
 CPU TIMES  *        57.97      0.02     27.83      0.03     29.63      0.27
 REAL TIME  *        62.84 SEC
 DISK USED  *        36.49 MB (local),      145.96 MB (total)
 SF USED    *         0.08 MB
 GA USED    *         1.96 MB       (max)       1.96 MB       (current)
 **********************************************************************************************************************************

 Density functional group PBE=PBEX+PBEC
 Functional: PBEX(Automatically generated (new) PBEX)                          Gradient terms: 1
 Functional: PBEC(Automatically generated (new) PBEC)                          Gradient terms: 1
 Use libxcgrid:  F
 Use grid at  1800.2

 Functional: PBEX                      Factor:  1.0000
 Functional: PBEC                      Factor:  1.0000

   69126 words reserved for DFT integration

 PROGRAM * RKS-SCF (Restricted closed shell Kohn-Sham)     Authors: W. Meyer, H.-J. Werner, P.J. Knowles, 1993

 NUMBER OF ELECTRONS:       5+    5-    SPACE SYMMETRY=1    SPIN SYMMETRY: Singlet 
 CONVERGENCE THRESHOLDS:    1.00E-04 (Density)    1.00E-08 (Energy)
 INTEGRAL THRESHOLDS:       1.00E-11 (Initial)    1.00E-11 (Final)
 MAX. NUMBER OF ITERATIONS:       60
 INTERPOLATION TYPE:            DIIS
 INTERPOLATION STEPS:              2 (START)      1 (STEP)
 LEVEL SHIFTS:                  0.00 (CLOSED)  0.00 (OPEN) 



 Use fine grid record 1800.2 for energy threshold  1.0D-08
 Orbital guess generated from atomic densities. Full valence occupancy:    7

 Molecular orbital dump at record        2301.2

 Initial occupancy:   5

 Direct Fock-matrix evaluation.        Authors: Roland Lindh & Martin Schuetz (1993/96)

 Integral Threshold:                  0.1D-10
 Threshold for writing integrals:     0.1D-06
 Prescreening on density matrix:        ON 
 Calculation will be performed fully direct        

 ITERATION   DDIFF            GRAD            ENERGY        2-EL.EN.            DIPOLE MOMENTS         DIIS   CPU(IT)  CPU(TOT)
    1      0.000D+00      0.000D+00       -76.28418851     97.670720    0.84259   -0.69038   -0.01853    0      3.4      6.6     start
    2      0.000D+00      0.158D-01       -75.96827146     82.760139   -0.21994    0.18325    0.00485    1      1.8      8.5     diag
    3      0.316D-01      0.355D-01       -76.35894532     93.306727    0.56148   -0.46021   -0.01235    2      2.2     10.7     diag
    4      0.213D-01      0.671D-03       -76.35913327     93.041307    0.55104   -0.45160   -0.01212    3      1.8     12.5     diag
    5      0.629D-03      0.175D-03       -76.35914132     93.071778    0.54845   -0.44950   -0.01206    4      1.6     14.1     diag
    6      0.106D-03      0.457D-04       -76.35914197     93.083333    0.54979   -0.45059   -0.01209    5      1.7     15.8     diag
    7      0.299D-04      0.160D-05       -76.35914198     93.083753    0.54979   -0.45060   -0.01209    6      1.6     17.4     diag
    8      0.108D-05      0.966D-07       -76.35914198     93.083831    0.54980   -0.45060   -0.01209    0      1.6     19.0     orth

 Final occupancy:   5

 !RKS STATE  1.1 Energy               -76.359141975475
 Nuclear energy                         9.15605698
 One-electron energy                 -122.82880687
 Two-electron energy                   46.54191554
 Density functional                    -9.22830763     PBEX=-8.90285930 PBEC=-0.32544834
 Virial quotient                       -1.00566074
 !RKS STATE  1.1 Dipole moment          0.54979886    -0.45060203    -0.01209298
 Dipole moment /Debye                   1.39735779    -1.14524112    -0.03073527

 Orbital energies:

         1.1          2.1          3.1          4.1          5.1          6.1          7.1
    -18.779527    -0.934128    -0.484363    -0.344043    -0.265529    -0.034822     0.016356


 HOMO      5.1    -0.265529 =      -7.2254eV
 LUMO      6.1    -0.034822 =      -0.9476eV
 LUMO-HOMO         0.230707 =       6.2779eV


 **********************************************************************************************************************************
 DATASETS  * FILE   NREC   LENGTH (MB)   RECORD NAMES
              1      19       30.29       500      610      700      900      950      970     1000      129      960     1100   
                                          VAR    BASINP    GEOM    SYMINP    ZMAT    AOBASIS   BASIS     P2S    ABASIS      S 
                                         1400     1410     1200     1210     1080     1600     1650     1700     1800   
                                           T        V       H0       H01     AOSYM     SMH    MOLCAS    OPER     GRID   

              2       7        8.50       700     1000      520     1800     2101     2201     2301   
                                         GEOM     BASIS   MCVARS    GRID      RKS      RKS      RKS  

 PROGRAMS   *        TOTAL   RKS-SCF       INT   RKS-SCF       INT   RKS-SCF       INT
 CPU TIMES  *        76.96     18.98      0.02     27.83      0.03     29.63      0.27
 REAL TIME  *        82.26 SEC
 DISK USED  *        39.25 MB (local),      157.01 MB (total)
 SF USED    *         0.08 MB
 GA USED    *         1.96 MB       (max)       1.96 MB       (current)
 **********************************************************************************************************************************
 SETTING EB_PBE         =       -76.35914198  AU                              
 SETTING E_AB_INT       =        -0.00088782  AU                              

 *** results in hartree
 E_AB_INT         =        -0.00088782 AU
 Molecular orbitals read from record     2301.2  Type=RKS/CANONICAL (state 1.1)
 Occupation numbers read from record     2301.2  Type=RKS/RHF (state 1.1)
 Orbital energies read from record       2301.2  Type=RKS/CANONICAL (state 1.1)
 Redundancy group numbers read from rec  2301.2  Type=RKS/RHF (state 1.1)

 RPBE/aug-cc-pVDZ energy=    -76.359141975475

         RKS-SCF         RKS-SCF         RKS-SCF
    -76.35914198    -76.35914620   -152.71917600
 **********************************************************************************************************************************
 Molpro calculation terminated
