
 Primary working directories    : /scratch/sirous/43034/molpro.Fza8JvP90z
 Secondary working directories  : /scratch/sirous/43034/molpro.Fza8JvP90z
 Wavefunction directory         : /scratch/sirous/43034/
 Main file repository           : /scratch/sirous/43034/molpro.Fza8JvP90z/

 id        : karlovklimes

 Nodes                      nprocs
 nc-07.cc.karlov.mff.cuni.cz    4

 Using customized tuning parameters: mindgm=1; mindgv=20; mindgc=4; mindgr=1; noblas=0; minvec=7
 default implementation of scratch files=sf  


 Variables initialized (934), CPU time= 0.00 sec
 ***,CH3C6H4CN+CF3CN+BF3
 memory,500,m
 gdirect
 gthresh,energy=1.d-8,twoint=1.d-15,oneint=1.d-15,zero=1.d-15,orbital=1.d-8,grid=1.d-8
 symmetry,nosym
 geomtyp=xyz
                                                                                 ! Geometry
 geometry={
 O1        -0.702196054    -0.056060256     0.009942262
 H1        -1.022193224    0.846775782     -0.011488714
 H2        0.257521062    0.042121496     0.005218999
 O2        2.168412795    0.027128386     0.000743343
 H3        2.545034410    -0.411251680     0.766867725
 H4        2.540677112    -0.449084589     -0.744659159
 }
 
 
 
 basis=avdz
 
 
 
                                                                                 ! Dimer Calculation
 {rhf,accu=1.d-8;orbital,2101.2}
 eab_HF=energy
 
 
                                                                                 !monomer A
 dummy,4,5,6;                                                                    ! NOW MONOMER B IS DUMMY
 {rhf,accu=1.d-8;orbital,2201.2}
 ea_HF=energy
                                                                                 !monomer B
 dummy,1,2,3;                                                                    !NOW MONOMER A IS DUMMY
 {rhf,accu=1.d-8;orbital,2301.2}
 eb_HF=energy
 
 E_AB_int=eab_HF-ea_HF-eb_HF
 
 
 text,results in hartree
 show,E_AB_int
 
 Commands  initialized (763), CPU time= 0.02 sec, 617 directives.
 Default parameters read. Elapsed time= 0.21 sec

 Checking input...
 Passed
1


                                         ***  PROGRAM SYSTEM MOLPRO  ***
                                       Copyright, TTI GmbH Stuttgart, 2015
                                    Version 2019.2 linked Jun  8 2019 11:26:33


 **********************************************************************************************************************************
 LABEL *   CH3C6H4CN+CF3CN+BF3                                                           
  64 bit mpp version                                                                     DATE: 06-Oct-19          TIME: 17:33:33  
 **********************************************************************************************************************************

 SHA1:             8135a10abc80eafa5b3ae28ffc55be4890dc4c84
 **********************************************************************************************************************************

 THRESHOLDS:

 ZERO    =  1.00D-15  ONEINT  =  1.00D-15  TWOINT  =  1.00D-15  PREFAC  =  1.00D-14  XXXXXX  =  1.00D-09  EORDER  =  1.00D-04
 ENERGY  =  1.00D-08  ETEST   =  0.00D+00  EDENS   =  0.00D+00  THRDEDEF=  1.00D-06  GRADIENT=  1.00D-02  STEP    =  1.00D-03
 ORBITAL =  1.00D-08  CIVEC   =  1.00D-05  COEFF   =  1.00D-04  PRINTCI =  5.00D-02  PUNCHCI =  9.90D+01  OPTGRAD =  3.00D-04
 OPTENERG=  1.00D-06  OPTSTEP =  3.00D-04  THRGRAD =  1.00D-10  COMPRESS=  1.00D-11  VARMIN  =  1.00D-07  VARMAX  =  1.00D-03
 THRDOUB =  0.00D+00  THRDIV  =  1.00D-05  THRRED  =  1.00D-07  THRPSP  =  1.00D+00  THRDC   =  1.00D-10  THRCS   =  1.00D-10
 THRNRM  =  1.00D-08  THREQ   =  0.00D+00  THRDE   =  1.00D+00  THRREF  =  1.00D-05  SPARFAC =  1.00D+00  THRDLP  =  1.00D-07
 THRDIA  =  1.00D-10  THRDLS  =  1.00D-07  THRGPS  =  0.00D+00  THRKEX  =  0.00D+00  THRDIS  =  2.00D-01  THRVAR  =  1.00D-10
 THRLOC  =  1.00D-06  THRGAP  =  1.00D-06  THRLOCT = -1.00D+00  THRGAPT = -1.00D+00  THRORB  =  1.00D-06  THRMLTP =  0.00D+00
 THRCPQCI=  1.00D-10  KEXTA   =  0.00D+00  THRCOARS=  0.00D+00  SYMTOL  =  1.00D-06  GRADTOL =  1.00D-06  THROVL  =  1.00D-08
 THRORTH =  1.00D-08  GRID    =  1.00D-08  GRIDMAX =  1.00D-03  DTMAX   =  0.00D+00  THROCCDE=  1.00D-01  THROCCDE=  1.00D-01
 THRPRINT=  2.50D-01


 Variable memory set to  500000000 words,  buffer space 

 SETTING GEOMTYP        =    XYZ
 ZSYMEL=NOSYM

 SETTING BASIS          =    AVDZ


 Recomputing integrals since basis changed


 Using spherical harmonics

 Library entry O      S aug-cc-pVDZ          selected for orbital group  1
 Library entry O      P aug-cc-pVDZ          selected for orbital group  1
 Library entry O      D aug-cc-pVDZ          selected for orbital group  1
 Library entry H      S aug-cc-pVDZ          selected for orbital group  2
 Library entry H      P aug-cc-pVDZ          selected for orbital group  2


 PROGRAM * SEWARD (Integral evaluation for generally contracted gaussian basis sets)     Author: Roland Lindh, 1990

 Geometry written to block  1 of record 700


 Point group  C1  



 ATOMIC COORDINATES

 NR  ATOM    CHARGE       X              Y              Z

   1  O1      8.00   -1.326958228   -0.105938530    0.018788152
   2  H1      1.00   -1.931665240    1.600174317   -0.021710523
   3  H2      1.00    0.486644278    0.079598091    0.009862479
   4  O2      8.00    4.097706308    0.051265220    0.001404715
   5  H3      1.00    4.809418012   -0.777153043    1.449169974
   6  H4      1.00    4.801183913   -0.848646880   -1.407201867

 Bond lengths in Bohr (Angstrom)

 1-2  1.810561173  1-3  1.823090112  4-5  1.813514438  4-6  1.813531094
     ( 0.958107712)     ( 0.964737741)     ( 0.959670512)     ( 0.959679326)

 Bond angles

  2-1-3  103.66482512   5-4-6  103.95523303

 NUCLEAR CHARGE:                   20
 NUMBER OF PRIMITIVE AOS:         118
 NUMBER OF SYMMETRY AOS:          114
 NUMBER OF CONTRACTIONS:           82   (   82A   )
 NUMBER OF CORE ORBITALS:           2   (    2A   )
 NUMBER OF VALENCE ORBITALS:       12   (   12A   )


 NUCLEAR REPULSION ENERGY   36.85345265

 Eigenvalues of metric

         1 0.164E-02 0.214E-02 0.261E-02 0.286E-02 0.610E-02 0.898E-02 0.113E-01 0.153E-01


 OPERATOR DM      FOR CENTER  0  COORDINATES:    0.000000    0.000000    0.000000


 **********************************************************************************************************************************
 DATASETS  * FILE   NREC   LENGTH (MB)   RECORD NAMES
              1      18       30.29       500      610      700      900      950      970     1000      129      960     1100   
                                          VAR    BASINP    GEOM    SYMINP    ZMAT    AOBASIS   BASIS     P2S    ABASIS      S 
                                         1400     1410     1200     1210     1080     1600     1650     1700   
                                           T        V       H0       H01     AOSYM     SMH    MOLCAS    OPER   

 PROGRAMS   *        TOTAL       INT
 CPU TIMES  *         0.48      0.29
 REAL TIME  *         1.61 SEC
 DISK USED  *        30.66 MB (local),      122.64 MB (total)
 GA USED    *         0.00 MB       (max)       0.00 MB       (current)
 **********************************************************************************************************************************


 PROGRAM * RHF-SCF (CLOSED SHELL)       Authors: W. Meyer, H.-J. Werner


 NUMBER OF ELECTRONS:      10+   10-    SPACE SYMMETRY=1    SPIN SYMMETRY: Singlet 
 CONVERGENCE THRESHOLDS:    1.00E-04 (Density)    1.00E-09 (Energy)
 INTEGRAL THRESHOLDS:       1.00E-11 (Initial)    1.00E-11 (Final)
 MAX. NUMBER OF ITERATIONS:       60
 INTERPOLATION TYPE:            DIIS
 INTERPOLATION STEPS:              2 (START)      1 (STEP)
 LEVEL SHIFTS:                  0.00 (CLOSED)  0.00 (OPEN) 



 Orbital guess generated from atomic densities. Full valence occupancy:   14

 Molecular orbital dump at record        2101.2

 Initial occupancy:  10

 Direct Fock-matrix evaluation.        Authors: Roland Lindh & Martin Schuetz (1993/96)

 Integral Threshold:                  0.1D-10
 Threshold for writing integrals:     0.1D-06
 Prescreening on density matrix:        ON 
 Calculation will be performed fully direct        

 ITERATION   DDIFF            GRAD            ENERGY        2-EL.EN.            DIPOLE MOMENTS         DIIS   CPU(IT)  CPU(TOT)
    1      0.000D+00      0.000D+00      -152.02130051    191.861207    1.51286    0.08302   -0.00567    0      2.5      4.3     start
    2      0.000D+00      0.104D-01      -152.07093722    185.373616    1.10744    0.00405   -0.00276    1      1.3      5.6     diag
    3      0.179D-01      0.588D-02      -152.08783397    188.154967    1.17913    0.03771   -0.00375    2      1.3      6.9     diag
    4      0.604D-02      0.651D-03      -152.08821653    187.940668    1.16355    0.03541   -0.00366    3      1.3      8.2     diag
    5      0.104D-02      0.155D-03      -152.08824525    187.960702    1.15950    0.03691   -0.00368    4      1.3      9.4     diag
    6      0.271D-03      0.347D-04      -152.08824681    187.963616    1.15883    0.03623   -0.00366    5      1.3     10.7     diag
    7      0.620D-04      0.165D-04      -152.08824704    187.962509    1.15860    0.03662   -0.00367    6      1.3     12.0     diag
    8      0.213D-04      0.305D-05      -152.08824705    187.962463    1.15851    0.03658   -0.00367    7      1.3     13.2     diag
    9      0.698D-05      0.492D-06      -152.08824705    187.962445    1.15849    0.03658   -0.00367    0      1.2     14.4     orth

 Final occupancy:  10

 !RHF STATE  1.1 Energy              -152.088247054653
 Nuclear energy                        36.85345265
 One-electron energy                 -282.92292225
 Two-electron energy                   93.98122254
 Virial quotient                       -1.00147033
 !RHF STATE  1.1 Dipole moment          1.15849409     0.03658293    -0.00367129
 Dipole moment /Debye                   2.94440542     0.09297844    -0.00933088

 Orbital energies:

         1.1          2.1          3.1          4.1          5.1          6.1          7.1          8.1          9.1         10.1
    -20.603892   -20.543883    -1.384750    -1.323985    -0.743317    -0.694157    -0.617352    -0.558999    -0.531273    -0.478632

        11.1         12.1
      0.027668     0.054849


 HOMO     10.1    -0.478632 =     -13.0242eV
 LUMO     11.1     0.027668 =       0.7529eV
 LUMO-HOMO         0.506299 =      13.7771eV


 **********************************************************************************************************************************
 DATASETS  * FILE   NREC   LENGTH (MB)   RECORD NAMES
              1      18       30.29       500      610      700      900      950      970     1000      129      960     1100   
                                          VAR    BASINP    GEOM    SYMINP    ZMAT    AOBASIS   BASIS     P2S    ABASIS      S 
                                         1400     1410     1200     1210     1080     1600     1650     1700   
                                           T        V       H0       H01     AOSYM     SMH    MOLCAS    OPER   

              2       4        2.97       700     1000      520     2101   
                                         GEOM     BASIS   MCVARS     RHF  

 PROGRAMS   *        TOTAL   RHF-SCF       INT
 CPU TIMES  *        14.94     14.45      0.29
 REAL TIME  *        17.50 SEC
 DISK USED  *        33.75 MB (local),      135.00 MB (total)
 SF USED    *         0.08 MB
 GA USED    *         0.00 MB       (max)       0.00 MB       (current)
 **********************************************************************************************************************************
 SETTING EAB_HF         =      -152.08824705  AU                              

 Dummy atoms: O2  H3  H4


 Recomputing one-electron integrals since nuclear charges changed


 PROGRAM * SEWARD (Integral evaluation for generally contracted gaussian basis sets)     Author: Roland Lindh, 1990

 Geometry written to block  1 of record 700


 Point group  C1  



 ATOMIC COORDINATES

 NR  ATOM    CHARGE       X              Y              Z

   1  O1      8.00   -1.326958228   -0.105938530    0.018788152
   2  H1      1.00   -1.931665240    1.600174317   -0.021710523
   3  H2      1.00    0.486644278    0.079598091    0.009862479
   4  O2      0.00    4.097706308    0.051265220    0.001404715
   5  H3      0.00    4.809418012   -0.777153043    1.449169974
   6  H4      0.00    4.801183913   -0.848646880   -1.407201867

 Bond lengths in Bohr (Angstrom)

 1-2  1.810561173  1-3  1.823090112  4-5  1.813514438  4-6  1.813531094
     ( 0.958107712)     ( 0.964737741)     ( 0.959670512)     ( 0.959679326)

 Bond angles

  2-1-3  103.66482512   5-4-6  103.95523303

 NUCLEAR CHARGE:                   10
 NUMBER OF PRIMITIVE AOS:         118
 NUMBER OF SYMMETRY AOS:          114
 NUMBER OF CONTRACTIONS:           82   (   82A   )
 NUMBER OF CORE ORBITALS:           1   (    1A   )
 NUMBER OF VALENCE ORBITALS:        6   (    6A   )

 MOLECULE CHANGED: INITIALIZING OCCUPATION AND DUMP RECORDS


 NUCLEAR REPULSION ENERGY    9.15671413

 Eigenvalues of metric

         1 0.164E-02 0.214E-02 0.261E-02 0.286E-02 0.610E-02 0.898E-02 0.113E-01 0.153E-01


 OPERATOR DM      FOR CENTER  0  COORDINATES:    0.000000    0.000000    0.000000


 **********************************************************************************************************************************
 DATASETS  * FILE   NREC   LENGTH (MB)   RECORD NAMES
              1      18       30.29       500      610      700      900      950      970     1000      129      960     1100   
                                          VAR    BASINP    GEOM    SYMINP    ZMAT    AOBASIS   BASIS     P2S    ABASIS      S 
                                         1400     1410     1200     1210     1080     1600     1650     1700   
                                           T        V       H0       H01     AOSYM     SMH    MOLCAS    OPER   

              2       4        2.97       700     1000      520     2101   
                                         GEOM     BASIS   MCVARS     RHF  

 PROGRAMS   *        TOTAL       INT   RHF-SCF       INT
 CPU TIMES  *        14.98      0.04     14.45      0.29
 REAL TIME  *        17.61 SEC
 DISK USED  *        33.75 MB (local),      135.00 MB (total)
 SF USED    *         0.08 MB
 GA USED    *         0.00 MB       (max)       0.00 MB       (current)
 **********************************************************************************************************************************


 PROGRAM * RHF-SCF (CLOSED SHELL)       Authors: W. Meyer, H.-J. Werner


 NUMBER OF ELECTRONS:       5+    5-    SPACE SYMMETRY=1    SPIN SYMMETRY: Singlet 
 CONVERGENCE THRESHOLDS:    1.00E-04 (Density)    1.00E-09 (Energy)
 INTEGRAL THRESHOLDS:       1.00E-11 (Initial)    1.00E-11 (Final)
 MAX. NUMBER OF ITERATIONS:       60
 INTERPOLATION TYPE:            DIIS
 INTERPOLATION STEPS:              2 (START)      1 (STEP)
 LEVEL SHIFTS:                  0.00 (CLOSED)  0.00 (OPEN) 



 Orbital guess generated from atomic densities. Full valence occupancy:    7

 Molecular orbital dump at record        2201.2

 Initial occupancy:   5

 Direct Fock-matrix evaluation.        Authors: Roland Lindh & Martin Schuetz (1993/96)

 Integral Threshold:                  0.1D-10
 Threshold for writing integrals:     0.1D-06
 Prescreening on density matrix:        ON 
 Calculation will be performed fully direct        

 ITERATION   DDIFF            GRAD            ENERGY        2-EL.EN.            DIPOLE MOMENTS         DIIS   CPU(IT)  CPU(TOT)
    1      0.000D+00      0.000D+00       -76.00409168     77.476388    0.61982    0.96623   -0.02525    0      2.4      4.8     start
    2      0.000D+00      0.105D-01       -76.03063183     73.977927    0.36751    0.57669   -0.01506    1      1.3      6.1     diag
    3      0.131D-01      0.627D-02       -76.04096645     75.512868    0.42960    0.67341   -0.01759    2      1.3      7.4     diag
    4      0.461D-02      0.626D-03       -76.04115139     75.403351    0.42655    0.66939   -0.01749    3      1.3      8.6     diag
    5      0.711D-03      0.159D-03       -76.04116703     75.417365    0.42603    0.66885   -0.01747    4      1.3      9.9     diag
    6      0.204D-03      0.274D-04       -76.04116778     75.417924    0.42600    0.66889   -0.01747    5      1.3     11.2     diag
    7      0.406D-04      0.501D-05       -76.04116781     75.417791    0.42594    0.66881   -0.01747    6      1.3     12.4     diag
    8      0.925D-05      0.865D-06       -76.04116781     75.417787    0.42593    0.66880   -0.01747    0      1.3     13.7     orth

 Final occupancy:   5

 !RHF STATE  1.1 Energy               -76.041167813880
 Nuclear energy                         9.15671413
 One-electron energy                 -122.90677546
 Two-electron energy                   37.70889352
 Virial quotient                       -1.00169752
 !RHF STATE  1.1 Dipole moment          0.42592787     0.66879603    -0.01747025
 Dipole moment /Debye                   1.08252975     1.69979862    -0.04440204

 Orbital energies:

         1.1          2.1          3.1          4.1          5.1          6.1          7.1
    -20.578311    -1.355101    -0.715319    -0.586461    -0.509303     0.026319     0.050735


 HOMO      5.1    -0.509303 =     -13.8588eV
 LUMO      6.1     0.026319 =       0.7162eV
 LUMO-HOMO         0.535622 =      14.5750eV


 **********************************************************************************************************************************
 DATASETS  * FILE   NREC   LENGTH (MB)   RECORD NAMES
              1      18       30.29       500      610      700      900      950      970     1000      129      960     1100   
                                          VAR    BASINP    GEOM    SYMINP    ZMAT    AOBASIS   BASIS     P2S    ABASIS      S 
                                         1400     1410     1200     1210     1080     1600     1650     1700   
                                           T        V       H0       H01     AOSYM     SMH    MOLCAS    OPER   

              2       5        5.74       700     1000      520     2101     2201   
                                         GEOM     BASIS   MCVARS     RHF      RHF  

 PROGRAMS   *        TOTAL   RHF-SCF       INT   RHF-SCF       INT
 CPU TIMES  *        28.71     13.72      0.04     14.45      0.29
 REAL TIME  *        31.62 SEC
 DISK USED  *        36.49 MB (local),      145.94 MB (total)
 SF USED    *         0.08 MB
 GA USED    *         0.00 MB       (max)       0.00 MB       (current)
 **********************************************************************************************************************************
 SETTING EA_HF          =       -76.04116781  AU                              

 Dummy atoms: O1  H1  H2


 Recomputing one-electron integrals since nuclear charges changed


 PROGRAM * SEWARD (Integral evaluation for generally contracted gaussian basis sets)     Author: Roland Lindh, 1990

 Geometry written to block  1 of record 700


 Point group  C1  



 ATOMIC COORDINATES

 NR  ATOM    CHARGE       X              Y              Z

   1  O1      0.00   -1.326958228   -0.105938530    0.018788152
   2  H1      0.00   -1.931665240    1.600174317   -0.021710523
   3  H2      0.00    0.486644278    0.079598091    0.009862479
   4  O2      8.00    4.097706308    0.051265220    0.001404715
   5  H3      1.00    4.809418012   -0.777153043    1.449169974
   6  H4      1.00    4.801183913   -0.848646880   -1.407201867

 Bond lengths in Bohr (Angstrom)

 1-2  1.810561173  1-3  1.823090112  4-5  1.813514438  4-6  1.813531094
     ( 0.958107712)     ( 0.964737741)     ( 0.959670512)     ( 0.959679326)

 Bond angles

  2-1-3  103.66482512   5-4-6  103.95523303

 NUCLEAR CHARGE:                   10
 NUMBER OF PRIMITIVE AOS:         118
 NUMBER OF SYMMETRY AOS:          114
 NUMBER OF CONTRACTIONS:           82   (   82A   )
 NUMBER OF CORE ORBITALS:           1   (    1A   )
 NUMBER OF VALENCE ORBITALS:        6   (    6A   )

 MOLECULE CHANGED: INITIALIZING OCCUPATION AND DUMP RECORDS


 NUCLEAR REPULSION ENERGY    9.17259115

 Eigenvalues of metric

         1 0.164E-02 0.214E-02 0.261E-02 0.286E-02 0.610E-02 0.898E-02 0.113E-01 0.153E-01


 OPERATOR DM      FOR CENTER  0  COORDINATES:    0.000000    0.000000    0.000000


 **********************************************************************************************************************************
 DATASETS  * FILE   NREC   LENGTH (MB)   RECORD NAMES
              1      18       30.29       500      610      700      900      950      970     1000      129      960     1100   
                                          VAR    BASINP    GEOM    SYMINP    ZMAT    AOBASIS   BASIS     P2S    ABASIS      S 
                                         1400     1410     1200     1210     1080     1600     1650     1700   
                                           T        V       H0       H01     AOSYM     SMH    MOLCAS    OPER   

              2       5        5.74       700     1000      520     2101     2201   
                                         GEOM     BASIS   MCVARS     RHF      RHF  

 PROGRAMS   *        TOTAL       INT   RHF-SCF       INT   RHF-SCF       INT
 CPU TIMES  *        28.72      0.01     13.72      0.04     14.45      0.29
 REAL TIME  *        31.73 SEC
 DISK USED  *        36.49 MB (local),      145.94 MB (total)
 SF USED    *         0.08 MB
 GA USED    *         0.00 MB       (max)       0.00 MB       (current)
 **********************************************************************************************************************************


 PROGRAM * RHF-SCF (CLOSED SHELL)       Authors: W. Meyer, H.-J. Werner


 NUMBER OF ELECTRONS:       5+    5-    SPACE SYMMETRY=1    SPIN SYMMETRY: Singlet 
 CONVERGENCE THRESHOLDS:    1.00E-04 (Density)    1.00E-09 (Energy)
 INTEGRAL THRESHOLDS:       1.00E-11 (Initial)    1.00E-11 (Final)
 MAX. NUMBER OF ITERATIONS:       60
 INTERPOLATION TYPE:            DIIS
 INTERPOLATION STEPS:              2 (START)      1 (STEP)
 LEVEL SHIFTS:                  0.00 (CLOSED)  0.00 (OPEN) 



 Orbital guess generated from atomic densities. Full valence occupancy:    7

 Molecular orbital dump at record        2301.2

 Initial occupancy:   5

 Direct Fock-matrix evaluation.        Authors: Roland Lindh & Martin Schuetz (1993/96)

 Integral Threshold:                  0.1D-10
 Threshold for writing integrals:     0.1D-06
 Prescreening on density matrix:        ON 
 Calculation will be performed fully direct        

 ITERATION   DDIFF            GRAD            ENERGY        2-EL.EN.            DIPOLE MOMENTS         DIIS   CPU(IT)  CPU(TOT)
    1      0.000D+00      0.000D+00       -76.00456480     77.503658    0.72124   -0.88261    0.02000    0      2.4      4.8     start
    2      0.000D+00      0.105D-01       -76.03109778     74.008958    0.42838   -0.52604    0.01193    1      1.3      6.1     diag
    3      0.132D-01      0.626D-02       -76.04137644     75.539107    0.50093   -0.61420    0.01392    2      1.3      7.4     diag
    4      0.462D-02      0.623D-03       -76.04155991     75.430695    0.49769   -0.61036    0.01384    3      1.3      8.6     diag
    5      0.703D-03      0.158D-03       -76.04157527     75.444696    0.49718   -0.60979    0.01382    4      1.3      9.9     diag
    6      0.200D-03      0.271D-04       -76.04157600     75.445203    0.49720   -0.60981    0.01382    5      1.3     11.2     diag
    7      0.388D-04      0.493D-05       -76.04157603     75.445084    0.49714   -0.60974    0.01382    6      1.3     12.5     diag
    8      0.923D-05      0.851D-06       -76.04157603     75.445080    0.49713   -0.60973    0.01382    0      1.3     13.7     orth

 Final occupancy:   5

 !RHF STATE  1.1 Energy               -76.041576030748
 Nuclear energy                         9.17259115
 One-electron energy                 -122.93670704
 Two-electron energy                   37.72253986
 Virial quotient                       -1.00166560
 !RHF STATE  1.1 Dipole moment          0.49713388    -0.60972946     0.01382150
 Dipole moment /Debye                   1.26350553    -1.54967619     0.03512844

 Orbital energies:

         1.1          2.1          3.1          4.1          5.1          6.1          7.1
    -20.578113    -1.355666    -0.716638    -0.586079    -0.509318     0.032573     0.054606


 HOMO      5.1    -0.509318 =     -13.8592eV
 LUMO      6.1     0.032573 =       0.8864eV
 LUMO-HOMO         0.541891 =      14.7456eV


 **********************************************************************************************************************************
 DATASETS  * FILE   NREC   LENGTH (MB)   RECORD NAMES
              1      18       30.29       500      610      700      900      950      970     1000      129      960     1100   
                                          VAR    BASINP    GEOM    SYMINP    ZMAT    AOBASIS   BASIS     P2S    ABASIS      S 
                                         1400     1410     1200     1210     1080     1600     1650     1700   
                                           T        V       H0       H01     AOSYM     SMH    MOLCAS    OPER   

              2       6        8.50       700     1000      520     2101     2201     2301   
                                         GEOM     BASIS   MCVARS     RHF      RHF      RHF  

 PROGRAMS   *        TOTAL   RHF-SCF       INT   RHF-SCF       INT   RHF-SCF       INT
 CPU TIMES  *        42.48     13.76      0.01     13.72      0.04     14.45      0.29
 REAL TIME  *        45.84 SEC
 DISK USED  *        39.25 MB (local),      156.99 MB (total)
 SF USED    *         0.08 MB
 GA USED    *         0.00 MB       (max)       0.00 MB       (current)
 **********************************************************************************************************************************
 SETTING EB_HF          =       -76.04157603  AU                              
 SETTING E_AB_INT       =        -0.00550321  AU                              

 *** results in hartree
 E_AB_INT         =        -0.00550321 AU
 Molecular orbitals read from record     2301.2  Type=RHF/CANONICAL (state 1.1)
 Occupation numbers read from record     2301.2  Type=RHF/RHF (state 1.1)
 Orbital energies read from record       2301.2  Type=RHF/CANONICAL (state 1.1)
 Redundancy group numbers read from rec  2301.2  Type=RHF/RHF (state 1.1)

 RHF/aug-cc-pVDZ energy=    -76.041576030748

         RHF-SCF         RHF-SCF         RHF-SCF
    -76.04157603    -76.04116781   -152.08824705
 **********************************************************************************************************************************
 Molpro calculation terminated
