
 Primary working directories    : /scratch/sirous/44677/molpro.7N6ekBMVE0
 Secondary working directories  : /scratch/sirous/44677/molpro.7N6ekBMVE0
 Wavefunction directory         : /scratch/sirous/44677/
 Main file repository           : /scratch/sirous/44677/molpro.7N6ekBMVE0/

 id        : karlovklimes

 Nodes                      nprocs
 nc-12.cc.karlov.mff.cuni.cz    4

 Using customized tuning parameters: mindgm=1; mindgv=20; mindgc=4; mindgr=1; noblas=0; minvec=7
 default implementation of scratch files=sf  


 Variables initialized (934), CPU time= 0.01 sec
 ***,CH3C6H4CN+CF3CN+BF3
 memory,500,m
 gdirect
 gthresh,energy=1.d-8,twoint=1.d-19,oneint=1.d-19,zero=1.d-15,orbital=1.d-8,grid=1.d-8
 symmetry,nosym
 geomtyp=xyz
                                                                                 ! Geometry
 geometry={
 O1        -0.786562022    0.045168441     -0.007189119
 H1        0.177706774    0.012695896     -0.006835389
 C1        -1.247990941    -1.290283536     0.001083621
 H2        -2.334277443    -1.2588971     0.0002212
 H3        -0.925965746    -1.849768096     -0.880445382
 H4        -0.927027831    -1.838462882     0.89007652
 O2        6.328547439085825    -0.1891585892888164     -0.00023287900873631036
 H5        6.767751578085825    0.1989936097111836     -0.7601055610087363
 H6        6.766431733085825    0.21344568971118358     0.7528566529912637
 }
 
 
 
 basis=aug-cc-pv5z
 
 
 
                                                                                 ! Dimer Calculation
 {rks,pbe,accu=1.d-8;orbital,2101.2}
 eab_PBE=energy
 
 
                                                                                 !monomer A
 dummy,7,8,9;                                                                    ! NOW MONOMER B IS DUMMY
 {rks,pbe,accu=1.d-8;orbital,2201.2}
 ea_PBE=energy
                                                                                 !monomer B
 dummy,1,2,3,4,5,6;                                                              !NOW MONOMER A IS DUMMY
 {rks,pbe,accu=1.d-8;orbital,2301.2}
 eb_PBE=energy
 
 E_AB_int=eab_PBE-ea_PBE-eb_PBE
 
 
 text,results in hartree
 show,E_AB_int
 
 Commands  initialized (763), CPU time= 0.01 sec, 617 directives.
 Default parameters read. Elapsed time= 0.22 sec

 Checking input...
 Passed
1


                                         ***  PROGRAM SYSTEM MOLPRO  ***
                                       Copyright, TTI GmbH Stuttgart, 2015
                                    Version 2019.2 linked Jun  8 2019 11:26:33


 **********************************************************************************************************************************
 LABEL *   CH3C6H4CN+CF3CN+BF3                                                           
  64 bit mpp version                                                                     DATE: 13-Oct-19          TIME: 09:59:10  
 **********************************************************************************************************************************

 SHA1:             8135a10abc80eafa5b3ae28ffc55be4890dc4c84
 **********************************************************************************************************************************

 THRESHOLDS:

 ZERO    =  1.00D-15  ONEINT  =  1.00D-19  TWOINT  =  1.00D-19  PREFAC  =  1.00D-14  XXXXXX  =  1.00D-09  EORDER  =  1.00D-04
 ENERGY  =  1.00D-08  ETEST   =  0.00D+00  EDENS   =  0.00D+00  THRDEDEF=  1.00D-06  GRADIENT=  1.00D-02  STEP    =  1.00D-03
 ORBITAL =  1.00D-08  CIVEC   =  1.00D-05  COEFF   =  1.00D-04  PRINTCI =  5.00D-02  PUNCHCI =  9.90D+01  OPTGRAD =  3.00D-04
 OPTENERG=  1.00D-06  OPTSTEP =  3.00D-04  THRGRAD =  1.00D-10  COMPRESS=  1.00D-11  VARMIN  =  1.00D-07  VARMAX  =  1.00D-03
 THRDOUB =  0.00D+00  THRDIV  =  1.00D-05  THRRED  =  1.00D-07  THRPSP  =  1.00D+00  THRDC   =  1.00D-10  THRCS   =  1.00D-10
 THRNRM  =  1.00D-08  THREQ   =  0.00D+00  THRDE   =  1.00D+00  THRREF  =  1.00D-05  SPARFAC =  1.00D+00  THRDLP  =  1.00D-07
 THRDIA  =  1.00D-10  THRDLS  =  1.00D-07  THRGPS  =  0.00D+00  THRKEX  =  0.00D+00  THRDIS  =  2.00D-01  THRVAR  =  1.00D-10
 THRLOC  =  1.00D-06  THRGAP  =  1.00D-06  THRLOCT = -1.00D+00  THRGAPT = -1.00D+00  THRORB  =  1.00D-06  THRMLTP =  0.00D+00
 THRCPQCI=  1.00D-10  KEXTA   =  0.00D+00  THRCOARS=  0.00D+00  SYMTOL  =  1.00D-06  GRADTOL =  1.00D-06  THROVL  =  1.00D-08
 THRORTH =  1.00D-08  GRID    =  1.00D-08  GRIDMAX =  1.00D-03  DTMAX   =  0.00D+00  THROCCDE=  1.00D-01  THROCCDE=  1.00D-01
 THRPRINT=  2.50D-01


 Variable memory set to  500000000 words,  buffer space 

 SETTING GEOMTYP        =    XYZ
 ZSYMEL=NOSYM

 SETTING BASIS          =    AUG-CC-PV5Z


 Recomputing integrals since basis changed


 Using spherical harmonics

 Library entry O      S aug-cc-pV5Z          selected for orbital group  1
 Library entry O      P aug-cc-pV5Z          selected for orbital group  1
 Library entry O      D aug-cc-pV5Z          selected for orbital group  1
 Library entry O      F aug-cc-pV5Z          selected for orbital group  1
 Library entry O      G aug-cc-pV5Z          selected for orbital group  1
 Library entry O      H aug-cc-pV5Z          selected for orbital group  1
 Library entry H      S aug-cc-pV5Z          selected for orbital group  2
 Library entry H      P aug-cc-pV5Z          selected for orbital group  2
 Library entry H      D aug-cc-pV5Z          selected for orbital group  2
 Library entry H      F aug-cc-pV5Z          selected for orbital group  2
 Library entry H      G aug-cc-pV5Z          selected for orbital group  2
 Library entry C      S aug-cc-pV5Z          selected for orbital group  3
 Library entry C      P aug-cc-pV5Z          selected for orbital group  3
 Library entry C      D aug-cc-pV5Z          selected for orbital group  3
 Library entry C      F aug-cc-pV5Z          selected for orbital group  3
 Library entry C      G aug-cc-pV5Z          selected for orbital group  3
 Library entry C      H aug-cc-pV5Z          selected for orbital group  3


 PROGRAM * SEWARD (Integral evaluation for generally contracted gaussian basis sets)     Author: Roland Lindh, 1990

 Geometry written to block  1 of record 700


 Point group  C1  



 ATOMIC COORDINATES

 NR  ATOM    CHARGE       X              Y              Z

   1  O1      8.00   -1.486386802    0.085355983   -0.013585466
   2  H1      1.00    0.335817133    0.023991766   -0.012917013
   3  C1      6.00   -2.358361084   -2.438282506    0.002047747
   4  H2      1.00   -4.411145066   -2.378970738    0.000418007
   5  H3      1.00   -1.749821661   -3.495555095   -1.663800640
   6  H4      1.00   -1.751828710   -3.474191337    1.682000853
   7  O2      8.00   11.959221426   -0.357457928   -0.000440078
   8  H5      1.00   12.789196962    0.376043423   -1.436391336
   9  H6      1.00   12.786702816    0.403353896    1.422692885

 Bond lengths in Bohr (Angstrom)

 1-2  1.823237010  1-3  2.670081416  3-4  2.053641307  3-5  2.064750931  3-6  2.064759324
     ( 0.964815476)     ( 1.412946237)     ( 1.086740179)     ( 1.092619139)     ( 1.092623580)

 7-8  1.813515822  7-9  1.813523507
     ( 0.959671245)     ( 0.959675312)

 Bond angles

  1-3-4  107.40559298   1-3-5  112.51964705   1-3-6  112.52114043   2-1-3  107.13200477

  4-3-5  107.98411747   4-3-6  107.98497413   5-3-6  108.23763291   8-7-9  104.05491273

 NUCLEAR CHARGE:                   28
 NUMBER OF PRIMITIVE AOS:        1245
 NUMBER OF SYMMETRY AOS:          930
 NUMBER OF CONTRACTIONS:          861   (  861A   )
 NUMBER OF CORE ORBITALS:           3   (    3A   )
 NUMBER OF VALENCE ORBITALS:       18   (   18A   )


 NUCLEAR REPULSION ENERGY   62.40092635


 Eigenvalues of metric

         1 0.214E-05 0.253E-05 0.290E-05 0.381E-05 0.688E-05 0.100E-04 0.109E-04 0.137E-04


 OPERATOR DM      FOR CENTER  0  COORDINATES:    0.000000    0.000000    0.000000


 **********************************************************************************************************************************
 DATASETS  * FILE   NREC   LENGTH (MB)   RECORD NAMES
              1      18       57.10       500      610      700      900      950      970     1000      129      960     1100   
                                          VAR    BASINP    GEOM    SYMINP    ZMAT    AOBASIS   BASIS     P2S    ABASIS      S 
                                         1400     1410     1200     1210     1080     1600     1650     1700   
                                           T        V       H0       H01     AOSYM     SMH    MOLCAS    OPER   

 PROGRAMS   *        TOTAL       INT
 CPU TIMES  *         1.53      1.35
 REAL TIME  *         2.95 SEC
 DISK USED  *        57.81 MB (local),      231.24 MB (total)
 GA USED    *         0.00 MB       (max)       0.00 MB       (current)
 **********************************************************************************************************************************

 Density functional group PBE=PBEX+PBEC
 Functional: PBEX(Automatically generated (new) PBEX)                          Gradient terms: 1
 Functional: PBEC(Automatically generated (new) PBEC)                          Gradient terms: 1
 Use libxcgrid:  F
 Use grid at  1800.2

 Functional: PBEX                      Factor:  1.0000
 Functional: PBEC                      Factor:  1.0000

 Generated new metagrid on record  1800.2 with target accuracy 1.0D-08 and 86236 points in CPU time    0.3
 Computed new grid on record 1800.1 in CPU time    0.4
  695676 words reserved for DFT integration

 PROGRAM * RKS-SCF (Restricted closed shell Kohn-Sham)     Authors: W. Meyer, H.-J. Werner, P.J. Knowles, 1993

 NUMBER OF ELECTRONS:      14+   14-    SPACE SYMMETRY=1    SPIN SYMMETRY: Singlet 
 CONVERGENCE THRESHOLDS:    1.00E-04 (Density)    1.00E-08 (Energy)
 INTEGRAL THRESHOLDS:       1.00E-12 (Initial)    1.00E-12 (Final)
 MAX. NUMBER OF ITERATIONS:       60
 INTERPOLATION TYPE:            DIIS
 INTERPOLATION STEPS:              2 (START)      1 (STEP)
 LEVEL SHIFTS:                  0.00 (CLOSED)  0.00 (OPEN) 



 Use fine grid record 1800.2 for energy threshold  1.0D-08
 Orbital guess generated from atomic densities. Full valence occupancy:   21

 Molecular orbital dump at record        2101.2

 Initial occupancy:  14

 Direct Fock-matrix evaluation.        Authors: Roland Lindh & Martin Schuetz (1993/96)

 Integral Threshold:                  0.1D-11
 Threshold for writing integrals:     0.1D-06
 Prescreening on density matrix:        ON 
 Calculation will be performed fully direct        

 ITERATION   DDIFF            GRAD            ENERGY        2-EL.EN.            DIPOLE MOMENTS         DIIS   CPU(IT)  CPU(TOT)
    1      0.000D+00      0.000D+00      -191.84105168    323.917890    1.44971   -0.03670   -0.00141    0    966.3    984.2     start
    2      0.000D+00      0.446D-02      -191.20354899    287.096915   -0.46736   -0.10029    0.00135    1    960.6   1944.8     diag
    3      0.523D-02      0.935D-02      -192.02215894    312.383770    0.94982   -0.05483   -0.00082    2    959.8   2904.6     diag
    4      0.367D-02      0.898D-03      -192.02869040    312.200781    0.93032   -0.00973   -0.00099    3    912.9   3817.5     diag
    5      0.574D-03      0.407D-03      -192.03034944    311.826691    0.91884   -0.02393   -0.00089    4    896.6   4714.1     diag
    6      0.229D-03      0.767D-04      -192.03038187    311.843422    0.91735   -0.01473   -0.00096    5    862.9   5577.0     diag
    7      0.383D-04      0.414D-04      -192.03039492    311.877338    0.91752   -0.02309   -0.00091    6    826.8   6403.8     diag
    8      0.166D-04      0.984D-05      -192.03039576    311.887071    0.91863   -0.02171   -0.00092    7    795.4   7199.2     diag
    9      0.362D-05      0.481D-06      -192.03039576    311.886947    0.91849   -0.02165   -0.00092    8    706.6   7905.8     diag
   10      0.257D-06      0.112D-06      -192.03039576    311.886859    0.91855   -0.02172   -0.00092    0    629.0   8534.7     orth

 Final occupancy:  14

 !RKS STATE  1.1 Energy              -192.030395764346
 Nuclear energy                        62.40092635
 One-electron energy                 -385.77139062
 Two-electron energy                  155.94342964
 Density functional                   -24.60336113     PBEX=-23.69808501 PBEC= -0.90527612
 Virial quotient                       -1.00351562
 !RKS STATE  1.1 Dipole moment          0.91855499    -0.02172089    -0.00091613
 Dipole moment /Debye                   2.33458099    -0.05520538    -0.00232841

 Orbital energies:

         1.1          2.1          3.1          4.1          5.1          6.1          7.1          8.1          9.1         10.1
    -18.757502   -18.749436    -9.917849    -0.935175    -0.934281    -0.616489    -0.486565    -0.458883    -0.388989    -0.379251

        11.1         12.1         13.1         14.1         15.1         16.1
     -0.346790    -0.292653    -0.269238    -0.228610    -0.037230    -0.020481


 HOMO     14.1    -0.228610 =      -6.2208eV
 LUMO     15.1    -0.037230 =      -1.0131eV
 LUMO-HOMO         0.191380 =       5.2077eV


 **********************************************************************************************************************************
 DATASETS  * FILE   NREC   LENGTH (MB)   RECORD NAMES
              1      19       57.10       500      610      700      900      950      970     1000      129      960     1100   
                                          VAR    BASINP    GEOM    SYMINP    ZMAT    AOBASIS   BASIS     P2S    ABASIS      S 
                                         1400     1410     1200     1210     1080     1600     1650     1700     1800   
                                           T        V       H0       H01     AOSYM     SMH    MOLCAS    OPER     GRID   

              2       5       17.90       700     1000      520     1800     2101   
                                         GEOM     BASIS   MCVARS    GRID      RKS  

 PROGRAMS   *        TOTAL   RKS-SCF       INT
 CPU TIMES  *      8538.01   8536.48      1.35
 REAL TIME  *      8567.71 SEC
 DISK USED  *       125.66 MB (local),      502.65 MB (total)
 SF USED    *         8.91 MB
 GA USED    *         2.83 MB       (max)       2.83 MB       (current)
 **********************************************************************************************************************************
 SETTING EAB_PBE        =      -192.03039576  AU                              

 Dummy atoms: O2  H5  H6


 Recomputing one-electron integrals since nuclear charges changed


 PROGRAM * SEWARD (Integral evaluation for generally contracted gaussian basis sets)     Author: Roland Lindh, 1990

 Geometry written to block  1 of record 700


 Point group  C1  



 ATOMIC COORDINATES

 NR  ATOM    CHARGE       X              Y              Z

   1  O1      8.00   -1.486386802    0.085355983   -0.013585466
   2  H1      1.00    0.335817133    0.023991766   -0.012917013
   3  C1      6.00   -2.358361084   -2.438282506    0.002047747
   4  H2      1.00   -4.411145066   -2.378970738    0.000418007
   5  H3      1.00   -1.749821661   -3.495555095   -1.663800640
   6  H4      1.00   -1.751828710   -3.474191337    1.682000853
   7  O2      0.00   11.959221426   -0.357457928   -0.000440078
   8  H5      0.00   12.789196962    0.376043423   -1.436391336
   9  H6      0.00   12.786702816    0.403353896    1.422692885

 Bond lengths in Bohr (Angstrom)

 1-2  1.823237010  1-3  2.670081416  3-4  2.053641307  3-5  2.064750931  3-6  2.064759324
     ( 0.964815476)     ( 1.412946237)     ( 1.086740179)     ( 1.092619139)     ( 1.092623580)

 7-8  1.813515822  7-9  1.813523507
     ( 0.959671245)     ( 0.959675312)

 Bond angles

  1-3-4  107.40559298   1-3-5  112.51964705   1-3-6  112.52114043   2-1-3  107.13200477

  4-3-5  107.98411747   4-3-6  107.98497413   5-3-6  108.23763291   8-7-9  104.05491273

 NUCLEAR CHARGE:                   18
 NUMBER OF PRIMITIVE AOS:        1245
 NUMBER OF SYMMETRY AOS:          930
 NUMBER OF CONTRACTIONS:          861   (  861A   )
 NUMBER OF CORE ORBITALS:           2   (    2A   )
 NUMBER OF VALENCE ORBITALS:       12   (   12A   )

 MOLECULE CHANGED: INITIALIZING OCCUPATION AND DUMP RECORDS


 NUCLEAR REPULSION ENERGY   40.42326361


 Eigenvalues of metric

         1 0.214E-05 0.253E-05 0.290E-05 0.381E-05 0.688E-05 0.100E-04 0.109E-04 0.137E-04


 OPERATOR DM      FOR CENTER  0  COORDINATES:    0.000000    0.000000    0.000000


 **********************************************************************************************************************************
 DATASETS  * FILE   NREC   LENGTH (MB)   RECORD NAMES
              1      19       57.10       500      610      700      900      950      970     1000      129      960     1100   
                                          VAR    BASINP    GEOM    SYMINP    ZMAT    AOBASIS   BASIS     P2S    ABASIS      S 
                                         1400     1410     1200     1210     1080     1600     1650     1700     1800   
                                           T        V       H0       H01     AOSYM     SMH    MOLCAS    OPER     GRID   

              2       5       17.90       700     1000      520     1800     2101   
                                         GEOM     BASIS   MCVARS    GRID      RKS  

 PROGRAMS   *        TOTAL       INT   RKS-SCF       INT
 CPU TIMES  *      8539.11      1.09   8536.48      1.35
 REAL TIME  *      8568.95 SEC
 DISK USED  *       125.66 MB (local),      502.65 MB (total)
 SF USED    *         8.91 MB
 GA USED    *         2.83 MB       (max)       2.83 MB       (current)
 **********************************************************************************************************************************

 Density functional group PBE=PBEX+PBEC
 Functional: PBEX(Automatically generated (new) PBEX)                          Gradient terms: 1
 Functional: PBEC(Automatically generated (new) PBEC)                          Gradient terms: 1
 Use libxcgrid:  F
 Use grid at  1800.2

 Functional: PBEX                      Factor:  1.0000
 Functional: PBEC                      Factor:  1.0000

 Generated new metagrid on record  1800.2 with target accuracy 1.0D-08 and 86236 points in CPU time    0.2
 Computed new grid on record 1800.1 in CPU time    0.3
  695676 words reserved for DFT integration

 PROGRAM * RKS-SCF (Restricted closed shell Kohn-Sham)     Authors: W. Meyer, H.-J. Werner, P.J. Knowles, 1993

 NUMBER OF ELECTRONS:       9+    9-    SPACE SYMMETRY=1    SPIN SYMMETRY: Singlet 
 CONVERGENCE THRESHOLDS:    1.00E-04 (Density)    1.00E-08 (Energy)
 INTEGRAL THRESHOLDS:       1.00E-12 (Initial)    1.00E-12 (Final)
 MAX. NUMBER OF ITERATIONS:       60
 INTERPOLATION TYPE:            DIIS
 INTERPOLATION STEPS:              2 (START)      1 (STEP)
 LEVEL SHIFTS:                  0.00 (CLOSED)  0.00 (OPEN) 



 Use fine grid record 1800.2 for energy threshold  1.0D-08
 Orbital guess generated from atomic densities. Full valence occupancy:   14

 Molecular orbital dump at record        2201.2

 Initial occupancy:   9

 Direct Fock-matrix evaluation.        Authors: Roland Lindh & Martin Schuetz (1993/96)

 Integral Threshold:                  0.1D-11
 Threshold for writing integrals:     0.1D-06
 Prescreening on density matrix:        ON 
 Calculation will be performed fully direct        

 ITERATION   DDIFF            GRAD            ENERGY        2-EL.EN.            DIPOLE MOMENTS         DIIS   CPU(IT)  CPU(TOT)
    1      0.000D+00      0.000D+00      -115.53891662    199.963114    0.63310   -0.77289    0.00491    0    947.7    963.8     start
    2      0.000D+00      0.387D-02      -115.28685032    179.704068   -0.20929    0.19943   -0.00133    1    948.4   1912.2     diag
    3      0.403D-02      0.744D-02      -115.63522562    193.281243    0.38584   -0.61940    0.00391    2    946.1   2858.3     diag
    4      0.281D-02      0.105D-02      -115.64126610    193.063130    0.38272   -0.48345    0.00305    3    887.7   3746.0     diag
    5      0.449D-03      0.331D-03      -115.64191196    192.885812    0.37781   -0.49301    0.00312    4    872.1   4618.0     diag
    6      0.161D-03      0.554D-04      -115.64192924    192.917900    0.37643   -0.49623    0.00313    5    835.0   5453.0     diag
    7      0.272D-04      0.771D-05      -115.64192960    192.929586    0.37738   -0.49741    0.00314    6    759.7   6212.7     diag
    8      0.302D-05      0.701D-06      -115.64192960    192.929346    0.37716   -0.49718    0.00314    7    646.3   6859.1     diag
    9      0.379D-06      0.189D-06      -115.64192960    192.929162    0.37726   -0.49725    0.00314    0    587.7   7446.8     orth

 Final occupancy:   9

 !RKS STATE  1.1 Energy              -115.641929601821
 Nuclear energy                        40.42326361
 One-electron energy                 -237.16643745
 Two-electron energy                   96.46458083
 Density functional                   -15.36333660     PBEX=-14.78247093 PBEC= -0.58086567
 Virial quotient                       -1.00364932
 !RKS STATE  1.1 Dipole moment          0.37726348    -0.49724561     0.00314105
 Dipole moment /Debye                   0.95884533    -1.26378951     0.00798324

 Orbital energies:

         1.1          2.1          3.1          4.1          5.1          6.1          7.1          8.1          9.1         10.1
    -18.752684    -9.920820    -0.938404    -0.619524    -0.462099    -0.392032    -0.382220    -0.295721    -0.231734    -0.025143

        11.1
     -0.002528


 HOMO      9.1    -0.231734 =      -6.3058eV
 LUMO     10.1    -0.025143 =      -0.6842eV
 LUMO-HOMO         0.206592 =       5.6216eV


 **********************************************************************************************************************************
 DATASETS  * FILE   NREC   LENGTH (MB)   RECORD NAMES
              1      19       57.10       500      610      700      900      950      970     1000      129      960     1100   
                                          VAR    BASINP    GEOM    SYMINP    ZMAT    AOBASIS   BASIS     P2S    ABASIS      S 
                                         1400     1410     1200     1210     1080     1600     1650     1700     1800   
                                           T        V       H0       H01     AOSYM     SMH    MOLCAS    OPER     GRID   

              2       6       50.09       700     1000      520     1800     2101     2201   
                                         GEOM     BASIS   MCVARS    GRID      RKS      RKS  

 PROGRAMS   *        TOTAL   RKS-SCF       INT   RKS-SCF       INT
 CPU TIMES  *     15987.64   7448.53      1.09   8536.48      1.35
 REAL TIME  *     16041.20 SEC
 DISK USED  *       154.88 MB (local),      619.54 MB (total)
 SF USED    *         8.91 MB
 GA USED    *         2.83 MB       (max)       2.83 MB       (current)
 **********************************************************************************************************************************
 SETTING EA_PBE         =      -115.64192960  AU                              

 Dummy atoms: O1  H1  C1  H2  H3  H4


 Recomputing one-electron integrals since nuclear charges changed


 PROGRAM * SEWARD (Integral evaluation for generally contracted gaussian basis sets)     Author: Roland Lindh, 1990

 Geometry written to block  1 of record 700


 Point group  C1  



 ATOMIC COORDINATES

 NR  ATOM    CHARGE       X              Y              Z

   1  O1      0.00   -1.486386802    0.085355983   -0.013585466
   2  H1      0.00    0.335817133    0.023991766   -0.012917013
   3  C1      0.00   -2.358361084   -2.438282506    0.002047747
   4  H2      0.00   -4.411145066   -2.378970738    0.000418007
   5  H3      0.00   -1.749821661   -3.495555095   -1.663800640
   6  H4      0.00   -1.751828710   -3.474191337    1.682000853
   7  O2      8.00   11.959221426   -0.357457928   -0.000440078
   8  H5      1.00   12.789196962    0.376043423   -1.436391336
   9  H6      1.00   12.786702816    0.403353896    1.422692885

 Bond lengths in Bohr (Angstrom)

 1-2  1.823237010  1-3  2.670081416  3-4  2.053641307  3-5  2.064750931  3-6  2.064759324
     ( 0.964815476)     ( 1.412946237)     ( 1.086740179)     ( 1.092619139)     ( 1.092623580)

 7-8  1.813515822  7-9  1.813523507
     ( 0.959671245)     ( 0.959675312)

 Bond angles

  1-3-4  107.40559298   1-3-5  112.51964705   1-3-6  112.52114043   2-1-3  107.13200477

  4-3-5  107.98411747   4-3-6  107.98497413   5-3-6  108.23763291   8-7-9  104.05491273

 NUCLEAR CHARGE:                   10
 NUMBER OF PRIMITIVE AOS:        1245
 NUMBER OF SYMMETRY AOS:          930
 NUMBER OF CONTRACTIONS:          861   (  861A   )
 NUMBER OF CORE ORBITALS:           1   (    1A   )
 NUMBER OF VALENCE ORBITALS:        6   (    6A   )

 MOLECULE CHANGED: INITIALIZING OCCUPATION AND DUMP RECORDS


 NUCLEAR REPULSION ENERGY    9.17236909


 Eigenvalues of metric

         1 0.214E-05 0.253E-05 0.290E-05 0.381E-05 0.688E-05 0.100E-04 0.109E-04 0.137E-04


 OPERATOR DM      FOR CENTER  0  COORDINATES:    0.000000    0.000000    0.000000


 **********************************************************************************************************************************
 DATASETS  * FILE   NREC   LENGTH (MB)   RECORD NAMES
              1      19       57.10       500      610      700      900      950      970     1000      129      960     1100   
                                          VAR    BASINP    GEOM    SYMINP    ZMAT    AOBASIS   BASIS     P2S    ABASIS      S 
                                         1400     1410     1200     1210     1080     1600     1650     1700     1800   
                                           T        V       H0       H01     AOSYM     SMH    MOLCAS    OPER     GRID   

              2       6       50.09       700     1000      520     1800     2101     2201   
                                         GEOM     BASIS   MCVARS    GRID      RKS      RKS  

 PROGRAMS   *        TOTAL       INT   RKS-SCF       INT   RKS-SCF       INT
 CPU TIMES  *     15988.76      1.12   7448.53      1.09   8536.48      1.35
 REAL TIME  *     16042.44 SEC
 DISK USED  *       154.88 MB (local),      619.54 MB (total)
 SF USED    *         8.91 MB
 GA USED    *         2.83 MB       (max)       2.83 MB       (current)
 **********************************************************************************************************************************

 Density functional group PBE=PBEX+PBEC
 Functional: PBEX(Automatically generated (new) PBEX)                          Gradient terms: 1
 Functional: PBEC(Automatically generated (new) PBEC)                          Gradient terms: 1
 Use libxcgrid:  F
 Use grid at  1800.2

 Functional: PBEX                      Factor:  1.0000
 Functional: PBEC                      Factor:  1.0000

 Generated new metagrid on record  1800.2 with target accuracy 1.0D-08 and 86236 points in CPU time    0.3
 Computed new grid on record 1800.1 in CPU time    0.4
  695676 words reserved for DFT integration

 PROGRAM * RKS-SCF (Restricted closed shell Kohn-Sham)     Authors: W. Meyer, H.-J. Werner, P.J. Knowles, 1993

 NUMBER OF ELECTRONS:       5+    5-    SPACE SYMMETRY=1    SPIN SYMMETRY: Singlet 
 CONVERGENCE THRESHOLDS:    1.00E-04 (Density)    1.00E-08 (Energy)
 INTEGRAL THRESHOLDS:       1.00E-12 (Initial)    1.00E-12 (Final)
 MAX. NUMBER OF ITERATIONS:       60
 INTERPOLATION TYPE:            DIIS
 INTERPOLATION STEPS:              2 (START)      1 (STEP)
 LEVEL SHIFTS:                  0.00 (CLOSED)  0.00 (OPEN) 



 Use fine grid record 1800.2 for energy threshold  1.0D-08
 Orbital guess generated from atomic densities. Full valence occupancy:    7

 Molecular orbital dump at record        2301.2

 Initial occupancy:   5

 Direct Fock-matrix evaluation.        Authors: Roland Lindh & Martin Schuetz (1993/96)

 Integral Threshold:                  0.1D-11
 Threshold for writing integrals:     0.1D-06
 Prescreening on density matrix:        ON 
 Calculation will be performed fully direct        

 ITERATION   DDIFF            GRAD            ENERGY        2-EL.EN.            DIPOLE MOMENTS         DIIS   CPU(IT)  CPU(TOT)
    1      0.000D+00      0.000D+00       -76.30137800     98.261829    0.81658    0.73619   -0.00631    0    862.6    878.0     start
    2      0.000D+00      0.532D-02       -75.91102627     81.778103   -0.33116   -0.30108    0.00258    1    929.2   1807.2     diag
    3      0.331D-02      0.120D-01       -76.38767469     93.634480    0.54843    0.49447   -0.00424    2    925.4   2732.6     diag
    4      0.236D-02      0.318D-03       -76.38810042     93.228688    0.52601    0.47426   -0.00407    3    805.0   3537.6     diag
    5      0.105D-03      0.694D-04       -76.38811393     93.279883    0.52497    0.47332   -0.00406    4    619.5   4157.1     diag
    6      0.148D-04      0.154D-04       -76.38811469     93.290174    0.52669    0.47487   -0.00407    5    516.7   4673.9     diag
    7      0.296D-05      0.729D-06       -76.38811469     93.289933    0.52659    0.47478   -0.00407    6    369.6   5043.4     diag
    8      0.146D-06      0.477D-07       -76.38811469     93.290020    0.52660    0.47479   -0.00407    0    209.5   5252.9     orth

 Final occupancy:   5

 !RKS STATE  1.1 Energy               -76.388114688063
 Nuclear energy                         9.17236909
 One-electron energy                 -122.96553813
 Two-electron energy                   46.64501000
 Density functional                    -9.23995565     PBEX=-8.91555012 PBEC=-0.32440552
 Virial quotient                       -1.00329866
 !RKS STATE  1.1 Dipole moment          0.52659922     0.47479311    -0.00407364
 Dipole moment /Debye                   1.33839404     1.20672468    -0.01035348

 Orbital energies:

         1.1          2.1          3.1          4.1          5.1          6.1          7.1
    -18.754767    -0.931565    -0.483866    -0.343911    -0.266445    -0.034515     0.014434


 HOMO      5.1    -0.266445 =      -7.2504eV
 LUMO      6.1    -0.034515 =      -0.9392eV
 LUMO-HOMO         0.231930 =       6.3111eV


 **********************************************************************************************************************************
 DATASETS  * FILE   NREC   LENGTH (MB)   RECORD NAMES
              1      19       57.10       500      610      700      900      950      970     1000      129      960     1100   
                                          VAR    BASINP    GEOM    SYMINP    ZMAT    AOBASIS   BASIS     P2S    ABASIS      S 
                                         1400     1410     1200     1210     1080     1600     1650     1700     1800   
                                           T        V       H0       H01     AOSYM     SMH    MOLCAS    OPER     GRID   

              2       7       82.28       700     1000      520     1800     2101     2201     2301   
                                         GEOM     BASIS   MCVARS    GRID      RKS      RKS      RKS  

 PROGRAMS   *        TOTAL   RKS-SCF       INT   RKS-SCF       INT   RKS-SCF       INT
 CPU TIMES  *     21243.52   5254.76      1.12   7448.53      1.09   8536.48      1.35
 REAL TIME  *     21314.11 SEC
 DISK USED  *       184.11 MB (local),      736.43 MB (total)
 SF USED    *         8.91 MB
 GA USED    *         2.83 MB       (max)       2.83 MB       (current)
 **********************************************************************************************************************************
 SETTING EB_PBE         =       -76.38811469  AU                              
 SETTING E_AB_INT       =        -0.00035147  AU                              

 *** results in hartree
 E_AB_INT         =        -0.00035147 AU
 Molecular orbitals read from record     2301.2  Type=RKS/CANONICAL (state 1.1)
 Occupation numbers read from record     2301.2  Type=RKS/RHF (state 1.1)
 Orbital energies read from record       2301.2  Type=RKS/CANONICAL (state 1.1)
 Redundancy group numbers read from rec  2301.2  Type=RKS/RHF (state 1.1)

 RPBE/aug-cc-pV5Z energy=    -76.388114688063

         RKS-SCF         RKS-SCF         RKS-SCF
    -76.38811469   -115.64192960   -192.03039576
 **********************************************************************************************************************************
 Molpro calculation terminated
