
 Primary working directories    : /scratch/sirous/119599/molpro.KBCGePggpl
 Secondary working directories  : /scratch/sirous/119599/molpro.KBCGePggpl
 Wavefunction directory         : /scratch/sirous/119599/
 Main file repository           : /scratch/sirous/119599/molpro.KBCGePggpl/

 id        : karlovklimes

 Nodes                      nprocs
 nc-01.cc.karlov.mff.cuni.cz    4

 Using customized tuning parameters: mindgm=1; mindgv=20; mindgc=4; mindgr=1; noblas=0; minvec=7
 default implementation of scratch files=sf  


 Variables initialized (934), CPU time= 0.00 sec
 ***,CH3C6H4CN+CF3CN+BF3
 memory,500,m
 gdirect
 gthresh,energy=1.d-8,twoint=1.d-19,oneint=1.d-19,zero=1.d-15,orbital=1.d-8,grid=1.d-8
 symmetry,nosym
 geomtyp=xyz
                                                                                 ! Geometry
 geometry={
 N1        -0.533463968    -0.279593512     0.106995757
 H1        -0.629151376    -1.248424552     0.382848668
 H2        -1.122603635    -0.166159444     -0.707764101
 C1        -1.016909428    0.588486102     1.187373456
 H3        -0.912759674    1.625551742     0.879521158
 H4        -2.054737265    0.415082130     1.478503595
 H5        -0.385023376    0.448800896     2.060614186
 O1        2.128936430    0.931124077     0.210755642
 H6        1.311419022    0.434851589     0.037602740
 H7        2.710837879    0.672626207     -0.504990451
 }
 
 
 
 basis=avdz
 
 
 
                                                                                 ! Dimer Calculation
 {rks,pbe,accu=1.d-8;orbital,2101.2}
 eab_PBE=energy
 
 
                                                                                 !monomer A
 dummy,8,9,10;                                                                   ! NOW MONOMER B IS DUMMY
 {rks,pbe,accu=1.d-8;orbital,2201.2}
 ea_PBE=energy
                                                                                 !monomer B
 dummy,1,2,3,4,5,6,7;                                                            !NOW MONOMER A IS DUMMY
 {rks,pbe,accu=1.d-8;orbital,2301.2}
 eb_PBE=energy
 
 E_AB_int=eab_PBE-ea_PBE-eb_PBE
 
 
 text,results in hartree
 show,E_AB_int
 
 Commands  initialized (763), CPU time= 0.01 sec, 617 directives.
 Default parameters read. Elapsed time= 0.21 sec

 Checking input...
 Passed
1


                                         ***  PROGRAM SYSTEM MOLPRO  ***
                                       Copyright, TTI GmbH Stuttgart, 2015
                                    Version 2019.2 linked Jun  8 2019 11:26:33


 **********************************************************************************************************************************
 LABEL *   CH3C6H4CN+CF3CN+BF3                                                           
  64 bit mpp version                                                                     DATE: 20-Nov-19          TIME: 09:06:15  
 **********************************************************************************************************************************

 SHA1:             8135a10abc80eafa5b3ae28ffc55be4890dc4c84
 **********************************************************************************************************************************

 THRESHOLDS:

 ZERO    =  1.00D-15  ONEINT  =  1.00D-19  TWOINT  =  1.00D-19  PREFAC  =  1.00D-14  XXXXXX  =  1.00D-09  EORDER  =  1.00D-04
 ENERGY  =  1.00D-08  ETEST   =  0.00D+00  EDENS   =  0.00D+00  THRDEDEF=  1.00D-06  GRADIENT=  1.00D-02  STEP    =  1.00D-03
 ORBITAL =  1.00D-08  CIVEC   =  1.00D-05  COEFF   =  1.00D-04  PRINTCI =  5.00D-02  PUNCHCI =  9.90D+01  OPTGRAD =  3.00D-04
 OPTENERG=  1.00D-06  OPTSTEP =  3.00D-04  THRGRAD =  1.00D-10  COMPRESS=  1.00D-11  VARMIN  =  1.00D-07  VARMAX  =  1.00D-03
 THRDOUB =  0.00D+00  THRDIV  =  1.00D-05  THRRED  =  1.00D-07  THRPSP  =  1.00D+00  THRDC   =  1.00D-10  THRCS   =  1.00D-10
 THRNRM  =  1.00D-08  THREQ   =  0.00D+00  THRDE   =  1.00D+00  THRREF  =  1.00D-05  SPARFAC =  1.00D+00  THRDLP  =  1.00D-07
 THRDIA  =  1.00D-10  THRDLS  =  1.00D-07  THRGPS  =  0.00D+00  THRKEX  =  0.00D+00  THRDIS  =  2.00D-01  THRVAR  =  1.00D-10
 THRLOC  =  1.00D-06  THRGAP  =  1.00D-06  THRLOCT = -1.00D+00  THRGAPT = -1.00D+00  THRORB  =  1.00D-06  THRMLTP =  0.00D+00
 THRCPQCI=  1.00D-10  KEXTA   =  0.00D+00  THRCOARS=  0.00D+00  SYMTOL  =  1.00D-06  GRADTOL =  1.00D-06  THROVL  =  1.00D-08
 THRORTH =  1.00D-08  GRID    =  1.00D-08  GRIDMAX =  1.00D-03  DTMAX   =  0.00D+00  THROCCDE=  1.00D-01  THROCCDE=  1.00D-01
 THRPRINT=  2.50D-01


 Variable memory set to  500000000 words,  buffer space 

 SETTING GEOMTYP        =    XYZ
 ZSYMEL=NOSYM

 SETTING BASIS          =    AVDZ


 Recomputing integrals since basis changed


 Using spherical harmonics

 Library entry N      S aug-cc-pVDZ          selected for orbital group  1
 Library entry N      P aug-cc-pVDZ          selected for orbital group  1
 Library entry N      D aug-cc-pVDZ          selected for orbital group  1
 Library entry H      S aug-cc-pVDZ          selected for orbital group  2
 Library entry H      P aug-cc-pVDZ          selected for orbital group  2
 Library entry C      S aug-cc-pVDZ          selected for orbital group  3
 Library entry C      P aug-cc-pVDZ          selected for orbital group  3
 Library entry C      D aug-cc-pVDZ          selected for orbital group  3
 Library entry O      S aug-cc-pVDZ          selected for orbital group  5
 Library entry O      P aug-cc-pVDZ          selected for orbital group  5
 Library entry O      D aug-cc-pVDZ          selected for orbital group  5


 PROGRAM * SEWARD (Integral evaluation for generally contracted gaussian basis sets)     Author: Roland Lindh, 1990

 Geometry written to block  1 of record 700


 Point group  C1  



 ATOMIC COORDINATES

 NR  ATOM    CHARGE       X              Y              Z

   1  N1      7.00   -1.008100797   -0.528355164    0.202192677
   2  H1      1.00   -1.188923792   -2.359180490    0.723479130
   3  H2      1.00   -2.121413417   -0.313995842   -1.337480312
   4  C1      6.00   -1.921680312    1.112077561    2.243810639
   5  H3      1.00   -1.724865801    3.071847594    1.662054109
   6  H4      1.00   -3.882890689    0.784391545    2.793966869
   7  H5      1.00   -0.727588732    0.848110778    3.893996460
   8  O1      8.00    4.023106789    1.759569494    0.398270443
   9  H6      1.00    2.478222786    0.821750408    0.071058880
  10  H7      1.00    5.122741159    1.271079315   -0.954293648

 Bond lengths in Bohr (Angstrom)

 1-2  1.912160531  1-3  1.912068990  1-4  2.773779184  4-5  2.053746623  4-6  2.063103522
     ( 1.011871777)     ( 1.011823335)     ( 1.467820732)     ( 1.086795910)     ( 1.091747368)

  4- 7  2.053934373   8- 9  1.836637860   8-10  1.810317105
       ( 1.086895263)       ( 0.971906900)       ( 0.957978557)

 Bond angles

  1-4-5  108.92232450   1-4-6  114.54691082   1-4-7  108.89704664   2-1-3  105.77144003

  2-1-4  109.53896726   3-1-4  109.54911813   5-4-6  108.55407820   5-4-7  107.12795866

  6- 4- 7  108.54184765   9- 8-10  103.88906570

 NUCLEAR CHARGE:                   28
 NUMBER OF PRIMITIVE AOS:         188
 NUMBER OF SYMMETRY AOS:          182
 NUMBER OF CONTRACTIONS:          132   (  132A   )
 NUMBER OF CORE ORBITALS:           3   (    3A   )
 NUMBER OF VALENCE ORBITALS:       19   (   19A   )


 NUCLEAR REPULSION ENERGY   81.51587083


 Eigenvalues of metric

         1 0.222E-03 0.490E-03 0.565E-03 0.723E-03 0.912E-03 0.110E-02 0.123E-02 0.179E-02


 OPERATOR DM      FOR CENTER  0  COORDINATES:    0.000000    0.000000    0.000000


 **********************************************************************************************************************************
 DATASETS  * FILE   NREC   LENGTH (MB)   RECORD NAMES
              1      18       30.77       500      610      700      900      950      970     1000      129      960     1100   
                                          VAR    BASINP    GEOM    SYMINP    ZMAT    AOBASIS   BASIS     P2S    ABASIS      S 
                                         1400     1410     1200     1210     1080     1600     1650     1700   
                                           T        V       H0       H01     AOSYM     SMH    MOLCAS    OPER   

 PROGRAMS   *        TOTAL       INT
 CPU TIMES  *         0.60      0.42
 REAL TIME  *         1.82 SEC
 DISK USED  *        31.22 MB (local),      124.89 MB (total)
 GA USED    *         0.00 MB       (max)       0.00 MB       (current)
 **********************************************************************************************************************************

 Density functional group PBE=PBEX+PBEC
 Functional: PBEX(Automatically generated (new) PBEX)                          Gradient terms: 1
 Functional: PBEC(Automatically generated (new) PBEC)                          Gradient terms: 1
 Use libxcgrid:  F
 Use grid at  1800.2

 Functional: PBEX                      Factor:  1.0000
 Functional: PBEC                      Factor:  1.0000

 Generated new metagrid on record  1800.2 with target accuracy 1.0D-08 and 83526 points in CPU time    0.3
 Computed new grid on record 1800.1 in CPU time    0.4
  109006 words reserved for DFT integration

 PROGRAM * RKS-SCF (Restricted closed shell Kohn-Sham)     Authors: W. Meyer, H.-J. Werner, P.J. Knowles, 1993

 NUMBER OF ELECTRONS:      14+   14-    SPACE SYMMETRY=1    SPIN SYMMETRY: Singlet 
 CONVERGENCE THRESHOLDS:    1.00E-04 (Density)    1.00E-08 (Energy)
 INTEGRAL THRESHOLDS:       1.00E-11 (Initial)    1.00E-11 (Final)
 MAX. NUMBER OF ITERATIONS:       60
 INTERPOLATION TYPE:            DIIS
 INTERPOLATION STEPS:              2 (START)      1 (STEP)
 LEVEL SHIFTS:                  0.00 (CLOSED)  0.00 (OPEN) 



 Use fine grid record 1800.2 for energy threshold  1.0D-08
 Orbital guess generated from atomic densities. Full valence occupancy:   22

 Molecular orbital dump at record        2101.2

 Initial occupancy:  14

 Direct Fock-matrix evaluation.        Authors: Roland Lindh & Martin Schuetz (1993/96)

 Integral Threshold:                  0.1D-10
 Threshold for writing integrals:     0.1D-06
 Prescreening on density matrix:        ON 
 Calculation will be performed fully direct        

 ITERATION   DDIFF            GRAD            ENERGY        2-EL.EN.            DIPOLE MOMENTS         DIIS   CPU(IT)  CPU(TOT)
    1      0.000D+00      0.000D+00      -171.92525965    341.119226   -1.20201   -1.01994   -0.70105    0      3.3      5.6     start
    2      0.000D+00      0.111D-01      -171.38217916    306.453375   -0.40891    0.17506    0.42152    1      2.0      7.6     diag
    3      0.327D-01      0.222D-01      -172.10241549    329.766401   -1.01746   -0.69834   -0.40910    2      2.0      9.6     diag
    4      0.211D-01      0.226D-02      -172.10859967    329.792734   -0.96893   -0.66091   -0.36527    3      2.0     11.6     diag
    5      0.343D-02      0.101D-02      -172.10999633    329.353385   -0.95884   -0.67376   -0.38780    4      2.0     13.6     diag
    6      0.117D-02      0.282D-03      -172.11009806    329.424698   -0.96758   -0.66481   -0.37461    5      2.0     15.6     diag
    7      0.344D-03      0.111D-03      -172.11011510    329.432782   -0.96612   -0.66705   -0.37793    6      2.0     17.5     diag
    8      0.116D-03      0.152D-04      -172.11011541    329.443417   -0.96653   -0.66712   -0.37779    7      1.9     19.5     diag
    9      0.173D-04      0.256D-05      -172.11011542    329.444421   -0.96664   -0.66735   -0.37805    8      1.9     21.4     diag
   10      0.294D-05      0.281D-06      -172.11011542    329.444614   -0.96658   -0.66731   -0.37802    0      1.9     23.3     orth

 Final occupancy:  14

 !RKS STATE  1.1 Energy              -172.110115423627
 Nuclear energy                        81.51587083
 One-electron energy                 -395.03668572
 Two-electron energy                  164.72230680
 Density functional                   -23.31160734     PBEX=-22.40558202 PBEC= -0.90602532
 Virial quotient                       -1.00589393
 !RKS STATE  1.1 Dipole moment         -0.96657888    -0.66731340    -0.37801816
 Dipole moment /Debye                  -2.45663755    -1.69603039    -0.96076338

 Orbital energies:

         1.1          2.1          3.1          4.1          5.1          6.1          7.1          8.1          9.1         10.1
    -18.739215   -14.005821    -9.917064    -0.895021    -0.822553    -0.610795    -0.459508    -0.450152    -0.408213    -0.370280

        11.1         12.1         13.1         14.1         15.1         16.1
     -0.335264    -0.311780    -0.231545    -0.225454    -0.031674    -0.002616


 HOMO     14.1    -0.225454 =      -6.1349eV
 LUMO     15.1    -0.031674 =      -0.8619eV
 LUMO-HOMO         0.193779 =       5.2730eV


 **********************************************************************************************************************************
 DATASETS  * FILE   NREC   LENGTH (MB)   RECORD NAMES
              1      19       30.77       500      610      700      900      950      970     1000      129      960     1100   
                                          VAR    BASINP    GEOM    SYMINP    ZMAT    AOBASIS   BASIS     P2S    ABASIS      S 
                                         1400     1410     1200     1210     1080     1600     1650     1700     1800   
                                           T        V       H0       H01     AOSYM     SMH    MOLCAS    OPER     GRID   

              2       5        3.28       700     1000      520     1800     2101   
                                         GEOM     BASIS   MCVARS    GRID      RKS  

 PROGRAMS   *        TOTAL   RKS-SCF       INT
 CPU TIMES  *        24.29     23.69      0.42
 REAL TIME  *        26.84 SEC
 DISK USED  *        35.30 MB (local),      141.19 MB (total)
 SF USED    *         0.21 MB
 GA USED    *         2.74 MB       (max)       2.74 MB       (current)
 **********************************************************************************************************************************
 SETTING EAB_PBE        =      -172.11011542  AU                              

 Dummy atoms: O1  H6  H7


 Recomputing one-electron integrals since nuclear charges changed


 PROGRAM * SEWARD (Integral evaluation for generally contracted gaussian basis sets)     Author: Roland Lindh, 1990

 Geometry written to block  1 of record 700


 Point group  C1  



 ATOMIC COORDINATES

 NR  ATOM    CHARGE       X              Y              Z

   1  N1      7.00   -1.008100797   -0.528355164    0.202192677
   2  H1      1.00   -1.188923792   -2.359180490    0.723479130
   3  H2      1.00   -2.121413417   -0.313995842   -1.337480312
   4  C1      6.00   -1.921680312    1.112077561    2.243810639
   5  H3      1.00   -1.724865801    3.071847594    1.662054109
   6  H4      1.00   -3.882890689    0.784391545    2.793966869
   7  H5      1.00   -0.727588732    0.848110778    3.893996460
   8  O1      0.00    4.023106789    1.759569494    0.398270443
   9  H6      0.00    2.478222786    0.821750408    0.071058880
  10  H7      0.00    5.122741159    1.271079315   -0.954293648

 Bond lengths in Bohr (Angstrom)

 1-2  1.912160531  1-3  1.912068990  1-4  2.773779184  4-5  2.053746623  4-6  2.063103522
     ( 1.011871777)     ( 1.011823335)     ( 1.467820732)     ( 1.086795910)     ( 1.091747368)

  4- 7  2.053934373   8- 9  1.836637860   8-10  1.810317105
       ( 1.086895263)       ( 0.971906900)       ( 0.957978557)

 Bond angles

  1-4-5  108.92232450   1-4-6  114.54691082   1-4-7  108.89704664   2-1-3  105.77144003

  2-1-4  109.53896726   3-1-4  109.54911813   5-4-6  108.55407820   5-4-7  107.12795866

  6- 4- 7  108.54184765   9- 8-10  103.88906570

 NUCLEAR CHARGE:                   18
 NUMBER OF PRIMITIVE AOS:         188
 NUMBER OF SYMMETRY AOS:          182
 NUMBER OF CONTRACTIONS:          132   (  132A   )
 NUMBER OF CORE ORBITALS:           2   (    2A   )
 NUMBER OF VALENCE ORBITALS:       13   (   13A   )

 MOLECULE CHANGED: INITIALIZING OCCUPATION AND DUMP RECORDS


 NUCLEAR REPULSION ENERGY   42.04336543


 Eigenvalues of metric

         1 0.222E-03 0.490E-03 0.565E-03 0.723E-03 0.912E-03 0.110E-02 0.123E-02 0.179E-02


 OPERATOR DM      FOR CENTER  0  COORDINATES:    0.000000    0.000000    0.000000


 **********************************************************************************************************************************
 DATASETS  * FILE   NREC   LENGTH (MB)   RECORD NAMES
              1      19       30.77       500      610      700      900      950      970     1000      129      960     1100   
                                          VAR    BASINP    GEOM    SYMINP    ZMAT    AOBASIS   BASIS     P2S    ABASIS      S 
                                         1400     1410     1200     1210     1080     1600     1650     1700     1800   
                                           T        V       H0       H01     AOSYM     SMH    MOLCAS    OPER     GRID   

              2       5        3.28       700     1000      520     1800     2101   
                                         GEOM     BASIS   MCVARS    GRID      RKS  

 PROGRAMS   *        TOTAL       INT   RKS-SCF       INT
 CPU TIMES  *        24.35      0.06     23.69      0.42
 REAL TIME  *        27.00 SEC
 DISK USED  *        35.30 MB (local),      141.19 MB (total)
 SF USED    *         0.21 MB
 GA USED    *         2.74 MB       (max)       2.74 MB       (current)
 **********************************************************************************************************************************

 Density functional group PBE=PBEX+PBEC
 Functional: PBEX(Automatically generated (new) PBEX)                          Gradient terms: 1
 Functional: PBEC(Automatically generated (new) PBEC)                          Gradient terms: 1
 Use libxcgrid:  F
 Use grid at  1800.2

 Functional: PBEX                      Factor:  1.0000
 Functional: PBEC                      Factor:  1.0000

 Generated new metagrid on record  1800.2 with target accuracy 1.0D-08 and 83526 points in CPU time    0.2
 Computed new grid on record 1800.1 in CPU time    0.3
  109006 words reserved for DFT integration

 PROGRAM * RKS-SCF (Restricted closed shell Kohn-Sham)     Authors: W. Meyer, H.-J. Werner, P.J. Knowles, 1993

 NUMBER OF ELECTRONS:       9+    9-    SPACE SYMMETRY=1    SPIN SYMMETRY: Singlet 
 CONVERGENCE THRESHOLDS:    1.00E-04 (Density)    1.00E-08 (Energy)
 INTEGRAL THRESHOLDS:       1.00E-11 (Initial)    1.00E-11 (Final)
 MAX. NUMBER OF ITERATIONS:       60
 INTERPOLATION TYPE:            DIIS
 INTERPOLATION STEPS:              2 (START)      1 (STEP)
 LEVEL SHIFTS:                  0.00 (CLOSED)  0.00 (OPEN) 



 Use fine grid record 1800.2 for energy threshold  1.0D-08
 Orbital guess generated from atomic densities. Full valence occupancy:   15

 Molecular orbital dump at record        2201.2

 Initial occupancy:   9

 Direct Fock-matrix evaluation.        Authors: Roland Lindh & Martin Schuetz (1993/96)

 Integral Threshold:                  0.1D-10
 Threshold for writing integrals:     0.1D-06
 Prescreening on density matrix:        ON 
 Calculation will be performed fully direct        

 ITERATION   DDIFF            GRAD            ENERGY        2-EL.EN.            DIPOLE MOMENTS         DIIS   CPU(IT)  CPU(TOT)
    1      0.000D+00      0.000D+00       -95.61689599    182.821849   -0.78521   -0.24723    0.11063    0      3.1      5.9     start
    2      0.000D+00      0.103D-01       -95.33158890    162.411173    0.19199    0.17791    0.08707    1      2.0      7.9     diag
    3      0.271D-01      0.188D-01       -95.73504226    175.941610   -0.57196   -0.10726    0.15285    2      2.0      9.9     diag
    4      0.172D-01      0.202D-02       -95.73849389    175.682719   -0.48170   -0.14139    0.07806    3      2.0     11.8     diag
    5      0.244D-02      0.858D-03       -95.73922756    175.549691   -0.49442   -0.12908    0.09592    4      2.0     13.8     diag
    6      0.870D-03      0.137D-03       -95.73924714    175.563695   -0.49372   -0.12849    0.09624    5      1.9     15.7     diag
    7      0.110D-03      0.139D-04       -95.73924736    175.572302   -0.49485   -0.12855    0.09668    6      2.0     17.7     diag
    8      0.190D-04      0.130D-05       -95.73924736    175.572442   -0.49458   -0.12859    0.09653    7      1.9     19.6     diag
    9      0.247D-05      0.268D-06       -95.73924736    175.572497   -0.49466   -0.12860    0.09655    0      1.9     21.5     orth

 Final occupancy:   9

 !RKS STATE  1.1 Energy               -95.739247364415
 Nuclear energy                        42.04336543
 One-electron energy                 -211.50051888
 Two-electron energy                   87.78624838
 Density functional                   -14.06834230     PBEX=-13.49243133 PBEC= -0.57591097
 Virial quotient                       -1.00622060
 !RKS STATE  1.1 Dipole moment         -0.49465873    -0.12859916     0.09654784
 Dipole moment /Debye                  -1.25721473    -0.32684505     0.24538406

 Orbital energies:

         1.1          2.1          3.1          4.1          5.1          6.1          7.1          8.1          9.1         10.1
    -13.982150    -9.906955    -0.801679    -0.597696    -0.440561    -0.394176    -0.358433    -0.323786    -0.199601    -0.021788

        11.1
      0.003428


 HOMO      9.1    -0.199601 =      -5.4314eV
 LUMO     10.1    -0.021788 =      -0.5929eV
 LUMO-HOMO         0.177813 =       4.8385eV


 **********************************************************************************************************************************
 DATASETS  * FILE   NREC   LENGTH (MB)   RECORD NAMES
              1      19       30.77       500      610      700      900      950      970     1000      129      960     1100   
                                          VAR    BASINP    GEOM    SYMINP    ZMAT    AOBASIS   BASIS     P2S    ABASIS      S 
                                         1400     1410     1200     1210     1080     1600     1650     1700     1800   
                                           T        V       H0       H01     AOSYM     SMH    MOLCAS    OPER     GRID   

              2       6        6.47       700     1000      520     1800     2101     2201   
                                         GEOM     BASIS   MCVARS    GRID      RKS      RKS  

 PROGRAMS   *        TOTAL   RKS-SCF       INT   RKS-SCF       INT
 CPU TIMES  *        46.13     21.78      0.06     23.69      0.42
 REAL TIME  *        49.03 SEC
 DISK USED  *        38.42 MB (local),      153.70 MB (total)
 SF USED    *         0.21 MB
 GA USED    *         2.74 MB       (max)       2.74 MB       (current)
 **********************************************************************************************************************************
 SETTING EA_PBE         =       -95.73924736  AU                              

 Dummy atoms: N1  H1  H2  C1  H3  H4  H5


 Recomputing one-electron integrals since nuclear charges changed


 PROGRAM * SEWARD (Integral evaluation for generally contracted gaussian basis sets)     Author: Roland Lindh, 1990

 Geometry written to block  1 of record 700


 Point group  C1  



 ATOMIC COORDINATES

 NR  ATOM    CHARGE       X              Y              Z

   1  N1      0.00   -1.008100797   -0.528355164    0.202192677
   2  H1      0.00   -1.188923792   -2.359180490    0.723479130
   3  H2      0.00   -2.121413417   -0.313995842   -1.337480312
   4  C1      0.00   -1.921680312    1.112077561    2.243810639
   5  H3      0.00   -1.724865801    3.071847594    1.662054109
   6  H4      0.00   -3.882890689    0.784391545    2.793966869
   7  H5      0.00   -0.727588732    0.848110778    3.893996460
   8  O1      8.00    4.023106789    1.759569494    0.398270443
   9  H6      1.00    2.478222786    0.821750408    0.071058880
  10  H7      1.00    5.122741159    1.271079315   -0.954293648

 Bond lengths in Bohr (Angstrom)

 1-2  1.912160531  1-3  1.912068990  1-4  2.773779184  4-5  2.053746623  4-6  2.063103522
     ( 1.011871777)     ( 1.011823335)     ( 1.467820732)     ( 1.086795910)     ( 1.091747368)

  4- 7  2.053934373   8- 9  1.836637860   8-10  1.810317105
       ( 1.086895263)       ( 0.971906900)       ( 0.957978557)

 Bond angles

  1-4-5  108.92232450   1-4-6  114.54691082   1-4-7  108.89704664   2-1-3  105.77144003

  2-1-4  109.53896726   3-1-4  109.54911813   5-4-6  108.55407820   5-4-7  107.12795866

  6- 4- 7  108.54184765   9- 8-10  103.88906570

 NUCLEAR CHARGE:                   10
 NUMBER OF PRIMITIVE AOS:         188
 NUMBER OF SYMMETRY AOS:          182
 NUMBER OF CONTRACTIONS:          132   (  132A   )
 NUMBER OF CORE ORBITALS:           1   (    1A   )
 NUMBER OF VALENCE ORBITALS:        6   (    6A   )

 MOLECULE CHANGED: INITIALIZING OCCUPATION AND DUMP RECORDS


 NUCLEAR REPULSION ENERGY    9.12312499


 Eigenvalues of metric

         1 0.222E-03 0.490E-03 0.565E-03 0.723E-03 0.912E-03 0.110E-02 0.123E-02 0.179E-02


 OPERATOR DM      FOR CENTER  0  COORDINATES:    0.000000    0.000000    0.000000


 **********************************************************************************************************************************
 DATASETS  * FILE   NREC   LENGTH (MB)   RECORD NAMES
              1      19       30.77       500      610      700      900      950      970     1000      129      960     1100   
                                          VAR    BASINP    GEOM    SYMINP    ZMAT    AOBASIS   BASIS     P2S    ABASIS      S 
                                         1400     1410     1200     1210     1080     1600     1650     1700     1800   
                                           T        V       H0       H01     AOSYM     SMH    MOLCAS    OPER     GRID   

              2       6        6.47       700     1000      520     1800     2101     2201   
                                         GEOM     BASIS   MCVARS    GRID      RKS      RKS  

 PROGRAMS   *        TOTAL       INT   RKS-SCF       INT   RKS-SCF       INT
 CPU TIMES  *        46.24      0.10     21.78      0.06     23.69      0.42
 REAL TIME  *        49.28 SEC
 DISK USED  *        38.42 MB (local),      153.70 MB (total)
 SF USED    *         0.21 MB
 GA USED    *         2.74 MB       (max)       2.74 MB       (current)
 **********************************************************************************************************************************

 Density functional group PBE=PBEX+PBEC
 Functional: PBEX(Automatically generated (new) PBEX)                          Gradient terms: 1
 Functional: PBEC(Automatically generated (new) PBEC)                          Gradient terms: 1
 Use libxcgrid:  F
 Use grid at  1800.2

 Functional: PBEX                      Factor:  1.0000
 Functional: PBEC                      Factor:  1.0000

 Generated new metagrid on record  1800.2 with target accuracy 1.0D-08 and 83526 points in CPU time    0.2
 Computed new grid on record 1800.1 in CPU time    0.3
  109006 words reserved for DFT integration

 PROGRAM * RKS-SCF (Restricted closed shell Kohn-Sham)     Authors: W. Meyer, H.-J. Werner, P.J. Knowles, 1993

 NUMBER OF ELECTRONS:       5+    5-    SPACE SYMMETRY=1    SPIN SYMMETRY: Singlet 
 CONVERGENCE THRESHOLDS:    1.00E-04 (Density)    1.00E-08 (Energy)
 INTEGRAL THRESHOLDS:       1.00E-11 (Initial)    1.00E-11 (Final)
 MAX. NUMBER OF ITERATIONS:       60
 INTERPOLATION TYPE:            DIIS
 INTERPOLATION STEPS:              2 (START)      1 (STEP)
 LEVEL SHIFTS:                  0.00 (CLOSED)  0.00 (OPEN) 



 Use fine grid record 1800.2 for energy threshold  1.0D-08
 Orbital guess generated from atomic densities. Full valence occupancy:    7

 Molecular orbital dump at record        2301.2

 Initial occupancy:   5

 Direct Fock-matrix evaluation.        Authors: Roland Lindh & Martin Schuetz (1993/96)

 Integral Threshold:                  0.1D-10
 Threshold for writing integrals:     0.1D-06
 Prescreening on density matrix:        ON 
 Calculation will be performed fully direct        

 ITERATION   DDIFF            GRAD            ENERGY        2-EL.EN.            DIPOLE MOMENTS         DIIS   CPU(IT)  CPU(TOT)
    1      0.000D+00      0.000D+00       -76.28476151     97.606171   -0.22135   -0.69599   -0.81713    0      3.1      6.0     start
    2      0.000D+00      0.123D-01       -75.96229507     82.611541    0.10627    0.21527    0.23043    1      1.9      7.9     diag
    3      0.204D-01      0.279D-01       -76.35932094     93.255055   -0.14303   -0.46210   -0.54510    2      1.9      9.8     diag
    4      0.140D-01      0.533D-03       -76.35951636     92.983830   -0.13887   -0.45260   -0.53472    3      1.9     11.7     diag
    5      0.426D-03      0.140D-03       -76.35952485     93.015435   -0.13851   -0.45050   -0.53206    4      1.9     13.6     diag
    6      0.765D-04      0.367D-04       -76.35952554     93.027246   -0.13885   -0.45166   -0.53344    5      1.9     15.5     diag
    7      0.208D-04      0.135D-05       -76.35952554     93.027696   -0.13886   -0.45166   -0.53344    6      1.9     17.4     diag
    8      0.831D-06      0.128D-06       -76.35952554     93.027791   -0.13885   -0.45167   -0.53345    0      1.8     19.2     orth

 Final occupancy:   5

 !RKS STATE  1.1 Energy               -76.359525543523
 Nuclear energy                         9.12312499
 One-electron energy                 -122.77132624
 Two-electron energy                   46.51389565
 Density functional                    -9.22521995     PBEX=-8.89994185 PBEC=-0.32527810
 Virial quotient                       -1.00579011
 !RKS STATE  1.1 Dipole moment         -0.13885342    -0.45166745    -0.53344695
 Dipole moment /Debye                  -0.35290707    -1.14794896    -1.35579811

 Orbital energies:

         1.1          2.1          3.1          4.1          5.1          6.1          7.1
    -18.779920    -0.932841    -0.482688    -0.344183    -0.265205    -0.035500     0.015386


 HOMO      5.1    -0.265205 =      -7.2166eV
 LUMO      6.1    -0.035500 =      -0.9660eV
 LUMO-HOMO         0.229705 =       6.2506eV


 **********************************************************************************************************************************
 DATASETS  * FILE   NREC   LENGTH (MB)   RECORD NAMES
              1      19       30.77       500      610      700      900      950      970     1000      129      960     1100   
                                          VAR    BASINP    GEOM    SYMINP    ZMAT    AOBASIS   BASIS     P2S    ABASIS      S 
                                         1400     1410     1200     1210     1080     1600     1650     1700     1800   
                                           T        V       H0       H01     AOSYM     SMH    MOLCAS    OPER     GRID   

              2       7        9.67       700     1000      520     1800     2101     2201     2301   
                                         GEOM     BASIS   MCVARS    GRID      RKS      RKS      RKS  

 PROGRAMS   *        TOTAL   RKS-SCF       INT   RKS-SCF       INT   RKS-SCF       INT
 CPU TIMES  *        65.75     19.51      0.10     21.78      0.06     23.69      0.42
 REAL TIME  *        69.06 SEC
 DISK USED  *        41.55 MB (local),      166.20 MB (total)
 SF USED    *         0.21 MB
 GA USED    *         2.74 MB       (max)       2.74 MB       (current)
 **********************************************************************************************************************************
 SETTING EB_PBE         =       -76.35952554  AU                              
 SETTING E_AB_INT       =        -0.01134252  AU                              

 *** results in hartree
 E_AB_INT         =        -0.01134252 AU
 Molecular orbitals read from record     2301.2  Type=RKS/CANONICAL (state 1.1)
 Occupation numbers read from record     2301.2  Type=RKS/RHF (state 1.1)
 Orbital energies read from record       2301.2  Type=RKS/CANONICAL (state 1.1)
 Redundancy group numbers read from rec  2301.2  Type=RKS/RHF (state 1.1)

 RPBE/aug-cc-pVDZ energy=    -76.359525543523

         RKS-SCF         RKS-SCF         RKS-SCF
    -76.35952554    -95.73924736   -172.11011542
 **********************************************************************************************************************************
 Molpro calculation terminated
Wed 20 Nov 2019 09:07:24 AM CET
