
 Working directory              : /scratch/yourdkhs/302940/molpro.Jw1UGBCofl/
 Global scratch directory       : /scratch/yourdkhs/302940/molpro.Jw1UGBCofl/
 Wavefunction directory         : /scratch/yourdkhs/302940/
 Main file repository           : /scratch/yourdkhs/302940/molpro.Jw1UGBCofl/

 id        : karlovklimes

 Nodes                      nprocs
 nc-18.cc.karlov.mff.cuni.cz    8
 GA implementation: MPI file
 GA implementation (serial work in mppx): MPI file

 Using customized tuning parameters: mindgm=1; mindgv=20; mindgc=4; mindgr=1; noblas=0; minvec=7
 default implementation of scratch files=sf  


 Variables initialized (1015), CPU time= 0.01 sec
 ***,CH3C6H4CN+CF3CN+BF3
 memory,500,m
 gdirect
 gthresh,energy=1.d-8,twoint=1.d-19,oneint=1.d-19,zero=1.d-15,orbital=1.d-8,grid=1.d-8
 symmetry,nosym
 geomtyp=xyz
                                                                                 ! Geometry
 geometry={
 C1        0.000000000    0.056986000     0.000000000
 O1        0.000000000    1.227206000     0.000000000
 O2        0.000000000    5.627206000     0.000000000
 C2        0.000000000    6.797426000     0.000000000
 O3        0.000000000    7.967646000     0.000000000
 O4        0.000000000    -1.113234000     0.000000000
 }
 
 
 
 basis=avdz
 
 
 
                                                                                 ! Dimer Calculation
 {rks,pbe,accu=1.d-8;orbital,2101.2}
 eab_PBE=energy
 
 
                                                                                 !monomer A
 dummy,3,4,5;                                                                    ! NOW MONOMER B IS DUMMY
 {rks,pbe,accu=1.d-8;orbital,2201.2}
 ea_PBE=energy
                                                                                 !monomer B
 dummy,1,2,6;                                                                    !NOW MONOMER A IS DUMMY
 {rks,pbe,accu=1.d-8;orbital,2301.2}
 eb_PBE=energy
 
 E_AB_int=eab_PBE-ea_PBE-eb_PBE
 
 
 text,results in hartree
 show,E_AB_int
 
 Commands initialized (834), CPU time= 0.02 sec, 672 directives.
 Default parameters read. Elapsed time= 0.28 sec

 Checking input...
 Passed
1


                                         ***  PROGRAM SYSTEM MOLPRO  ***
                                       Copyright, TTI GmbH Stuttgart, 2015
                                    Version 2022.2 linked Thu May  5 22:39:45 2022


 **********************************************************************************************************************************
 LABEL *   CH3C6H4CN+CF3CN+BF3                                                           
  64 bit mpp version                                                                     DATE: 20-Oct-23          TIME: 20:19:10  
 **********************************************************************************************************************************

 SHA1:             518bf5c5e315925380b88506c70af759aa1d1d96
 **********************************************************************************************************************************

 Memory per process:       500 MW
 Total memory per node:   4000 MW

 GA preallocation disabled
 GA check disabled

 Variable memory set to 500.0 MW


 THRESHOLDS:

 ZERO    =  1.00D-15  ONEINT  =  1.00D-19  TWOINT  =  1.00D-19  PREFAC  =  1.00D-14  XXXXXX  =  1.00D-09  EORDER  =  1.00D-04
 ENERGY  =  1.00D-08  ETEST   =  0.00D+00  EDENS   =  0.00D+00  THRDEDEF=  1.00D-06  GRADIENT=  1.00D-05  STEP    =  1.00D-03
 ORBITAL =  1.00D-08  CIVEC   =  1.00D-05  COEFF   =  1.00D-04  PRINTCI =  5.00D-02  PUNCHCI =  9.90D+01  OPTGRAD =  3.00D-04
 OPTENERG=  1.00D-06  OPTSTEP =  3.00D-04  THRGRAD =  1.00D-10  COMPRESS=  1.00D-11  VARMIN  =  1.00D-07  VARMAX  =  1.00D-03
 THRDOUB =  0.00D+00  THRDIV  =  1.00D-05  THRRED  =  1.00D-07  THRPSP  =  1.00D+00  THRDC   =  1.00D-10  THRCS   =  1.00D-10
 THRNRM  =  1.00D-08  THREQ   =  0.00D+00  THRDE   =  1.00D+00  THRREF  =  1.00D-05  SPARFAC =  1.00D+00  THRDLP  =  1.00D-07
 THRDIA  =  1.00D-10  THRDLS  =  1.00D-07  THRGPS  =  0.00D+00  THRKEX  =  0.00D+00  THRDIS  =  2.00D-01  THRVAR  =  1.00D-10
 THRLOC  =  1.00D-06  THRGAP  =  1.00D-06  THRLOCT = -1.00D+00  THRGAPT = -1.00D+00  THRORB  =  1.00D-06  THRMLTP =  0.00D+00
 THRCPQCI=  1.00D-10  KEXTA   =  0.00D+00  THRCOARS=  0.00D+00  SYMTOL  =  1.00D-06  GRADTOL =  1.00D-06  THROVL  =  1.00D-08
 THRORTH =  1.00D-08  THRDLOVL= -1.00D+00  GRID    =  1.00D-08  GRIDMAX =  1.00D-03  DTMAX   =  0.00D+00  THROCCDE=  1.00D-01
 THROCCDE=  1.00D-01  THRPRINT=  2.50D-01

 SETTING GEOMTYP        =    XYZ
 ZSYMEL=NOSYM

 SETTING BASIS          =    AVDZ


 Recomputing integrals since basis changed


 Using spherical harmonics

 Library entry C      S aug-cc-pVDZ          selected for orbital group  1
 Library entry C      P aug-cc-pVDZ          selected for orbital group  1
 Library entry C      D aug-cc-pVDZ          selected for orbital group  1
 Library entry O      S aug-cc-pVDZ          selected for orbital group  2
 Library entry O      P aug-cc-pVDZ          selected for orbital group  2
 Library entry O      D aug-cc-pVDZ          selected for orbital group  2


 PROGRAM * SEWARD (Integral evaluation for generally contracted gaussian basis sets)     Author: Roland Lindh, 1990

 Geometry written to block  1 of record 700


 Point group  C1  



 ATOMIC COORDINATES

 NR  ATOM    CHARGE       X              Y              Z

   1  C1      6.00    0.000000000    0.107687933    0.000000000
   2  O1      8.00    0.000000000    2.319083238    0.000000000
   3  O2      8.00    0.000000000   10.633878187    0.000000000
   4  C2      6.00    0.000000000   12.845273492    0.000000000
   5  O3      8.00    0.000000000   15.056668798    0.000000000
   6  O4      8.00    0.000000000   -2.103707373    0.000000000

 Bond lengths in Bohr (Angstrom)

 1-2  2.211395306  1-6  2.211395306  3-4  2.211395306  4-5  2.211395306
     ( 1.170220000)     ( 1.170220000)     ( 1.170220000)     ( 1.170220000)

 Bond angles

  2-1-6  180.00000000   3-4-5  180.00000000

 NUCLEAR CHARGE:                   44
 NUMBER OF PRIMITIVE AOS:         222
 NUMBER OF SYMMETRY AOS:          210
 NUMBER OF CONTRACTIONS:          138   (  138A   )
 NUMBER OF INNER CORE ORBITALS:     0   (    0A   )
 NUMBER OF OUTER CORE ORBITALS:     6   (    6A   )
 NUMBER OF VALENCE ORBITALS:       24   (   24A   )


 NUCLEAR REPULSION ENERGY  155.60789309

 EXTRA SYMMETRY OF AOS IN SYMMETRY 1:   1 1 1 1 2 1 3 2 1 3   2 1 3 1 2 4 1 3 1 2   4 1 3 1 1 1 1 2 1 3   2 1 3 2 1 3 1 2 4 1
                                        3 1 2 4 1 3 1 1 1 1   2 1 3 2 1 3 2 1 3 1   2 4 1 3 1 2 4 1 3 1   1 1 1 2 1 3 2 1 3 2
                                        1 3 1 2 4 1 3 1 2 4   1 3 1 1 1 1 2 1 3 2   1 3 2 1 3 1 2 4 1 3   1 2 4 1 3 1 1 1 1 2
                                        1 3 2 1 3 2 1 3 1 2   4 1 3 1 2 4 1 3

 Eigenvalues of metric

         1 0.124E-02 0.130E-02 0.137E-02 0.211E-02 0.498E-02 0.582E-02 0.680E-02 0.815E-02


 OPERATOR DM      FOR CENTER  0  COORDINATES:    0.000000    0.000000    0.000000


 **********************************************************************************************************************************
 DATASETS  * FILE   NREC   LENGTH (MB)   RECORD NAMES
              1      18       29.34       500      610      700      900      950      970     1000      129      960     1100   
                                          VAR    BASINP    GEOM    SYMINP    ZMAT    AOBASIS   BASIS     P2S    ABASIS      S 
                                         1400     1410     1200     1210     1080     1600     1650     1700   
                                           T        V       H0       H01     AOSYM     SMH    MOLCAS    OPER   

 PROGRAMS   *        TOTAL       INT
 CPU TIMES  *         0.61      0.30
 REAL TIME  *         1.79 SEC
 DISK USED  *        29.71 MB (local),      237.69 MB (total)
 GA USED    *         0.00 MB       (max)       0.00 MB       (current)
 **********************************************************************************************************************************


 Program * Restricted Kohn-Sham

 Density functional group PBE=PBEX+PBEC
 Functional: PBEX(Automatically generated (new) PBEX)                          Gradient terms: 1
 Functional: PBEC(Automatically generated (new) PBEC)                          Gradient terms: 1

 Functional: PBEX                   Factor:  1.0000
 Functional: PBEC                   Factor:  1.0000


 Setting radial_scaling=1d0
 Radial grid threshold:                     5.0D-09
 Global grid threshold:                     1.0D-08
 Angular grid threshold:                    1.0D-09
 Fac_Neighbour:                                 4.0
 Size adjustment in partitioning scheme:   TREUTLER
 Skip grid points with weights lower than:  1.0D-20
 Grid orientation:                           T

 Generated new metagrid on record  1800.2 with target accuracy 1.0D-08 and 78592 points in CPU time    0.2
 Computed new grid on record 1800.1 in CPU time    0.3

 DFT orbital screening threshold (tolorb):   1.0D-09


 Integral-direct calculation

 Orbital guess generated from atomic densities. Full valence occupancy:   30

 Initial occupancy:  22

 NELEC=   44   SYM=1   MS2= 0   THRE=1.0D-09   THRD=1.0D-04   THRG=1.0D-04  HFMA2=F  DIIS_START=2   DIIS_MAX=10   DIIS_INCORE=F

 Level shifts:    0.00 (CLOSED)    0.00 (OPEN)    0.30 (GAP_MIN)

 ITER           ETOT              DE          GRAD        DDIFF     DIIS  NEXP   TIME(IT)  TIME(TOT)  DIAG
   1     -376.73136422    -376.73136422     0.00D+00     0.98D-01     0     0       0.37      0.54    start
   2     -376.40040128       0.33096294     0.81D-02     0.23D-01     1     0       0.34      0.88    diag
   3     -376.84950809      -0.44910681     0.16D-01     0.16D-01     2     0       0.34      1.22    diag
   4     -376.85230972      -0.00280163     0.11D-02     0.18D-02     3     0       0.32      1.54    diag
   5     -376.85215772       0.00015200     0.33D-03     0.62D-03     4     0       0.32      1.86    diag
   6     -376.85253849      -0.00038077     0.44D-03     0.38D-03     5     0       0.32      2.18    diag
   7     -376.85254131      -0.00000282     0.39D-04     0.36D-04     6     0       0.29      2.47    diag
   8     -376.85254134      -0.00000003     0.41D-05     0.40D-05     7     0       0.29      2.76    fixocc
   9     -376.85254134      -0.00000000     0.25D-06     0.27D-06     8     0       0.26      3.02    diag
  10     -376.85254134       0.00000000     0.80D-08     0.21D-07     0     0       0.22      3.24    diag/orth

 Final occupancy:  22

 !RKS STATE 1.1 Energy               -376.852541342231
  RKS One-electron energy            -823.155236998866
  RKS Two-electron energy             335.353435328986
  RKS Kinetic energy                  374.869055650490
  RKS Nuclear energy                  155.607893091548
  RKS Virial quotient                  -1.005291142765
 Density functional                   -44.65863276     PBEX=-43.17675013 PBEC= -1.48188263

 !RKS STATE 1.1 Dipole moment           0.00000000     0.00000008    -0.00000000
 Dipole moment /Debye                   0.00000000     0.00000019    -0.00000000

 Orbital energies:

           1.1          2.1          3.1          4.1          5.1          6.1          7.1          8.1          9.1         10.1
    -18.854689   -18.854679   -18.854385   -18.854384   -10.079181   -10.079180    -1.072869    -1.072854    -1.036240    -1.036238

          11.1         12.1         13.1         14.1         15.1         16.1         17.1         18.1         19.1         20.1
     -0.508960    -0.508520    -0.466480    -0.465867    -0.464323    -0.464323    -0.464298    -0.464298    -0.331461    -0.331461

          21.1         22.1         23.1         24.1
     -0.331346    -0.331346    -0.034962    -0.028104


 HOMO     22.1    -0.331346 =      -9.0164eV
 LUMO     23.1    -0.034962 =      -0.9514eV
 LUMO-HOMO         0.296385 =       8.0650eV

 Orbitals saved in record  2101.2


 **********************************************************************************************************************************
 DATASETS  * FILE   NREC   LENGTH (MB)   RECORD NAMES
              1      19       29.34       500      610      700      900      950      970     1000      129      960     1100   
                                          VAR    BASINP    GEOM    SYMINP    ZMAT    AOBASIS   BASIS     P2S    ABASIS      S 
                                         1400     1410     1200     1210     1080     1600     1650     1700     1800   
                                           T        V       H0       H01     AOSYM     SMH    MOLCAS    OPER     GRID   

              2       5        0.75       700     1000      520     1800     2101   
                                         GEOM     BASIS   MCVARS    GRID      RKS  

              4       2        0.15      8000     8001   

 PROGRAMS   *        TOTAL   RKS-SCF       INT
 CPU TIMES  *         4.15      3.53      0.30
 REAL TIME  *         5.42 SEC
 DISK USED  *        31.39 MB (local),      251.10 MB (total)
 SF USED    *         0.15 MB
 GA USED    *         0.00 MB       (max)       0.00 MB       (current)
 **********************************************************************************************************************************
 SETTING EAB_PBE        =      -376.85254134  AU                              

 Dummy atoms: O2  C2  O3


 Recomputing one-electron integrals since nuclear charges changed


 PROGRAM * SEWARD (Integral evaluation for generally contracted gaussian basis sets)     Author: Roland Lindh, 1990

 Geometry written to block  1 of record 700


 Point group  C1  



 ATOMIC COORDINATES

 NR  ATOM    CHARGE       X              Y              Z

   1  C1      6.00    0.000000000    0.107687933    0.000000000
   2  O1      8.00    0.000000000    2.319083238    0.000000000
   3  O2      0.00    0.000000000   10.633878187    0.000000000
   4  C2      0.00    0.000000000   12.845273492    0.000000000
   5  O3      0.00    0.000000000   15.056668798    0.000000000
   6  O4      8.00    0.000000000   -2.103707373    0.000000000

 Bond lengths in Bohr (Angstrom)

 1-2  2.211395306  1-6  2.211395306  3-4  2.211395306  4-5  2.211395306
     ( 1.170220000)     ( 1.170220000)     ( 1.170220000)     ( 1.170220000)

 Bond angles

  2-1-6  180.00000000   3-4-5  180.00000000

 NUCLEAR CHARGE:                   22
 NUMBER OF PRIMITIVE AOS:         222
 NUMBER OF SYMMETRY AOS:          210
 NUMBER OF CONTRACTIONS:          138   (  138A   )
 NUMBER OF INNER CORE ORBITALS:     0   (    0A   )
 NUMBER OF OUTER CORE ORBITALS:     3   (    3A   )
 NUMBER OF VALENCE ORBITALS:       12   (   12A   )

 MOLECULE CHANGED: INITIALIZING OCCUPATION AND DUMP RECORDS


 NUCLEAR REPULSION ENERGY   57.88200765

 EXTRA SYMMETRY OF AOS IN SYMMETRY 1:   1 1 1 1 2 1 3 2 1 3   2 1 3 1 2 4 1 3 1 2   4 1 3 1 1 1 1 2 1 3   2 1 3 2 1 3 1 2 4 1
                                        3 1 2 4 1 3 1 1 1 1   2 1 3 2 1 3 2 1 3 1   2 4 1 3 1 2 4 1 3 1   1 1 1 2 1 3 2 1 3 2
                                        1 3 1 2 4 1 3 1 2 4   1 3 1 1 1 1 2 1 3 2   1 3 2 1 3 1 2 4 1 3   1 2 4 1 3 1 1 1 1 2
                                        1 3 2 1 3 2 1 3 1 2   4 1 3 1 2 4 1 3

 Eigenvalues of metric

         1 0.124E-02 0.130E-02 0.137E-02 0.211E-02 0.498E-02 0.582E-02 0.680E-02 0.815E-02


 OPERATOR DM      FOR CENTER  0  COORDINATES:    0.000000    0.000000    0.000000


 **********************************************************************************************************************************
 DATASETS  * FILE   NREC   LENGTH (MB)   RECORD NAMES
              1      19       29.34       500      610      700      900      950      970     1000      129      960     1100   
                                          VAR    BASINP    GEOM    SYMINP    ZMAT    AOBASIS   BASIS     P2S    ABASIS      S 
                                         1400     1410     1200     1210     1080     1600     1650     1700     1800   
                                           T        V       H0       H01     AOSYM     SMH    MOLCAS    OPER     GRID   

              2       5        0.75       700     1000      520     1800     2101   
                                         GEOM     BASIS   MCVARS    GRID      RKS  

 PROGRAMS   *        TOTAL       INT   RKS-SCF       INT
 CPU TIMES  *         4.21      0.04      3.53      0.30
 REAL TIME  *         5.54 SEC
 DISK USED  *        31.39 MB (local),      251.10 MB (total)
 SF USED    *         0.15 MB
 GA USED    *         0.00 MB       (max)       0.00 MB       (current)
 **********************************************************************************************************************************


 Program * Restricted Kohn-Sham

 Density functional group PBE=PBEX+PBEC
 Functional: PBEX(Automatically generated (new) PBEX)                          Gradient terms: 1
 Functional: PBEC(Automatically generated (new) PBEC)                          Gradient terms: 1

 Functional: PBEX                   Factor:  1.0000
 Functional: PBEC                   Factor:  1.0000

 Radial grid threshold:                     5.0D-09
 Accuracy mode for quadrature:              DEFAULT
 Global grid threshold:                     1.0D-08
 Angular grid threshold:                    1.0D-09
 Fac_Neighbour:                                 4.0
 Size adjustment in partitioning scheme:   TREUTLER
 Skip grid points with weights lower than:  1.0D-20
 Grid orientation:                           T

 Generated new metagrid on record  1800.2 with target accuracy 1.0D-08 and 78592 points in CPU time    0.2
 Computed new grid on record 1800.1 in CPU time    0.3

 DFT orbital screening threshold (tolorb):   1.0D-09


 Integral-direct calculation

 Orbital guess generated from atomic densities. Full valence occupancy:   15

 Initial occupancy:  11

 NELEC=   22   SYM=1   MS2= 0   THRE=1.0D-09   THRD=1.0D-04   THRG=1.0D-04  HFMA2=F  DIIS_START=2   DIIS_MAX=10   DIIS_INCORE=F

 Level shifts:    0.00 (CLOSED)    0.00 (OPEN)    0.30 (GAP_MIN)

 ITER           ETOT              DE          GRAD        DDIFF     DIIS  NEXP   TIME(IT)  TIME(TOT)  DIAG
   1     -188.36590271    -188.36590271     0.00D+00     0.70D-01     0     0       0.34      0.50    start
   2     -188.20088282       0.16501989     0.77D-02     0.16D-01     1     0       0.32      0.82    diag
   3     -188.42485669      -0.22397387     0.15D-01     0.12D-01     2     0       0.32      1.14    diag
   4     -188.42630487      -0.00144817     0.11D-02     0.13D-02     3     0       0.30      1.44    diag
   5     -188.42633283      -0.00002796     0.15D-03     0.14D-03     4     0       0.28      1.72    diag
   6     -188.42633486      -0.00000203     0.47D-04     0.35D-04     5     0       0.28      2.00    diag
   7     -188.42633506      -0.00000020     0.15D-04     0.13D-04     6     0       0.26      2.26    diag
   8     -188.42633511      -0.00000006     0.73D-05     0.47D-05     7     0       0.26      2.52    fixocc
   9     -188.42633511      -0.00000000     0.27D-06     0.21D-06     8     0       0.20      2.72    diag
  10     -188.42633511       0.00000000     0.33D-08     0.67D-08     0     0       0.17      2.89    diag/orth

 Final occupancy:  11

 !RKS STATE 1.1 Energy               -188.426335113444
  RKS One-electron energy            -371.696823868538
  RKS Two-electron energy             147.717836419412
  RKS Kinetic energy                  187.434145539319
  RKS Nuclear energy                   57.882007652906
  RKS Virial quotient                  -1.005293536945
 Density functional                   -22.32935532     PBEX=-21.58841863 PBEC= -0.74093669

 !RKS STATE 1.1 Dipole moment           0.00000000     0.00009547     0.00000000
 Dipole moment /Debye                   0.00000000     0.00024267     0.00000000

 Orbital energies:

           1.1          2.1          3.1          4.1          5.1          6.1          7.1          8.1          9.1         10.1
    -18.856235   -18.856153   -10.080890    -1.074503    -1.037895    -0.510527    -0.467991    -0.465932    -0.465932    -0.333072

          11.1         12.1         13.1
     -0.333072    -0.032811    -0.017939


 HOMO     11.1    -0.333072 =      -9.0634eV
 LUMO     12.1    -0.032811 =      -0.8928eV
 LUMO-HOMO         0.300261 =       8.1705eV

 Orbitals saved in record  2201.2


 **********************************************************************************************************************************
 DATASETS  * FILE   NREC   LENGTH (MB)   RECORD NAMES
              1      19       29.34       500      610      700      900      950      970     1000      129      960     1100   
                                          VAR    BASINP    GEOM    SYMINP    ZMAT    AOBASIS   BASIS     P2S    ABASIS      S 
                                         1400     1410     1200     1210     1080     1600     1650     1700     1800   
                                           T        V       H0       H01     AOSYM     SMH    MOLCAS    OPER     GRID   

              2       6        1.36       700     1000      520     1800     2101     2201   
                                         GEOM     BASIS   MCVARS    GRID      RKS      RKS  

              4       2        0.15      8000     8001   

 PROGRAMS   *        TOTAL   RKS-SCF       INT   RKS-SCF       INT
 CPU TIMES  *         7.39      3.18      0.04      3.53      0.30
 REAL TIME  *         8.79 SEC
 DISK USED  *        32.00 MB (local),      255.99 MB (total)
 SF USED    *         2.54 MB
 GA USED    *         0.00 MB       (max)       0.00 MB       (current)
 **********************************************************************************************************************************
 SETTING EA_PBE         =      -188.42633511  AU                              

 Dummy atoms: C1  O1  O4


 Recomputing one-electron integrals since nuclear charges changed


 PROGRAM * SEWARD (Integral evaluation for generally contracted gaussian basis sets)     Author: Roland Lindh, 1990

 Geometry written to block  1 of record 700


 Point group  C1  



 ATOMIC COORDINATES

 NR  ATOM    CHARGE       X              Y              Z

   1  C1      0.00    0.000000000    0.107687933    0.000000000
   2  O1      0.00    0.000000000    2.319083238    0.000000000
   3  O2      8.00    0.000000000   10.633878187    0.000000000
   4  C2      6.00    0.000000000   12.845273492    0.000000000
   5  O3      8.00    0.000000000   15.056668798    0.000000000
   6  O4      0.00    0.000000000   -2.103707373    0.000000000

 Bond lengths in Bohr (Angstrom)

 1-2  2.211395306  1-6  2.211395306  3-4  2.211395306  4-5  2.211395306
     ( 1.170220000)     ( 1.170220000)     ( 1.170220000)     ( 1.170220000)

 Bond angles

  2-1-6  180.00000000   3-4-5  180.00000000

 NUCLEAR CHARGE:                   22
 NUMBER OF PRIMITIVE AOS:         222
 NUMBER OF SYMMETRY AOS:          210
 NUMBER OF CONTRACTIONS:          138   (  138A   )
 NUMBER OF INNER CORE ORBITALS:     0   (    0A   )
 NUMBER OF OUTER CORE ORBITALS:     3   (    3A   )
 NUMBER OF VALENCE ORBITALS:       12   (   12A   )

 MOLECULE CHANGED: INITIALIZING OCCUPATION AND DUMP RECORDS


 NUCLEAR REPULSION ENERGY   57.88200765

 EXTRA SYMMETRY OF AOS IN SYMMETRY 1:   1 1 1 1 2 1 3 2 1 3   2 1 3 1 2 4 1 3 1 2   4 1 3 1 1 1 1 2 1 3   2 1 3 2 1 3 1 2 4 1
                                        3 1 2 4 1 3 1 1 1 1   2 1 3 2 1 3 2 1 3 1   2 4 1 3 1 2 4 1 3 1   1 1 1 2 1 3 2 1 3 2
                                        1 3 1 2 4 1 3 1 2 4   1 3 1 1 1 1 2 1 3 2   1 3 2 1 3 1 2 4 1 3   1 2 4 1 3 1 1 1 1 2
                                        1 3 2 1 3 2 1 3 1 2   4 1 3 1 2 4 1 3

 Eigenvalues of metric

         1 0.124E-02 0.130E-02 0.137E-02 0.211E-02 0.498E-02 0.582E-02 0.680E-02 0.815E-02


 OPERATOR DM      FOR CENTER  0  COORDINATES:    0.000000    0.000000    0.000000


 **********************************************************************************************************************************
 DATASETS  * FILE   NREC   LENGTH (MB)   RECORD NAMES
              1      19       29.34       500      610      700      900      950      970     1000      129      960     1100   
                                          VAR    BASINP    GEOM    SYMINP    ZMAT    AOBASIS   BASIS     P2S    ABASIS      S 
                                         1400     1410     1200     1210     1080     1600     1650     1700     1800   
                                           T        V       H0       H01     AOSYM     SMH    MOLCAS    OPER     GRID   

              2       6        1.36       700     1000      520     1800     2101     2201   
                                         GEOM     BASIS   MCVARS    GRID      RKS      RKS  

 PROGRAMS   *        TOTAL       INT   RKS-SCF       INT   RKS-SCF       INT
 CPU TIMES  *         7.43      0.03      3.18      0.04      3.53      0.30
 REAL TIME  *         8.91 SEC
 DISK USED  *        32.00 MB (local),      255.99 MB (total)
 SF USED    *         2.54 MB
 GA USED    *         0.00 MB       (max)       0.00 MB       (current)
 **********************************************************************************************************************************


 Program * Restricted Kohn-Sham

 Density functional group PBE=PBEX+PBEC
 Functional: PBEX(Automatically generated (new) PBEX)                          Gradient terms: 1
 Functional: PBEC(Automatically generated (new) PBEC)                          Gradient terms: 1

 Functional: PBEX                   Factor:  1.0000
 Functional: PBEC                   Factor:  1.0000

 Radial grid threshold:                     5.0D-09
 Accuracy mode for quadrature:              DEFAULT
 Global grid threshold:                     1.0D-08
 Angular grid threshold:                    1.0D-09
 Fac_Neighbour:                                 4.0
 Size adjustment in partitioning scheme:   TREUTLER
 Skip grid points with weights lower than:  1.0D-20
 Grid orientation:                           T


 DFT orbital screening threshold (tolorb):   1.0D-09


 Integral-direct calculation

 Orbital guess generated from atomic densities. Full valence occupancy:   15

 Initial occupancy:  11

 NELEC=   22   SYM=1   MS2= 0   THRE=1.0D-09   THRD=1.0D-04   THRG=1.0D-04  HFMA2=F  DIIS_START=2   DIIS_MAX=10   DIIS_INCORE=F

 Level shifts:    0.00 (CLOSED)    0.00 (OPEN)    0.30 (GAP_MIN)

 ITER           ETOT              DE          GRAD        DDIFF     DIIS  NEXP   TIME(IT)  TIME(TOT)  DIAG
   1     -188.36590271    -188.36590271     0.00D+00     0.70D-01     0     0       0.35      0.51    start
   2     -188.20088283       0.16501988     0.77D-02     0.16D-01     1     0       0.32      0.83    diag
   3     -188.42485669      -0.22397386     0.15D-01     0.12D-01     2     0       0.32      1.15    diag
   4     -188.42630487      -0.00144817     0.11D-02     0.13D-02     3     0       0.30      1.45    diag
   5     -188.42633283      -0.00002796     0.15D-03     0.14D-03     4     0       0.29      1.74    diag
   6     -188.42633486      -0.00000203     0.47D-04     0.35D-04     5     0       0.28      2.02    diag
   7     -188.42633506      -0.00000020     0.15D-04     0.13D-04     6     0       0.26      2.28    diag
   8     -188.42633511      -0.00000006     0.73D-05     0.47D-05     7     0       0.25      2.53    fixocc
   9     -188.42633512      -0.00000000     0.27D-06     0.21D-06     8     0       0.20      2.73    diag
  10     -188.42633511       0.00000000     0.33D-08     0.67D-08     0     0       0.17      2.90    diag/orth

 Final occupancy:  11

 !RKS STATE 1.1 Energy               -188.426335114719
  RKS One-electron energy            -371.696823896805
  RKS Two-electron energy             147.717836450539
  RKS Kinetic energy                  187.434145542500
  RKS Nuclear energy                   57.882007652906
  RKS Virial quotient                  -1.005293536935
 Density functional                   -22.32935532     PBEX=-21.58841863 PBEC= -0.74093669

 !RKS STATE 1.1 Dipole moment          -0.00000000    -0.00009545     0.00000000
 Dipole moment /Debye                  -0.00000000    -0.00024261     0.00000000

 Orbital energies:

           1.1          2.1          3.1          4.1          5.1          6.1          7.1          8.1          9.1         10.1
    -18.856235   -18.856153   -10.080890    -1.074503    -1.037895    -0.510527    -0.467991    -0.465932    -0.465932    -0.333072

          11.1         12.1         13.1
     -0.333072    -0.032811    -0.017939


 HOMO     11.1    -0.333072 =      -9.0634eV
 LUMO     12.1    -0.032811 =      -0.8928eV
 LUMO-HOMO         0.300262 =       8.1705eV

 Orbitals saved in record  2301.2


 **********************************************************************************************************************************
 DATASETS  * FILE   NREC   LENGTH (MB)   RECORD NAMES
              1      19       29.34       500      610      700      900      950      970     1000      129      960     1100   
                                          VAR    BASINP    GEOM    SYMINP    ZMAT    AOBASIS   BASIS     P2S    ABASIS      S 
                                         1400     1410     1200     1210     1080     1600     1650     1700     1800   
                                           T        V       H0       H01     AOSYM     SMH    MOLCAS    OPER     GRID   

              2       7        1.97       700     1000      520     1800     2101     2201     2301   
                                         GEOM     BASIS   MCVARS    GRID      RKS      RKS      RKS  

              4       2        0.15      8000     8001   

 PROGRAMS   *        TOTAL   RKS-SCF       INT   RKS-SCF       INT   RKS-SCF       INT
 CPU TIMES  *        10.35      2.92      0.03      3.18      0.04      3.53      0.30
 REAL TIME  *        11.88 SEC
 DISK USED  *        32.61 MB (local),      260.89 MB (total)
 SF USED    *         2.54 MB
 GA USED    *         0.00 MB       (max)       0.00 MB       (current)
 **********************************************************************************************************************************
 SETTING EB_PBE         =      -188.42633511  AU                              
 SETTING E_AB_INT       =         0.00012889  AU                              

 *** results in hartree
 E_AB_INT         =         0.00012889 AU

 RPBE/aug-cc-pVDZ energy=   -188.426335114719

         RKS-SCF         RKS-SCF         RKS-SCF
   -188.42633511   -188.42633511   -376.85254134
 **********************************************************************************************************************************
 Molpro calculation terminated
