
 Primary working directories    : /scratch/sirous/753781/molpro.7CptlNYHD2
 Secondary working directories  : /scratch/sirous/753781/molpro.7CptlNYHD2
 Wavefunction directory         : /scratch/sirous/753781/
 Main file repository           : /scratch/sirous/753781/molpro.7CptlNYHD2/

 id        : karlovklimes

 Nodes                      nprocs
 nc-11.cc.karlov.mff.cuni.cz    4

 Using customized tuning parameters: mindgm=1; mindgv=20; mindgc=4; mindgr=1; noblas=0; minvec=7
 default implementation of scratch files=sf  


 Variables initialized (934), CPU time= 0.00 sec
 ***,CH3C6H4CN+CF3CN+BF3
 memory,1000,m
 gdirect
 gthresh,energy=1.d-8,twoint=1.d-19,oneint=1.d-19,zero=1.d-15,orbital=1.d-8,grid=1.d-8,THROVL=1.d-8
 symmetry,nosym
 geomtyp=xyz
                                                                                 ! Geometry
 geometry={
 H1        0.02970387    4.18137746     -0.78501207
 H2        0.01365177    4.25327352     0.72944182
 C1        0.00000000    0.08825600     0.00000000
 O1        0.00000000    1.22720600     0.00000000
 O2        0.00000000    3.62720600     0.00000000
 }
 
 
 
 basis=avqz
 
 
 
                                                                                 ! Dimer Calculation
 {rks,pbe,accu=1.d-8;orbital,2101.2}
 eab_PBE=energy
 
 
                                                                                 !monomer A
 dummy,3,4;                                                                      ! NOW MONOMER B IS DUMMY
 {rks,pbe,accu=1.d-8;orbital,2201.2}
 ea_PBE=energy
                                                                                 !monomer B
 dummy,1,2,5;                                                                    !NOW MONOMER A IS DUMMY
 {rks,pbe,accu=1.d-8;orbital,2301.2}
 eb_PBE=energy
 
 E_AB_int=eab_PBE-ea_PBE-eb_PBE
 
 
 text,results in hartree
 show,E_AB_int
 
 Commands  initialized (763), CPU time= 0.01 sec, 617 directives.
 Default parameters read. Elapsed time= 0.23 sec

 Checking input...
 Passed
1


                                         ***  PROGRAM SYSTEM MOLPRO  ***
                                       Copyright, TTI GmbH Stuttgart, 2015
                                    Version 2019.2 linked Jun  8 2019 11:26:33


 **********************************************************************************************************************************
 LABEL *   CH3C6H4CN+CF3CN+BF3                                                           
  64 bit mpp version                                                                     DATE: 23-Jul-20          TIME: 10:06:52  
 **********************************************************************************************************************************

 SHA1:             8135a10abc80eafa5b3ae28ffc55be4890dc4c84
 **********************************************************************************************************************************

 THRESHOLDS:

 ZERO    =  1.00D-15  ONEINT  =  1.00D-19  TWOINT  =  1.00D-19  PREFAC  =  1.00D-14  XXXXXX  =  1.00D-09  EORDER  =  1.00D-04
 ENERGY  =  1.00D-08  ETEST   =  0.00D+00  EDENS   =  0.00D+00  THRDEDEF=  1.00D-06  GRADIENT=  1.00D-02  STEP    =  1.00D-03
 ORBITAL =  1.00D-08  CIVEC   =  1.00D-05  COEFF   =  1.00D-04  PRINTCI =  5.00D-02  PUNCHCI =  9.90D+01  OPTGRAD =  3.00D-04
 OPTENERG=  1.00D-06  OPTSTEP =  3.00D-04  THRGRAD =  1.00D-10  COMPRESS=  1.00D-11  VARMIN  =  1.00D-07  VARMAX  =  1.00D-03
 THRDOUB =  0.00D+00  THRDIV  =  1.00D-05  THRRED  =  1.00D-07  THRPSP  =  1.00D+00  THRDC   =  1.00D-10  THRCS   =  1.00D-10
 THRNRM  =  1.00D-08  THREQ   =  0.00D+00  THRDE   =  1.00D+00  THRREF  =  1.00D-05  SPARFAC =  1.00D+00  THRDLP  =  1.00D-07
 THRDIA  =  1.00D-10  THRDLS  =  1.00D-07  THRGPS  =  0.00D+00  THRKEX  =  0.00D+00  THRDIS  =  2.00D-01  THRVAR  =  1.00D-10
 THRLOC  =  1.00D-06  THRGAP  =  1.00D-06  THRLOCT = -1.00D+00  THRGAPT = -1.00D+00  THRORB  =  1.00D-06  THRMLTP =  0.00D+00
 THRCPQCI=  1.00D-10  KEXTA   =  0.00D+00  THRCOARS=  0.00D+00  SYMTOL  =  1.00D-06  GRADTOL =  1.00D-06  THROVL  =  1.00D-08
 THRORTH =  1.00D-08  GRID    =  1.00D-08  GRIDMAX =  1.00D-03  DTMAX   =  0.00D+00  THROCCDE=  1.00D-01  THROCCDE=  1.00D-01
 THRPRINT=  2.50D-01


 Variable memory set to 1000000000 words,  buffer space 

 SETTING GEOMTYP        =    XYZ
 ZSYMEL=NOSYM

 SETTING BASIS          =    AVQZ


 Recomputing integrals since basis changed


 Using spherical harmonics

 Library entry H      S aug-cc-pVQZ          selected for orbital group  1
 Library entry H      P aug-cc-pVQZ          selected for orbital group  1
 Library entry H      D aug-cc-pVQZ          selected for orbital group  1
 Library entry H      F aug-cc-pVQZ          selected for orbital group  1
 Library entry C      S aug-cc-pVQZ          selected for orbital group  2
 Library entry C      P aug-cc-pVQZ          selected for orbital group  2
 Library entry C      D aug-cc-pVQZ          selected for orbital group  2
 Library entry C      F aug-cc-pVQZ          selected for orbital group  2
 Library entry C      G aug-cc-pVQZ          selected for orbital group  2
 Library entry O      S aug-cc-pVQZ          selected for orbital group  3
 Library entry O      P aug-cc-pVQZ          selected for orbital group  3
 Library entry O      D aug-cc-pVQZ          selected for orbital group  3
 Library entry O      F aug-cc-pVQZ          selected for orbital group  3
 Library entry O      G aug-cc-pVQZ          selected for orbital group  3


 PROGRAM * SEWARD (Integral evaluation for generally contracted gaussian basis sets)     Author: Roland Lindh, 1990

 Geometry written to block  1 of record 700


 Point group  C1  



 ATOMIC COORDINATES

 NR  ATOM    CHARGE       X              Y              Z

   1  H1      1.00    0.056132179    7.901658223   -1.483457817
   2  H2      1.00    0.025798106    8.037522086    1.378445264
   3  C1      6.00    0.000000000    0.166779669    0.000000000
   4  O1      8.00    0.000000000    2.319083238    0.000000000
   5  O2      8.00    0.000000000    6.854425937    0.000000000

 Bond lengths in Bohr (Angstrom)

 1-5  1.816726004  2-5  1.816726007  3-4  2.152303570
     ( 0.961370000)     ( 0.961370001)     ( 1.138950000)

 Bond angles

  1-5-2  104.10700007

 NUCLEAR CHARGE:                   24
 NUMBER OF PRIMITIVE AOS:         468
 NUMBER OF SYMMETRY AOS:          375
 NUMBER OF CONTRACTIONS:          332   (  332A   )
 NUMBER OF CORE ORBITALS:           3   (    3A   )
 NUMBER OF VALENCE ORBITALS:       14   (   14A   )


 NUCLEAR REPULSION ENERGY   57.00415265


 Eigenvalues of metric

         1 0.349E-04 0.670E-04 0.713E-04 0.130E-03 0.230E-03 0.335E-03 0.419E-03 0.437E-03


 OPERATOR DM      FOR CENTER  0  COORDINATES:    0.000000    0.000000    0.000000


 **********************************************************************************************************************************
 DATASETS  * FILE   NREC   LENGTH (MB)   RECORD NAMES
              1      18       34.10       500      610      700      900      950      970     1000      129      960     1100   
                                          VAR    BASINP    GEOM    SYMINP    ZMAT    AOBASIS   BASIS     P2S    ABASIS      S 
                                         1400     1410     1200     1210     1080     1600     1650     1700   
                                           T        V       H0       H01     AOSYM     SMH    MOLCAS    OPER   

 PROGRAMS   *        TOTAL       INT
 CPU TIMES  *         0.61      0.43
 REAL TIME  *         1.62 SEC
 DISK USED  *        34.54 MB (local),      138.16 MB (total)
 GA USED    *         0.00 MB       (max)       0.00 MB       (current)
 **********************************************************************************************************************************

 Density functional group PBE=PBEX+PBEC
 Functional: PBEX(Automatically generated (new) PBEX)                          Gradient terms: 1
 Functional: PBEC(Automatically generated (new) PBEC)                          Gradient terms: 1
 Use libxcgrid:  F
 Use grid at  1800.2

 Functional: PBEX                      Factor:  1.0000
 Functional: PBEC                      Factor:  1.0000

 Generated new metagrid on record  1800.2 with target accuracy 1.0D-08 and 53944 points in CPU time    0.2
 Computed new grid on record 1800.1 in CPU time    0.2
  269534 words reserved for DFT integration

 PROGRAM * RKS-SCF (Restricted closed shell Kohn-Sham)     Authors: W. Meyer, H.-J. Werner, P.J. Knowles, 1993

 NUMBER OF ELECTRONS:      12+   12-    SPACE SYMMETRY=1    SPIN SYMMETRY: Singlet 
 CONVERGENCE THRESHOLDS:    1.00E-04 (Density)    1.00E-08 (Energy)
 INTEGRAL THRESHOLDS:       1.00E-11 (Initial)    1.00E-11 (Final)
 MAX. NUMBER OF ITERATIONS:       60
 INTERPOLATION TYPE:            DIIS
 INTERPOLATION STEPS:              2 (START)      1 (STEP)
 LEVEL SHIFTS:                  0.00 (CLOSED)  0.00 (OPEN) 



 Use fine grid record 1800.2 for energy threshold  1.0D-08
 Orbital guess generated from atomic densities. Full valence occupancy:   17

 Molecular orbital dump at record        2101.2

 Initial occupancy:  12

 Direct Fock-matrix evaluation.        Authors: Roland Lindh & Martin Schuetz (1993/96)

 Integral Threshold:                  0.1D-10
 Threshold for writing integrals:     0.1D-06
 Prescreening on density matrix:        ON 
 Calculation will be performed fully direct        

 ITERATION   DDIFF            GRAD            ENERGY        2-EL.EN.            DIPOLE MOMENTS         DIIS   CPU(IT)  CPU(TOT)
    1      0.000D+00      0.000D+00      -189.50536206    305.575941    0.04035    1.01889   -0.05160    0     26.1     32.1     start
    2      0.000D+00      0.641D-02      -188.90637626    278.538048   -0.01620    0.76747    0.03400    1     22.7     54.8     diag
    3      0.103D-01      0.156D-01      -189.59797819    298.108317    0.02597    0.45206   -0.03027    2     23.0     77.9     diag
    4      0.789D-02      0.242D-02      -189.60997219    297.159423    0.02765    1.10245   -0.03316    3     22.4    100.2     diag
    5      0.190D-02      0.162D-02      -189.61683592    297.388754    0.02551    0.87348   -0.03051    4     22.1    122.3     diag
    6      0.751D-03      0.247D-03      -189.61703559    297.273701    0.02556    0.85462   -0.03030    5     22.0    144.3     diag
    7      0.169D-03      0.435D-04      -189.61704136    297.325246    0.02564    0.85066   -0.03045    6     20.3    164.6     diag
    8      0.194D-04      0.357D-05      -189.61704139    297.325473    0.02565    0.85139   -0.03043    7     18.4    183.0     diag
    9      0.160D-05      0.732D-06      -189.61704139    297.326479    0.02565    0.85095   -0.03046    0     17.1    200.0     orth

 Final occupancy:  12

 !RKS STATE  1.1 Energy              -189.617041385749
 Nuclear energy                        57.00415265
 One-electron energy                 -372.27931432
 Two-electron energy                  148.66323943
 Density functional                   -23.00511914     PBEX=-22.22964232 PBEC= -0.77547682
 Virial quotient                       -1.00322535
 !RKS STATE  1.1 Dipole moment          0.02564852     0.85094836    -0.03045547
 Dipole moment /Debye                   0.06518776     2.16275332    -0.07740501

 Orbital energies:

         1.1          2.1          3.1          4.1          5.1          6.1          7.1          8.1          9.1         10.1
    -18.832726   -18.750072    -9.979562    -1.049958    -0.929985    -0.498771    -0.482433    -0.411440    -0.411291    -0.341353

        11.1         12.1         13.1         14.1
     -0.308221    -0.265451    -0.059736    -0.059071


 HOMO     12.1    -0.265451 =      -7.2233eV
 LUMO     13.1    -0.059736 =      -1.6255eV
 LUMO-HOMO         0.205715 =       5.5978eV


 **********************************************************************************************************************************
 DATASETS  * FILE   NREC   LENGTH (MB)   RECORD NAMES
              1      19       34.10       500      610      700      900      950      970     1000      129      960     1100   
                                          VAR    BASINP    GEOM    SYMINP    ZMAT    AOBASIS   BASIS     P2S    ABASIS      S 
                                         1400     1410     1200     1210     1080     1600     1650     1700     1800   
                                           T        V       H0       H01     AOSYM     SMH    MOLCAS    OPER     GRID   

              2       5        5.09       700     1000      520     1800     2101   
                                         GEOM     BASIS   MCVARS    GRID      RKS  

 PROGRAMS   *        TOTAL   RKS-SCF       INT
 CPU TIMES  *       200.92    200.31      0.43
 REAL TIME  *       210.42 SEC
 DISK USED  *        46.35 MB (local),      185.42 MB (total)
 SF USED    *         1.33 MB
 GA USED    *         1.79 MB       (max)       1.79 MB       (current)
 **********************************************************************************************************************************
 SETTING EAB_PBE        =      -189.61704139  AU                              

 Dummy atoms: C1  O1


 Recomputing one-electron integrals since nuclear charges changed


 PROGRAM * SEWARD (Integral evaluation for generally contracted gaussian basis sets)     Author: Roland Lindh, 1990

 Geometry written to block  1 of record 700


 Point group  C1  



 ATOMIC COORDINATES

 NR  ATOM    CHARGE       X              Y              Z

   1  H1      1.00    0.056132179    7.901658223   -1.483457817
   2  H2      1.00    0.025798106    8.037522086    1.378445264
   3  C1      0.00    0.000000000    0.166779669    0.000000000
   4  O1      0.00    0.000000000    2.319083238    0.000000000
   5  O2      8.00    0.000000000    6.854425937    0.000000000

 Bond lengths in Bohr (Angstrom)

 1-5  1.816726004  2-5  1.816726007  3-4  2.152303570
     ( 0.961370000)     ( 0.961370001)     ( 1.138950000)

 Bond angles

  1-5-2  104.10700007

 NUCLEAR CHARGE:                   10
 NUMBER OF PRIMITIVE AOS:         468
 NUMBER OF SYMMETRY AOS:          375
 NUMBER OF CONTRACTIONS:          332   (  332A   )
 NUMBER OF CORE ORBITALS:           1   (    1A   )
 NUMBER OF VALENCE ORBITALS:        6   (    6A   )

 MOLECULE CHANGED: INITIALIZING OCCUPATION AND DUMP RECORDS


 NUCLEAR REPULSION ENERGY    9.15605698


 Eigenvalues of metric

         1 0.349E-04 0.670E-04 0.713E-04 0.130E-03 0.230E-03 0.335E-03 0.419E-03 0.437E-03


 OPERATOR DM      FOR CENTER  0  COORDINATES:    0.000000    0.000000    0.000000


 **********************************************************************************************************************************
 DATASETS  * FILE   NREC   LENGTH (MB)   RECORD NAMES
              1      19       34.10       500      610      700      900      950      970     1000      129      960     1100   
                                          VAR    BASINP    GEOM    SYMINP    ZMAT    AOBASIS   BASIS     P2S    ABASIS      S 
                                         1400     1410     1200     1210     1080     1600     1650     1700     1800   
                                           T        V       H0       H01     AOSYM     SMH    MOLCAS    OPER     GRID   

              2       5        5.09       700     1000      520     1800     2101   
                                         GEOM     BASIS   MCVARS    GRID      RKS  

 PROGRAMS   *        TOTAL       INT   RKS-SCF       INT
 CPU TIMES  *       201.06      0.13    200.31      0.43
 REAL TIME  *       210.57 SEC
 DISK USED  *        46.35 MB (local),      185.42 MB (total)
 SF USED    *         1.33 MB
 GA USED    *         1.79 MB       (max)       1.79 MB       (current)
 **********************************************************************************************************************************

 Density functional group PBE=PBEX+PBEC
 Functional: PBEX(Automatically generated (new) PBEX)                          Gradient terms: 1
 Functional: PBEC(Automatically generated (new) PBEC)                          Gradient terms: 1
 Use libxcgrid:  F
 Use grid at  1800.2

 Functional: PBEX                      Factor:  1.0000
 Functional: PBEC                      Factor:  1.0000

 Generated new metagrid on record  1800.2 with target accuracy 1.0D-08 and 53944 points in CPU time    0.2
 Computed new grid on record 1800.1 in CPU time    0.2
  269534 words reserved for DFT integration

 PROGRAM * RKS-SCF (Restricted closed shell Kohn-Sham)     Authors: W. Meyer, H.-J. Werner, P.J. Knowles, 1993

 NUMBER OF ELECTRONS:       5+    5-    SPACE SYMMETRY=1    SPIN SYMMETRY: Singlet 
 CONVERGENCE THRESHOLDS:    1.00E-04 (Density)    1.00E-08 (Energy)
 INTEGRAL THRESHOLDS:       1.00E-11 (Initial)    1.00E-11 (Final)
 MAX. NUMBER OF ITERATIONS:       60
 INTERPOLATION TYPE:            DIIS
 INTERPOLATION STEPS:              2 (START)      1 (STEP)
 LEVEL SHIFTS:                  0.00 (CLOSED)  0.00 (OPEN) 



 Use fine grid record 1800.2 for energy threshold  1.0D-08
 Orbital guess generated from atomic densities. Full valence occupancy:    7

 Molecular orbital dump at record        2201.2

 Initial occupancy:   5

 Direct Fock-matrix evaluation.        Authors: Roland Lindh & Martin Schuetz (1993/96)

 Integral Threshold:                  0.1D-10
 Threshold for writing integrals:     0.1D-06
 Prescreening on density matrix:        ON 
 Calculation will be performed fully direct        

 ITERATION   DDIFF            GRAD            ENERGY        2-EL.EN.            DIPOLE MOMENTS         DIIS   CPU(IT)  CPU(TOT)
    1      0.000D+00      0.000D+00       -76.30037103     98.210892    0.04032    1.09799   -0.05170    0     26.0     33.8     start
    2      0.000D+00      0.856D-02       -75.91338928     81.811207   -0.01663   -0.44404    0.02079    1     22.5     56.3     diag
    3      0.864D-02      0.194D-01       -76.38595602     93.603757    0.02707    0.73665   -0.03468    2     22.8     79.0     diag
    4      0.615D-02      0.510D-03       -76.38637452     93.201343    0.02597    0.70678   -0.03328    3     21.9    100.9     diag
    5      0.253D-03      0.111D-03       -76.38638778     93.250970    0.02591    0.70529   -0.03321    4     20.0    120.9     diag
    6      0.294D-04      0.252D-04       -76.38638857     93.261841    0.02600    0.70757   -0.03332    5     18.4    139.3     diag
    7      0.735D-05      0.996D-06       -76.38638857     93.261855    0.02599    0.70746   -0.03331    6     15.7    155.1     diag
    8      0.273D-06      0.809D-07       -76.38638857     93.261959    0.02599    0.70748   -0.03332    0     11.9    167.0     orth

 Final occupancy:   5

 !RKS STATE  1.1 Energy               -76.386388568330
 Nuclear energy                         9.15605698
 One-electron energy                 -122.93451766
 Two-electron energy                   46.63097955
 Density functional                    -9.23890744     PBEX=-8.91449342 PBEC=-0.32441402
 Virial quotient                       -1.00345271
 !RKS STATE  1.1 Dipole moment          0.02599411     0.70748013    -0.03331557
 Dipole moment /Debye                   0.06606611     1.79811736    -0.08467420

 Orbital energies:

         1.1          2.1          3.1          4.1          5.1          6.1          7.1
    -18.753931    -0.931039    -0.483395    -0.343739    -0.266310    -0.034615     0.016025


 HOMO      5.1    -0.266310 =      -7.2467eV
 LUMO      6.1    -0.034615 =      -0.9419eV
 LUMO-HOMO         0.231695 =       6.3047eV


 **********************************************************************************************************************************
 DATASETS  * FILE   NREC   LENGTH (MB)   RECORD NAMES
              1      19       34.10       500      610      700      900      950      970     1000      129      960     1100   
                                          VAR    BASINP    GEOM    SYMINP    ZMAT    AOBASIS   BASIS     P2S    ABASIS      S 
                                         1400     1410     1200     1210     1080     1600     1650     1700     1800   
                                           T        V       H0       H01     AOSYM     SMH    MOLCAS    OPER     GRID   

              2       6       12.00       700     1000      520     1800     2101     2201   
                                         GEOM     BASIS   MCVARS    GRID      RKS      RKS  

 PROGRAMS   *        TOTAL   RKS-SCF       INT   RKS-SCF       INT
 CPU TIMES  *       368.35    167.29      0.13    200.31      0.43
 REAL TIME  *       380.88 SEC
 DISK USED  *        52.83 MB (local),      211.31 MB (total)
 SF USED    *         1.33 MB
 GA USED    *         1.79 MB       (max)       1.79 MB       (current)
 **********************************************************************************************************************************
 SETTING EA_PBE         =       -76.38638857  AU                              

 Dummy atoms: H1  H2  O2


 Recomputing one-electron integrals since nuclear charges changed


 PROGRAM * SEWARD (Integral evaluation for generally contracted gaussian basis sets)     Author: Roland Lindh, 1990

 Geometry written to block  1 of record 700


 Point group  C1  



 ATOMIC COORDINATES

 NR  ATOM    CHARGE       X              Y              Z

   1  H1      0.00    0.056132179    7.901658223   -1.483457817
   2  H2      0.00    0.025798106    8.037522086    1.378445264
   3  C1      6.00    0.000000000    0.166779669    0.000000000
   4  O1      8.00    0.000000000    2.319083238    0.000000000
   5  O2      0.00    0.000000000    6.854425937    0.000000000

 Bond lengths in Bohr (Angstrom)

 1-5  1.816726004  2-5  1.816726007  3-4  2.152303570
     ( 0.961370000)     ( 0.961370001)     ( 1.138950000)

 Bond angles

  1-5-2  104.10700007

 NUCLEAR CHARGE:                   14
 NUMBER OF PRIMITIVE AOS:         468
 NUMBER OF SYMMETRY AOS:          375
 NUMBER OF CONTRACTIONS:          332   (  332A   )
 NUMBER OF CORE ORBITALS:           2   (    2A   )
 NUMBER OF VALENCE ORBITALS:        8   (    8A   )

 MOLECULE CHANGED: INITIALIZING OCCUPATION AND DUMP RECORDS


 NUCLEAR REPULSION ENERGY   22.30168675


 Eigenvalues of metric

         1 0.349E-04 0.670E-04 0.713E-04 0.130E-03 0.230E-03 0.335E-03 0.419E-03 0.437E-03


 OPERATOR DM      FOR CENTER  0  COORDINATES:    0.000000    0.000000    0.000000


 **********************************************************************************************************************************
 DATASETS  * FILE   NREC   LENGTH (MB)   RECORD NAMES
              1      19       34.10       500      610      700      900      950      970     1000      129      960     1100   
                                          VAR    BASINP    GEOM    SYMINP    ZMAT    AOBASIS   BASIS     P2S    ABASIS      S 
                                         1400     1410     1200     1210     1080     1600     1650     1700     1800   
                                           T        V       H0       H01     AOSYM     SMH    MOLCAS    OPER     GRID   

              2       6       12.00       700     1000      520     1800     2101     2201   
                                         GEOM     BASIS   MCVARS    GRID      RKS      RKS  

 PROGRAMS   *        TOTAL       INT   RKS-SCF       INT   RKS-SCF       INT
 CPU TIMES  *       368.49      0.13    167.29      0.13    200.31      0.43
 REAL TIME  *       381.03 SEC
 DISK USED  *        52.83 MB (local),      211.31 MB (total)
 SF USED    *         1.33 MB
 GA USED    *         1.79 MB       (max)       1.79 MB       (current)
 **********************************************************************************************************************************

 Density functional group PBE=PBEX+PBEC
 Functional: PBEX(Automatically generated (new) PBEX)                          Gradient terms: 1
 Functional: PBEC(Automatically generated (new) PBEC)                          Gradient terms: 1
 Use libxcgrid:  F
 Use grid at  1800.2

 Functional: PBEX                      Factor:  1.0000
 Functional: PBEC                      Factor:  1.0000

 Generated new metagrid on record  1800.2 with target accuracy 1.0D-08 and 53944 points in CPU time    0.2
 Computed new grid on record 1800.1 in CPU time    0.2
  269534 words reserved for DFT integration

 PROGRAM * RKS-SCF (Restricted closed shell Kohn-Sham)     Authors: W. Meyer, H.-J. Werner, P.J. Knowles, 1993

 NUMBER OF ELECTRONS:       7+    7-    SPACE SYMMETRY=1    SPIN SYMMETRY: Singlet 
 CONVERGENCE THRESHOLDS:    1.00E-04 (Density)    1.00E-08 (Energy)
 INTEGRAL THRESHOLDS:       1.00E-11 (Initial)    1.00E-11 (Final)
 MAX. NUMBER OF ITERATIONS:       60
 INTERPOLATION TYPE:            DIIS
 INTERPOLATION STEPS:              2 (START)      1 (STEP)
 LEVEL SHIFTS:                  0.00 (CLOSED)  0.00 (OPEN) 



 Use fine grid record 1800.2 for energy threshold  1.0D-08
 Orbital guess generated from atomic densities. Full valence occupancy:   10

 Molecular orbital dump at record        2301.2

 Initial occupancy:   7

 Direct Fock-matrix evaluation.        Authors: Roland Lindh & Martin Schuetz (1993/96)

 Integral Threshold:                  0.1D-10
 Threshold for writing integrals:     0.1D-06
 Prescreening on density matrix:        ON 
 Calculation will be performed fully direct        

 ITERATION   DDIFF            GRAD            ENERGY        2-EL.EN.            DIPOLE MOMENTS         DIIS   CPU(IT)  CPU(TOT)
    1      0.000D+00      0.000D+00      -113.21910264    154.887059   -0.00000   -0.07501   -0.00000    0     26.6     34.5     start
    2      0.000D+00      0.366D-02      -113.12818214    148.058404   -0.00000    0.95483   -0.00000    1     22.7     57.2     diag
    3      0.395D-02      0.836D-02      -113.23045921    152.421788   -0.00000   -0.21315   -0.00000    2     21.8     79.0     diag
    4      0.337D-02      0.211D-02      -113.23926270    152.385729   -0.00000    0.08430   -0.00000    3     22.2    101.2     diag
    5      0.966D-03      0.137D-03      -113.23929875    152.311583   -0.00000    0.07917   -0.00000    4     20.6    121.7     diag
    6      0.669D-04      0.351D-04      -113.23930108    152.320701   -0.00000    0.07473   -0.00000    5     18.6    140.3     diag
    7      0.120D-04      0.382D-05      -113.23930110    152.322458   -0.00000    0.07436   -0.00000    6     16.9    157.1     diag
    8      0.128D-05      0.307D-06      -113.23930110    152.322753   -0.00000    0.07422   -0.00000    0     14.0    171.2     orth

 Final occupancy:   7

 !RKS STATE  1.1 Energy              -113.239301100633
 Nuclear energy                        22.30168675
 One-electron energy                 -197.94965384
 Two-electron energy                   76.16137636
 Density functional                   -13.75271037     PBEX=-13.30477875 PBEC= -0.44793161
 Virial quotient                       -1.00378651
 !RKS STATE  1.1 Dipole moment         -0.00000261     0.07421859    -0.00000215
 Dipole moment /Debye                  -0.00000663     0.18863248    -0.00000547

 Orbital energies:

         1.1          2.1          3.1          4.1          5.1          6.1          7.1          8.1          9.1
    -18.856168   -10.001474    -1.071612    -0.519536    -0.432532    -0.432531    -0.333190    -0.077664    -0.077660


 HOMO      7.1    -0.333190 =      -9.0666eV
 LUMO      8.1    -0.077664 =      -2.1133eV
 LUMO-HOMO         0.255526 =       6.9532eV


 **********************************************************************************************************************************
 DATASETS  * FILE   NREC   LENGTH (MB)   RECORD NAMES
              1      19       34.10       500      610      700      900      950      970     1000      129      960     1100   
                                          VAR    BASINP    GEOM    SYMINP    ZMAT    AOBASIS   BASIS     P2S    ABASIS      S 
                                         1400     1410     1200     1210     1080     1600     1650     1700     1800   
                                           T        V       H0       H01     AOSYM     SMH    MOLCAS    OPER     GRID   

              2       7       18.92       700     1000      520     1800     2101     2201     2301   
                                         GEOM     BASIS   MCVARS    GRID      RKS      RKS      RKS  

 PROGRAMS   *        TOTAL   RKS-SCF       INT   RKS-SCF       INT   RKS-SCF       INT
 CPU TIMES  *       539.95    171.46      0.13    167.29      0.13    200.31      0.43
 REAL TIME  *       555.47 SEC
 DISK USED  *        59.74 MB (local),      238.98 MB (total)
 SF USED    *         1.33 MB
 GA USED    *         1.79 MB       (max)       1.79 MB       (current)
 **********************************************************************************************************************************
 SETTING EB_PBE         =      -113.23930110  AU                              
 SETTING E_AB_INT       =         0.00864828  AU                              

 *** results in hartree
 E_AB_INT         =         0.00864828 AU
 Molecular orbitals read from record     2301.2  Type=RKS/CANONICAL (state 1.1)
 Occupation numbers read from record     2301.2  Type=RKS/RHF (state 1.1)
 Orbital energies read from record       2301.2  Type=RKS/CANONICAL (state 1.1)
 Redundancy group numbers read from rec  2301.2  Type=RKS/RHF (state 1.1)

 RPBE/aug-cc-pVQZ energy=   -113.239301100633

         RKS-SCF         RKS-SCF         RKS-SCF
   -113.23930110    -76.38638857   -189.61704139
 **********************************************************************************************************************************
 Molpro calculation terminated
