
 Primary working directories    : /scratch/sirous/753778/molpro.WVkXsWLOmq
 Secondary working directories  : /scratch/sirous/753778/molpro.WVkXsWLOmq
 Wavefunction directory         : /scratch/sirous/753778/
 Main file repository           : /scratch/sirous/753778/molpro.WVkXsWLOmq/

 id        : karlovklimes

 Nodes                      nprocs
 nc-11.cc.karlov.mff.cuni.cz    4

 Using customized tuning parameters: mindgm=1; mindgv=20; mindgc=4; mindgr=1; noblas=0; minvec=7
 default implementation of scratch files=sf  


 Variables initialized (934), CPU time= 0.01 sec
 ***,CH3C6H4CN+CF3CN+BF3
 memory,1000,m
 gdirect
 gthresh,energy=1.d-8,twoint=1.d-19,oneint=1.d-19,zero=1.d-15,orbital=1.d-8,grid=1.d-8,THROVL=1.d-8
 symmetry,nosym
 geomtyp=xyz
                                                                                 ! Geometry
 geometry={
 H1        0.02970387    3.88137746     -0.78501207
 H2        0.01365177    3.95327352     0.72944182
 C1        0.00000000    0.08825600     0.00000000
 O1        0.00000000    1.22720600     0.00000000
 O2        0.00000000    3.32720600     0.00000000
 }
 
 
 
 basis=avqz
 
 
 
                                                                                 ! Dimer Calculation
 {rks,pbe,accu=1.d-8;orbital,2101.2}
 eab_PBE=energy
 
 
                                                                                 !monomer A
 dummy,3,4;                                                                      ! NOW MONOMER B IS DUMMY
 {rks,pbe,accu=1.d-8;orbital,2201.2}
 ea_PBE=energy
                                                                                 !monomer B
 dummy,1,2,5;                                                                    !NOW MONOMER A IS DUMMY
 {rks,pbe,accu=1.d-8;orbital,2301.2}
 eb_PBE=energy
 
 E_AB_int=eab_PBE-ea_PBE-eb_PBE
 
 
 text,results in hartree
 show,E_AB_int
 
 Commands  initialized (763), CPU time= 0.01 sec, 617 directives.
 Default parameters read. Elapsed time= 0.18 sec

 Checking input...
 Passed
1


                                         ***  PROGRAM SYSTEM MOLPRO  ***
                                       Copyright, TTI GmbH Stuttgart, 2015
                                    Version 2019.2 linked Jun  8 2019 11:26:33


 **********************************************************************************************************************************
 LABEL *   CH3C6H4CN+CF3CN+BF3                                                           
  64 bit mpp version                                                                     DATE: 23-Jul-20          TIME: 10:06:50  
 **********************************************************************************************************************************

 SHA1:             8135a10abc80eafa5b3ae28ffc55be4890dc4c84
 **********************************************************************************************************************************

 THRESHOLDS:

 ZERO    =  1.00D-15  ONEINT  =  1.00D-19  TWOINT  =  1.00D-19  PREFAC  =  1.00D-14  XXXXXX  =  1.00D-09  EORDER  =  1.00D-04
 ENERGY  =  1.00D-08  ETEST   =  0.00D+00  EDENS   =  0.00D+00  THRDEDEF=  1.00D-06  GRADIENT=  1.00D-02  STEP    =  1.00D-03
 ORBITAL =  1.00D-08  CIVEC   =  1.00D-05  COEFF   =  1.00D-04  PRINTCI =  5.00D-02  PUNCHCI =  9.90D+01  OPTGRAD =  3.00D-04
 OPTENERG=  1.00D-06  OPTSTEP =  3.00D-04  THRGRAD =  1.00D-10  COMPRESS=  1.00D-11  VARMIN  =  1.00D-07  VARMAX  =  1.00D-03
 THRDOUB =  0.00D+00  THRDIV  =  1.00D-05  THRRED  =  1.00D-07  THRPSP  =  1.00D+00  THRDC   =  1.00D-10  THRCS   =  1.00D-10
 THRNRM  =  1.00D-08  THREQ   =  0.00D+00  THRDE   =  1.00D+00  THRREF  =  1.00D-05  SPARFAC =  1.00D+00  THRDLP  =  1.00D-07
 THRDIA  =  1.00D-10  THRDLS  =  1.00D-07  THRGPS  =  0.00D+00  THRKEX  =  0.00D+00  THRDIS  =  2.00D-01  THRVAR  =  1.00D-10
 THRLOC  =  1.00D-06  THRGAP  =  1.00D-06  THRLOCT = -1.00D+00  THRGAPT = -1.00D+00  THRORB  =  1.00D-06  THRMLTP =  0.00D+00
 THRCPQCI=  1.00D-10  KEXTA   =  0.00D+00  THRCOARS=  0.00D+00  SYMTOL  =  1.00D-06  GRADTOL =  1.00D-06  THROVL  =  1.00D-08
 THRORTH =  1.00D-08  GRID    =  1.00D-08  GRIDMAX =  1.00D-03  DTMAX   =  0.00D+00  THROCCDE=  1.00D-01  THROCCDE=  1.00D-01
 THRPRINT=  2.50D-01


 Variable memory set to 1000000000 words,  buffer space 

 SETTING GEOMTYP        =    XYZ
 ZSYMEL=NOSYM

 SETTING BASIS          =    AVQZ


 Recomputing integrals since basis changed


 Using spherical harmonics

 Library entry H      S aug-cc-pVQZ          selected for orbital group  1
 Library entry H      P aug-cc-pVQZ          selected for orbital group  1
 Library entry H      D aug-cc-pVQZ          selected for orbital group  1
 Library entry H      F aug-cc-pVQZ          selected for orbital group  1
 Library entry C      S aug-cc-pVQZ          selected for orbital group  2
 Library entry C      P aug-cc-pVQZ          selected for orbital group  2
 Library entry C      D aug-cc-pVQZ          selected for orbital group  2
 Library entry C      F aug-cc-pVQZ          selected for orbital group  2
 Library entry C      G aug-cc-pVQZ          selected for orbital group  2
 Library entry O      S aug-cc-pVQZ          selected for orbital group  3
 Library entry O      P aug-cc-pVQZ          selected for orbital group  3
 Library entry O      D aug-cc-pVQZ          selected for orbital group  3
 Library entry O      F aug-cc-pVQZ          selected for orbital group  3
 Library entry O      G aug-cc-pVQZ          selected for orbital group  3


 PROGRAM * SEWARD (Integral evaluation for generally contracted gaussian basis sets)     Author: Roland Lindh, 1990

 Geometry written to block  1 of record 700


 Point group  C1  



 ATOMIC COORDINATES

 NR  ATOM    CHARGE       X              Y              Z

   1  H1      1.00    0.056132179    7.334740385   -1.483457817
   2  H2      1.00    0.025798106    7.470604248    1.378445264
   3  C1      6.00    0.000000000    0.166779669    0.000000000
   4  O1      8.00    0.000000000    2.319083238    0.000000000
   5  O2      8.00    0.000000000    6.287508100    0.000000000

 Bond lengths in Bohr (Angstrom)

 1-5  1.816726004  2-5  1.816726007  3-4  2.152303570
     ( 0.961370000)     ( 0.961370001)     ( 1.138950000)

 Bond angles

  1-5-2  104.10700007

 NUCLEAR CHARGE:                   24
 NUMBER OF PRIMITIVE AOS:         468
 NUMBER OF SYMMETRY AOS:          375
 NUMBER OF CONTRACTIONS:          332   (  332A   )
 NUMBER OF CORE ORBITALS:           3   (    3A   )
 NUMBER OF VALENCE ORBITALS:       14   (   14A   )


 NUCLEAR REPULSION ENERGY   60.08371511


 Eigenvalues of metric

         1 0.288E-04 0.629E-04 0.708E-04 0.863E-04 0.138E-03 0.305E-03 0.364E-03 0.387E-03


 OPERATOR DM      FOR CENTER  0  COORDINATES:    0.000000    0.000000    0.000000


 **********************************************************************************************************************************
 DATASETS  * FILE   NREC   LENGTH (MB)   RECORD NAMES
              1      18       34.10       500      610      700      900      950      970     1000      129      960     1100   
                                          VAR    BASINP    GEOM    SYMINP    ZMAT    AOBASIS   BASIS     P2S    ABASIS      S 
                                         1400     1410     1200     1210     1080     1600     1650     1700   
                                           T        V       H0       H01     AOSYM     SMH    MOLCAS    OPER   

 PROGRAMS   *        TOTAL       INT
 CPU TIMES  *         0.68      0.52
 REAL TIME  *         1.84 SEC
 DISK USED  *        34.54 MB (local),      138.16 MB (total)
 GA USED    *         0.00 MB       (max)       0.00 MB       (current)
 **********************************************************************************************************************************

 Density functional group PBE=PBEX+PBEC
 Functional: PBEX(Automatically generated (new) PBEX)                          Gradient terms: 1
 Functional: PBEC(Automatically generated (new) PBEC)                          Gradient terms: 1
 Use libxcgrid:  F
 Use grid at  1800.2

 Functional: PBEX                      Factor:  1.0000
 Functional: PBEC                      Factor:  1.0000

 Generated new metagrid on record  1800.2 with target accuracy 1.0D-08 and 53944 points in CPU time    0.2
 Computed new grid on record 1800.1 in CPU time    0.2
  269534 words reserved for DFT integration

 PROGRAM * RKS-SCF (Restricted closed shell Kohn-Sham)     Authors: W. Meyer, H.-J. Werner, P.J. Knowles, 1993

 NUMBER OF ELECTRONS:      12+   12-    SPACE SYMMETRY=1    SPIN SYMMETRY: Singlet 
 CONVERGENCE THRESHOLDS:    1.00E-04 (Density)    1.00E-08 (Energy)
 INTEGRAL THRESHOLDS:       1.00E-11 (Initial)    1.00E-11 (Final)
 MAX. NUMBER OF ITERATIONS:       60
 INTERPOLATION TYPE:            DIIS
 INTERPOLATION STEPS:              2 (START)      1 (STEP)
 LEVEL SHIFTS:                  0.00 (CLOSED)  0.00 (OPEN) 



 Use fine grid record 1800.2 for energy threshold  1.0D-08
 Orbital guess generated from atomic densities. Full valence occupancy:   17

 Molecular orbital dump at record        2101.2

 Initial occupancy:  12

 Direct Fock-matrix evaluation.        Authors: Roland Lindh & Martin Schuetz (1993/96)

 Integral Threshold:                  0.1D-10
 Threshold for writing integrals:     0.1D-06
 Prescreening on density matrix:        ON 
 Calculation will be performed fully direct        

 ITERATION   DDIFF            GRAD            ENERGY        2-EL.EN.            DIPOLE MOMENTS         DIIS   CPU(IT)  CPU(TOT)
    1      0.000D+00      0.000D+00      -189.48233908    312.258187    0.04035    1.01445   -0.05173    0     33.9     44.4     start
    2      0.000D+00      0.656D-02      -188.77568922    282.907587   -0.01379    0.73181    0.04582    1     26.9     71.4     diag
    3      0.116D-01      0.167D-01      -189.57606014    304.535694    0.02548    0.41120   -0.02910    2     26.1     97.5     diag
    4      0.925D-02      0.265D-02      -189.59050203    303.470184    0.02776    1.12738   -0.03255    3     24.8    122.2     diag
    5      0.208D-02      0.177D-02      -189.59857778    303.679693    0.02552    0.87951   -0.02939    4     24.9    147.1     diag
    6      0.827D-03      0.287D-03      -189.59884436    303.560062    0.02553    0.85618   -0.02917    5     23.7    170.8     diag
    7      0.195D-03      0.547D-04      -189.59885362    303.628737    0.02564    0.85182   -0.02936    6     22.5    193.3     diag
    8      0.247D-04      0.365D-05      -189.59885366    303.628358    0.02563    0.85240   -0.02934    7     20.5    213.8     diag
    9      0.178D-05      0.930D-06      -189.59885364    303.630430    0.02565    0.85182   -0.02937    0     19.1    232.9     orth

 Final occupancy:  12

 !RKS STATE  1.1 Energy              -189.598853636750
 Nuclear energy                        60.08371511
 One-electron energy                 -378.47267081
 Two-electron energy                  151.81521481
 Density functional                   -23.02511274     PBEX=-22.24631584 PBEC= -0.77879691
 Virial quotient                       -1.00246555
 !RKS STATE  1.1 Dipole moment          0.02564540     0.85182255    -0.02936682
 Dipole moment /Debye                   0.06517982     2.16497515    -0.07463811

 Orbital energies:

         1.1          2.1          3.1          4.1          5.1          6.1          7.1          8.1          9.1         10.1
    -18.824942   -18.746278    -9.974000    -1.045780    -0.930454    -0.505521    -0.482952    -0.407673    -0.407173    -0.337887

        11.1         12.1         13.1         14.1
     -0.291288    -0.265712    -0.056607    -0.055222


 HOMO     12.1    -0.265712 =      -7.2304eV
 LUMO     13.1    -0.056607 =      -1.5404eV
 LUMO-HOMO         0.209105 =       5.6900eV


 **********************************************************************************************************************************
 DATASETS  * FILE   NREC   LENGTH (MB)   RECORD NAMES
              1      19       34.10       500      610      700      900      950      970     1000      129      960     1100   
                                          VAR    BASINP    GEOM    SYMINP    ZMAT    AOBASIS   BASIS     P2S    ABASIS      S 
                                         1400     1410     1200     1210     1080     1600     1650     1700     1800   
                                           T        V       H0       H01     AOSYM     SMH    MOLCAS    OPER     GRID   

              2       5        5.09       700     1000      520     1800     2101   
                                         GEOM     BASIS   MCVARS    GRID      RKS  

 PROGRAMS   *        TOTAL   RKS-SCF       INT
 CPU TIMES  *       233.84    233.16      0.52
 REAL TIME  *       245.36 SEC
 DISK USED  *        46.35 MB (local),      185.42 MB (total)
 SF USED    *         1.33 MB
 GA USED    *         1.79 MB       (max)       1.79 MB       (current)
 **********************************************************************************************************************************
 SETTING EAB_PBE        =      -189.59885364  AU                              

 Dummy atoms: C1  O1


 Recomputing one-electron integrals since nuclear charges changed


 PROGRAM * SEWARD (Integral evaluation for generally contracted gaussian basis sets)     Author: Roland Lindh, 1990

 Geometry written to block  1 of record 700


 Point group  C1  



 ATOMIC COORDINATES

 NR  ATOM    CHARGE       X              Y              Z

   1  H1      1.00    0.056132179    7.334740385   -1.483457817
   2  H2      1.00    0.025798106    7.470604248    1.378445264
   3  C1      0.00    0.000000000    0.166779669    0.000000000
   4  O1      0.00    0.000000000    2.319083238    0.000000000
   5  O2      8.00    0.000000000    6.287508100    0.000000000

 Bond lengths in Bohr (Angstrom)

 1-5  1.816726004  2-5  1.816726007  3-4  2.152303570
     ( 0.961370000)     ( 0.961370001)     ( 1.138950000)

 Bond angles

  1-5-2  104.10700007

 NUCLEAR CHARGE:                   10
 NUMBER OF PRIMITIVE AOS:         468
 NUMBER OF SYMMETRY AOS:          375
 NUMBER OF CONTRACTIONS:          332   (  332A   )
 NUMBER OF CORE ORBITALS:           1   (    1A   )
 NUMBER OF VALENCE ORBITALS:        6   (    6A   )

 MOLECULE CHANGED: INITIALIZING OCCUPATION AND DUMP RECORDS


 NUCLEAR REPULSION ENERGY    9.15605698


 Eigenvalues of metric

         1 0.288E-04 0.629E-04 0.708E-04 0.863E-04 0.138E-03 0.305E-03 0.364E-03 0.387E-03


 OPERATOR DM      FOR CENTER  0  COORDINATES:    0.000000    0.000000    0.000000


 **********************************************************************************************************************************
 DATASETS  * FILE   NREC   LENGTH (MB)   RECORD NAMES
              1      19       34.10       500      610      700      900      950      970     1000      129      960     1100   
                                          VAR    BASINP    GEOM    SYMINP    ZMAT    AOBASIS   BASIS     P2S    ABASIS      S 
                                         1400     1410     1200     1210     1080     1600     1650     1700     1800   
                                           T        V       H0       H01     AOSYM     SMH    MOLCAS    OPER     GRID   

              2       5        5.09       700     1000      520     1800     2101   
                                         GEOM     BASIS   MCVARS    GRID      RKS  

 PROGRAMS   *        TOTAL       INT   RKS-SCF       INT
 CPU TIMES  *       233.97      0.13    233.16      0.52
 REAL TIME  *       245.51 SEC
 DISK USED  *        46.35 MB (local),      185.42 MB (total)
 SF USED    *         1.33 MB
 GA USED    *         1.79 MB       (max)       1.79 MB       (current)
 **********************************************************************************************************************************

 Density functional group PBE=PBEX+PBEC
 Functional: PBEX(Automatically generated (new) PBEX)                          Gradient terms: 1
 Functional: PBEC(Automatically generated (new) PBEC)                          Gradient terms: 1
 Use libxcgrid:  F
 Use grid at  1800.2

 Functional: PBEX                      Factor:  1.0000
 Functional: PBEC                      Factor:  1.0000

 Generated new metagrid on record  1800.2 with target accuracy 1.0D-08 and 53944 points in CPU time    0.2
 Computed new grid on record 1800.1 in CPU time    0.2
  269534 words reserved for DFT integration

 PROGRAM * RKS-SCF (Restricted closed shell Kohn-Sham)     Authors: W. Meyer, H.-J. Werner, P.J. Knowles, 1993

 NUMBER OF ELECTRONS:       5+    5-    SPACE SYMMETRY=1    SPIN SYMMETRY: Singlet 
 CONVERGENCE THRESHOLDS:    1.00E-04 (Density)    1.00E-08 (Energy)
 INTEGRAL THRESHOLDS:       1.00E-11 (Initial)    1.00E-11 (Final)
 MAX. NUMBER OF ITERATIONS:       60
 INTERPOLATION TYPE:            DIIS
 INTERPOLATION STEPS:              2 (START)      1 (STEP)
 LEVEL SHIFTS:                  0.00 (CLOSED)  0.00 (OPEN) 



 Use fine grid record 1800.2 for energy threshold  1.0D-08
 Orbital guess generated from atomic densities. Full valence occupancy:    7

 Molecular orbital dump at record        2201.2

 Initial occupancy:   5

 Direct Fock-matrix evaluation.        Authors: Roland Lindh & Martin Schuetz (1993/96)

 Integral Threshold:                  0.1D-10
 Threshold for writing integrals:     0.1D-06
 Prescreening on density matrix:        ON 
 Calculation will be performed fully direct        

 ITERATION   DDIFF            GRAD            ENERGY        2-EL.EN.            DIPOLE MOMENTS         DIIS   CPU(IT)  CPU(TOT)
    1      0.000D+00      0.000D+00       -76.30037256     98.211116    0.04032    1.09796   -0.05170    0     30.0     40.5     start
    2      0.000D+00      0.856D-02       -75.91308952     81.806235   -0.01666   -0.44628    0.02091    1     24.9     65.3     diag
    3      0.875D-02      0.194D-01       -76.38596103     93.604148    0.02708    0.73664   -0.03468    2     24.5     89.9     diag
    4      0.629D-02      0.510D-03       -76.38638039     93.201277    0.02598    0.70674   -0.03328    3     23.4    113.3     diag
    5      0.267D-03      0.111D-03       -76.38639370     93.251022    0.02592    0.70524   -0.03321    4     21.7    135.0     diag
    6      0.299D-04      0.252D-04       -76.38639448     93.261895    0.02601    0.70753   -0.03332    5     20.3    155.3     diag
    7      0.736D-05      0.998D-06       -76.38639448     93.261907    0.02600    0.70742   -0.03331    6     17.8    173.1     diag
    8      0.295D-06      0.811D-07       -76.38639448     93.262011    0.02600    0.70744   -0.03331    0     13.7    186.8     orth

 Final occupancy:   5

 !RKS STATE  1.1 Energy               -76.386394484450
 Nuclear energy                         9.15605698
 One-electron energy                 -122.93455033
 Two-electron energy                   46.63100547
 Density functional                    -9.23890661     PBEX=-8.91449170 PBEC=-0.32441491
 Virial quotient                       -1.00345300
 !RKS STATE  1.1 Dipole moment          0.02600481     0.70743981    -0.03331447
 Dipole moment /Debye                   0.06609331     1.79801486    -0.08467140

 Orbital energies:

         1.1          2.1          3.1          4.1          5.1          6.1          7.1
    -18.753935    -0.931035    -0.483391    -0.343736    -0.266306    -0.034661     0.015952


 HOMO      5.1    -0.266306 =      -7.2466eV
 LUMO      6.1    -0.034661 =      -0.9432eV
 LUMO-HOMO         0.231646 =       6.3034eV


 **********************************************************************************************************************************
 DATASETS  * FILE   NREC   LENGTH (MB)   RECORD NAMES
              1      19       34.10       500      610      700      900      950      970     1000      129      960     1100   
                                          VAR    BASINP    GEOM    SYMINP    ZMAT    AOBASIS   BASIS     P2S    ABASIS      S 
                                         1400     1410     1200     1210     1080     1600     1650     1700     1800   
                                           T        V       H0       H01     AOSYM     SMH    MOLCAS    OPER     GRID   

              2       6       12.00       700     1000      520     1800     2101     2201   
                                         GEOM     BASIS   MCVARS    GRID      RKS      RKS  

 PROGRAMS   *        TOTAL   RKS-SCF       INT   RKS-SCF       INT
 CPU TIMES  *       421.06    187.08      0.13    233.16      0.52
 REAL TIME  *       437.06 SEC
 DISK USED  *        52.83 MB (local),      211.31 MB (total)
 SF USED    *         1.33 MB
 GA USED    *         1.79 MB       (max)       1.79 MB       (current)
 **********************************************************************************************************************************
 SETTING EA_PBE         =       -76.38639448  AU                              

 Dummy atoms: H1  H2  O2


 Recomputing one-electron integrals since nuclear charges changed


 PROGRAM * SEWARD (Integral evaluation for generally contracted gaussian basis sets)     Author: Roland Lindh, 1990

 Geometry written to block  1 of record 700


 Point group  C1  



 ATOMIC COORDINATES

 NR  ATOM    CHARGE       X              Y              Z

   1  H1      0.00    0.056132179    7.334740385   -1.483457817
   2  H2      0.00    0.025798106    7.470604248    1.378445264
   3  C1      6.00    0.000000000    0.166779669    0.000000000
   4  O1      8.00    0.000000000    2.319083238    0.000000000
   5  O2      0.00    0.000000000    6.287508100    0.000000000

 Bond lengths in Bohr (Angstrom)

 1-5  1.816726004  2-5  1.816726007  3-4  2.152303570
     ( 0.961370000)     ( 0.961370001)     ( 1.138950000)

 Bond angles

  1-5-2  104.10700007

 NUCLEAR CHARGE:                   14
 NUMBER OF PRIMITIVE AOS:         468
 NUMBER OF SYMMETRY AOS:          375
 NUMBER OF CONTRACTIONS:          332   (  332A   )
 NUMBER OF CORE ORBITALS:           2   (    2A   )
 NUMBER OF VALENCE ORBITALS:        8   (    8A   )

 MOLECULE CHANGED: INITIALIZING OCCUPATION AND DUMP RECORDS


 NUCLEAR REPULSION ENERGY   22.30168675


 Eigenvalues of metric

         1 0.288E-04 0.629E-04 0.708E-04 0.863E-04 0.138E-03 0.305E-03 0.364E-03 0.387E-03


 OPERATOR DM      FOR CENTER  0  COORDINATES:    0.000000    0.000000    0.000000


 **********************************************************************************************************************************
 DATASETS  * FILE   NREC   LENGTH (MB)   RECORD NAMES
              1      19       34.10       500      610      700      900      950      970     1000      129      960     1100   
                                          VAR    BASINP    GEOM    SYMINP    ZMAT    AOBASIS   BASIS     P2S    ABASIS      S 
                                         1400     1410     1200     1210     1080     1600     1650     1700     1800   
                                           T        V       H0       H01     AOSYM     SMH    MOLCAS    OPER     GRID   

              2       6       12.00       700     1000      520     1800     2101     2201   
                                         GEOM     BASIS   MCVARS    GRID      RKS      RKS  

 PROGRAMS   *        TOTAL       INT   RKS-SCF       INT   RKS-SCF       INT
 CPU TIMES  *       421.17      0.11    187.08      0.13    233.16      0.52
 REAL TIME  *       437.21 SEC
 DISK USED  *        52.83 MB (local),      211.31 MB (total)
 SF USED    *         1.33 MB
 GA USED    *         1.79 MB       (max)       1.79 MB       (current)
 **********************************************************************************************************************************

 Density functional group PBE=PBEX+PBEC
 Functional: PBEX(Automatically generated (new) PBEX)                          Gradient terms: 1
 Functional: PBEC(Automatically generated (new) PBEC)                          Gradient terms: 1
 Use libxcgrid:  F
 Use grid at  1800.2

 Functional: PBEX                      Factor:  1.0000
 Functional: PBEC                      Factor:  1.0000

 Generated new metagrid on record  1800.2 with target accuracy 1.0D-08 and 53944 points in CPU time    0.2
 Computed new grid on record 1800.1 in CPU time    0.2
  269534 words reserved for DFT integration

 PROGRAM * RKS-SCF (Restricted closed shell Kohn-Sham)     Authors: W. Meyer, H.-J. Werner, P.J. Knowles, 1993

 NUMBER OF ELECTRONS:       7+    7-    SPACE SYMMETRY=1    SPIN SYMMETRY: Singlet 
 CONVERGENCE THRESHOLDS:    1.00E-04 (Density)    1.00E-08 (Energy)
 INTEGRAL THRESHOLDS:       1.00E-11 (Initial)    1.00E-11 (Final)
 MAX. NUMBER OF ITERATIONS:       60
 INTERPOLATION TYPE:            DIIS
 INTERPOLATION STEPS:              2 (START)      1 (STEP)
 LEVEL SHIFTS:                  0.00 (CLOSED)  0.00 (OPEN) 



 Use fine grid record 1800.2 for energy threshold  1.0D-08
 Orbital guess generated from atomic densities. Full valence occupancy:   10

 Molecular orbital dump at record        2301.2

 Initial occupancy:   7

 Direct Fock-matrix evaluation.        Authors: Roland Lindh & Martin Schuetz (1993/96)

 Integral Threshold:                  0.1D-10
 Threshold for writing integrals:     0.1D-06
 Prescreening on density matrix:        ON 
 Calculation will be performed fully direct        

 ITERATION   DDIFF            GRAD            ENERGY        2-EL.EN.            DIPOLE MOMENTS         DIIS   CPU(IT)  CPU(TOT)
    1      0.000D+00      0.000D+00      -113.21913158    154.886970   -0.00000   -0.07499   -0.00000    0     31.1     39.5     start
    2      0.000D+00      0.366D-02      -113.12821162    148.058331   -0.00000    0.95490   -0.00001    1     24.2     63.7     diag
    3      0.396D-02      0.836D-02      -113.23048801    152.421734   -0.00000   -0.21310   -0.00001    2     24.0     87.7     diag
    4      0.337D-02      0.211D-02      -113.23929167    152.385655   -0.00000    0.08436   -0.00000    3     23.8    111.6     diag
    5      0.969D-03      0.137D-03      -113.23932777    152.311518   -0.00000    0.07921   -0.00001    4     21.7    133.3     diag
    6      0.674D-04      0.351D-04      -113.23933010    152.320640   -0.00000    0.07477   -0.00001    5     19.7    153.0     diag
    7      0.121D-04      0.381D-05      -113.23933012    152.322395   -0.00000    0.07440   -0.00001    6     18.0    171.0     diag
    8      0.128D-05      0.305D-06      -113.23933012    152.322686   -0.00000    0.07426   -0.00001    0     15.1    186.1     orth

 Final occupancy:   7

 !RKS STATE  1.1 Energy              -113.239330116020
 Nuclear energy                        22.30168675
 One-electron energy                 -197.94967022
 Two-electron energy                   76.16134291
 Density functional                   -13.75268956     PBEX=-13.30475825 PBEC= -0.44793131
 Virial quotient                       -1.00378662
 !RKS STATE  1.1 Dipole moment         -0.00000346     0.07426173    -0.00000506
 Dipole moment /Debye                  -0.00000880     0.18874212    -0.00001286

 Orbital energies:

         1.1          2.1          3.1          4.1          5.1          6.1          7.1          8.1          9.1
    -18.856206   -10.001490    -1.071602    -0.519529    -0.432529    -0.432526    -0.333187    -0.077664    -0.077659


 HOMO      7.1    -0.333187 =      -9.0665eV
 LUMO      8.1    -0.077664 =      -2.1133eV
 LUMO-HOMO         0.255523 =       6.9531eV


 **********************************************************************************************************************************
 DATASETS  * FILE   NREC   LENGTH (MB)   RECORD NAMES
              1      19       34.10       500      610      700      900      950      970     1000      129      960     1100   
                                          VAR    BASINP    GEOM    SYMINP    ZMAT    AOBASIS   BASIS     P2S    ABASIS      S 
                                         1400     1410     1200     1210     1080     1600     1650     1700     1800   
                                           T        V       H0       H01     AOSYM     SMH    MOLCAS    OPER     GRID   

              2       7       18.92       700     1000      520     1800     2101     2201     2301   
                                         GEOM     BASIS   MCVARS    GRID      RKS      RKS      RKS  

 PROGRAMS   *        TOTAL   RKS-SCF       INT   RKS-SCF       INT   RKS-SCF       INT
 CPU TIMES  *       607.59    186.42      0.11    187.08      0.13    233.16      0.52
 REAL TIME  *       627.96 SEC
 DISK USED  *        59.74 MB (local),      238.98 MB (total)
 SF USED    *         1.33 MB
 GA USED    *         1.79 MB       (max)       1.79 MB       (current)
 **********************************************************************************************************************************
 SETTING EB_PBE         =      -113.23933012  AU                              
 SETTING E_AB_INT       =         0.02687096  AU                              

 *** results in hartree
 E_AB_INT         =         0.02687096 AU
 Molecular orbitals read from record     2301.2  Type=RKS/CANONICAL (state 1.1)
 Occupation numbers read from record     2301.2  Type=RKS/RHF (state 1.1)
 Orbital energies read from record       2301.2  Type=RKS/CANONICAL (state 1.1)
 Redundancy group numbers read from rec  2301.2  Type=RKS/RHF (state 1.1)

 RPBE/aug-cc-pVQZ energy=   -113.239330116020

         RKS-SCF         RKS-SCF         RKS-SCF
   -113.23933012    -76.38639448   -189.59885364
 **********************************************************************************************************************************
 Molpro calculation terminated
