
 Primary working directories    : /scratch/sirous/116667/molpro.eSiKM0sTSe
 Secondary working directories  : /scratch/sirous/116667/molpro.eSiKM0sTSe
 Wavefunction directory         : /scratch/sirous/116667/
 Main file repository           : /scratch/sirous/116667/molpro.eSiKM0sTSe/

 id        : karlovklimes

 Nodes                      nprocs
 nc-03.cc.karlov.mff.cuni.cz    4

 Using customized tuning parameters: mindgm=1; mindgv=20; mindgc=4; mindgr=1; noblas=0; minvec=7
 default implementation of scratch files=sf  


 Variables initialized (934), CPU time= 0.00 sec
 ***,CH3C6H4CN+CF3CN+BF3
 memory,500,m
 gdirect
 gthresh,energy=1.d-8,twoint=1.d-19,oneint=1.d-19,zero=1.d-15,orbital=1.d-8,grid=1.d-8
 symmetry,nosym
 geomtyp=xyz
                                                                                 ! Geometry
 geometry={
 O1        0.000000000    -2.172794000     0.000000000
 O2        0.000000000    2.227206000     0.000000000
 H1        0.029703868    2.781377461     -0.785012070
 H2        0.013651768    2.853273520     0.729441819
 H3        0.017607753    -2.759535840     -0.761351599
 H4        -0.013377840    -2.768366698     0.754550510
 }
 
 
 
 basis=aug-cc-pv5z
 
 
 
                                                                                 ! Dimer Calculation
 {rks,pbe,accu=1.d-8;orbital,2101.2}
 eab_PBE=energy
 
 
                                                                                 !monomer A
 dummy,2,3,4;                                                                    ! NOW MONOMER B IS DUMMY
 {rks,pbe,accu=1.d-8;orbital,2201.2}
 ea_PBE=energy
                                                                                 !monomer B
 dummy,1,5,6;                                                                    !NOW MONOMER A IS DUMMY
 {rks,pbe,accu=1.d-8;orbital,2301.2}
 eb_PBE=energy
 
 E_AB_int=eab_PBE-ea_PBE-eb_PBE
 
 
 text,results in hartree
 show,E_AB_int
 
 Commands  initialized (763), CPU time= 0.02 sec, 617 directives.
 Default parameters read. Elapsed time= 0.20 sec

 Checking input...
 Passed
1


                                         ***  PROGRAM SYSTEM MOLPRO  ***
                                       Copyright, TTI GmbH Stuttgart, 2015
                                    Version 2019.2 linked Jun  8 2019 11:26:33


 **********************************************************************************************************************************
 LABEL *   CH3C6H4CN+CF3CN+BF3                                                           
  64 bit mpp version                                                                     DATE: 19-Nov-19          TIME: 17:18:05  
 **********************************************************************************************************************************

 SHA1:             8135a10abc80eafa5b3ae28ffc55be4890dc4c84
 **********************************************************************************************************************************

 THRESHOLDS:

 ZERO    =  1.00D-15  ONEINT  =  1.00D-19  TWOINT  =  1.00D-19  PREFAC  =  1.00D-14  XXXXXX  =  1.00D-09  EORDER  =  1.00D-04
 ENERGY  =  1.00D-08  ETEST   =  0.00D+00  EDENS   =  0.00D+00  THRDEDEF=  1.00D-06  GRADIENT=  1.00D-02  STEP    =  1.00D-03
 ORBITAL =  1.00D-08  CIVEC   =  1.00D-05  COEFF   =  1.00D-04  PRINTCI =  5.00D-02  PUNCHCI =  9.90D+01  OPTGRAD =  3.00D-04
 OPTENERG=  1.00D-06  OPTSTEP =  3.00D-04  THRGRAD =  1.00D-10  COMPRESS=  1.00D-11  VARMIN  =  1.00D-07  VARMAX  =  1.00D-03
 THRDOUB =  0.00D+00  THRDIV  =  1.00D-05  THRRED  =  1.00D-07  THRPSP  =  1.00D+00  THRDC   =  1.00D-10  THRCS   =  1.00D-10
 THRNRM  =  1.00D-08  THREQ   =  0.00D+00  THRDE   =  1.00D+00  THRREF  =  1.00D-05  SPARFAC =  1.00D+00  THRDLP  =  1.00D-07
 THRDIA  =  1.00D-10  THRDLS  =  1.00D-07  THRGPS  =  0.00D+00  THRKEX  =  0.00D+00  THRDIS  =  2.00D-01  THRVAR  =  1.00D-10
 THRLOC  =  1.00D-06  THRGAP  =  1.00D-06  THRLOCT = -1.00D+00  THRGAPT = -1.00D+00  THRORB  =  1.00D-06  THRMLTP =  0.00D+00
 THRCPQCI=  1.00D-10  KEXTA   =  0.00D+00  THRCOARS=  0.00D+00  SYMTOL  =  1.00D-06  GRADTOL =  1.00D-06  THROVL  =  1.00D-08
 THRORTH =  1.00D-08  GRID    =  1.00D-08  GRIDMAX =  1.00D-03  DTMAX   =  0.00D+00  THROCCDE=  1.00D-01  THROCCDE=  1.00D-01
 THRPRINT=  2.50D-01


 Variable memory set to  500000000 words,  buffer space 

 SETTING GEOMTYP        =    XYZ
 ZSYMEL=NOSYM

 SETTING BASIS          =    AUG-CC-PV5Z


 Recomputing integrals since basis changed


 Using spherical harmonics

 Library entry O      S aug-cc-pV5Z          selected for orbital group  1
 Library entry O      P aug-cc-pV5Z          selected for orbital group  1
 Library entry O      D aug-cc-pV5Z          selected for orbital group  1
 Library entry O      F aug-cc-pV5Z          selected for orbital group  1
 Library entry O      G aug-cc-pV5Z          selected for orbital group  1
 Library entry O      H aug-cc-pV5Z          selected for orbital group  1
 Library entry H      S aug-cc-pV5Z          selected for orbital group  2
 Library entry H      P aug-cc-pV5Z          selected for orbital group  2
 Library entry H      D aug-cc-pV5Z          selected for orbital group  2
 Library entry H      F aug-cc-pV5Z          selected for orbital group  2
 Library entry H      G aug-cc-pV5Z          selected for orbital group  2


 PROGRAM * SEWARD (Integral evaluation for generally contracted gaussian basis sets)     Author: Roland Lindh, 1990

 Geometry written to block  1 of record 700


 Point group  C1  



 ATOMIC COORDINATES

 NR  ATOM    CHARGE       X              Y              Z

   1  O1      8.00    0.000000000   -4.105985585    0.000000000
   2  O2      8.00    0.000000000    4.208809363    0.000000000
   3  H1      1.00    0.056132175    5.256041650   -1.483457817
   4  H2      1.00    0.025798103    5.391905511    1.378445262
   5  H3      1.00    0.033273831   -5.214766969   -1.438746007
   6  H4      1.00   -0.025280454   -5.231454872    1.425893811

 Bond lengths in Bohr (Angstrom)

 1-5  1.816726005  1-6  1.816726005  2-3  1.816726005  2-4  1.816726005
     ( 0.961370000)     ( 0.961370000)     ( 0.961370001)     ( 0.961370000)

 Bond angles

  3-2-4  104.10699999   5-1-6  104.10700004

 NUCLEAR CHARGE:                   20
 NUMBER OF PRIMITIVE AOS:         830
 NUMBER OF SYMMETRY AOS:          620
 NUMBER OF CONTRACTIONS:          574   (  574A   )
 NUMBER OF CORE ORBITALS:           2   (    2A   )
 NUMBER OF VALENCE ORBITALS:       12   (   12A   )


 NUCLEAR REPULSION ENERGY   29.73652875


 Eigenvalues of metric

         1 0.115E-04 0.120E-04 0.136E-04 0.139E-04 0.571E-04 0.694E-04 0.763E-04 0.778E-04


 OPERATOR DM      FOR CENTER  0  COORDINATES:    0.000000    0.000000    0.000000


 **********************************************************************************************************************************
 DATASETS  * FILE   NREC   LENGTH (MB)   RECORD NAMES
              1      18       42.11       500      610      700      900      950      970     1000      129      960     1100   
                                          VAR    BASINP    GEOM    SYMINP    ZMAT    AOBASIS   BASIS     P2S    ABASIS      S 
                                         1400     1410     1200     1210     1080     1600     1650     1700   
                                           T        V       H0       H01     AOSYM     SMH    MOLCAS    OPER   

 PROGRAMS   *        TOTAL       INT
 CPU TIMES  *         0.88      0.69
 REAL TIME  *         1.88 SEC
 DISK USED  *        42.66 MB (local),      170.64 MB (total)
 GA USED    *         0.00 MB       (max)       0.00 MB       (current)
 **********************************************************************************************************************************

 Density functional group PBE=PBEX+PBEC
 Functional: PBEX(Automatically generated (new) PBEX)                          Gradient terms: 1
 Functional: PBEC(Automatically generated (new) PBEC)                          Gradient terms: 1
 Use libxcgrid:  F
 Use grid at  1800.2

 Functional: PBEX                      Factor:  1.0000
 Functional: PBEC                      Factor:  1.0000

 Generated new metagrid on record  1800.2 with target accuracy 1.0D-08 and 64356 points in CPU time    0.2
 Computed new grid on record 1800.1 in CPU time    0.2
  465012 words reserved for DFT integration

 PROGRAM * RKS-SCF (Restricted closed shell Kohn-Sham)     Authors: W. Meyer, H.-J. Werner, P.J. Knowles, 1993

 NUMBER OF ELECTRONS:      10+   10-    SPACE SYMMETRY=1    SPIN SYMMETRY: Singlet 
 CONVERGENCE THRESHOLDS:    1.00E-04 (Density)    1.00E-08 (Energy)
 INTEGRAL THRESHOLDS:       1.00E-11 (Initial)    1.00E-11 (Final)
 MAX. NUMBER OF ITERATIONS:       60
 INTERPOLATION TYPE:            DIIS
 INTERPOLATION STEPS:              2 (START)      1 (STEP)
 LEVEL SHIFTS:                  0.00 (CLOSED)  0.00 (OPEN) 



 Use fine grid record 1800.2 for energy threshold  1.0D-08
 Orbital guess generated from atomic densities. Full valence occupancy:   14

 Molecular orbital dump at record        2101.2

 Initial occupancy:  10

 Direct Fock-matrix evaluation.        Authors: Roland Lindh & Martin Schuetz (1993/96)

 Integral Threshold:                  0.1D-10
 Threshold for writing integrals:     0.1D-06
 Prescreening on density matrix:        ON 
 Calculation will be performed fully direct        

 ITERATION   DDIFF            GRAD            ENERGY        2-EL.EN.            DIPOLE MOMENTS         DIIS   CPU(IT)  CPU(TOT)
    1      0.000D+00      0.000D+00      -152.59967075    219.886989    0.04430   -0.00193   -0.05807    0    166.8    174.7     start
    2      0.000D+00      0.656D-02      -151.77648721    185.598435   -0.02022    0.00060    0.02956    1    166.4    341.1     diag
    3      0.702D-02      0.151D-01      -152.77398042    210.430136    0.02957   -0.00132   -0.03822    2    165.7    506.8     diag
    4      0.494D-02      0.399D-03      -152.77488466    209.574184    0.02818   -0.00129   -0.03653    3    153.5    660.3     diag
    5      0.231D-03      0.909D-04      -152.77491624    209.692468    0.02817   -0.00125   -0.03640    4    143.9    804.2     diag
    6      0.341D-04      0.180D-04      -152.77491758    209.710886    0.02827   -0.00130   -0.03658    5    131.0    935.2     diag
    7      0.571D-05      0.121D-05      -152.77491759    209.710521    0.02826   -0.00123   -0.03655    6    117.0   1052.2     diag
    8      0.476D-06      0.386D-06      -152.77491759    209.710779    0.02826   -0.00136   -0.03656    0     84.5   1136.7     orth

 Final occupancy:  10

 !RKS STATE  1.1 Energy              -152.774917585540
 Nuclear energy                        29.73652875
 One-electron energy                 -268.89096127
 Two-electron energy                  104.85538952
 Density functional                   -18.47587458     PBEX=-17.82726327 PBEC= -0.64861131
 Virial quotient                       -1.00335747
 !RKS STATE  1.1 Dipole moment          0.02825946    -0.00136162    -0.03656132
 Dipole moment /Debye                   0.07182369    -0.00346067    -0.09292352

 Orbital energies:

         1.1          2.1          3.1          4.1          5.1          6.1          7.1          8.1          9.1         10.1
    -18.746711   -18.746616    -0.922506    -0.922467    -0.475160    -0.475098    -0.335415    -0.333517    -0.257936    -0.257577

        11.1         12.1
     -0.032500    -0.025217


 HOMO     10.1    -0.257577 =      -7.0090eV
 LUMO     11.1    -0.032500 =      -0.8844eV
 LUMO-HOMO         0.225077 =       6.1246eV


 **********************************************************************************************************************************
 DATASETS  * FILE   NREC   LENGTH (MB)   RECORD NAMES
              1      19       42.11       500      610      700      900      950      970     1000      129      960     1100   
                                          VAR    BASINP    GEOM    SYMINP    ZMAT    AOBASIS   BASIS     P2S    ABASIS      S 
                                         1400     1410     1200     1210     1080     1600     1650     1700     1800   
                                           T        V       H0       H01     AOSYM     SMH    MOLCAS    OPER     GRID   

              2       5        9.55       700     1000      520     1800     2101   
                                         GEOM     BASIS   MCVARS    GRID      RKS  

 PROGRAMS   *        TOTAL   RKS-SCF       INT
 CPU TIMES  *      1138.26   1137.37      0.69
 REAL TIME  *      1146.98 SEC
 DISK USED  *        71.60 MB (local),      286.39 MB (total)
 SF USED    *         3.96 MB
 GA USED    *         2.13 MB       (max)       2.12 MB       (current)
 **********************************************************************************************************************************
 SETTING EAB_PBE        =      -152.77491759  AU                              

 Dummy atoms: O2  H1  H2


 Recomputing one-electron integrals since nuclear charges changed


 PROGRAM * SEWARD (Integral evaluation for generally contracted gaussian basis sets)     Author: Roland Lindh, 1990

 Geometry written to block  1 of record 700


 Point group  C1  



 ATOMIC COORDINATES

 NR  ATOM    CHARGE       X              Y              Z

   1  O1      8.00    0.000000000   -4.105985585    0.000000000
   2  O2      0.00    0.000000000    4.208809363    0.000000000
   3  H1      0.00    0.056132175    5.256041650   -1.483457817
   4  H2      0.00    0.025798103    5.391905511    1.378445262
   5  H3      1.00    0.033273831   -5.214766969   -1.438746007
   6  H4      1.00   -0.025280454   -5.231454872    1.425893811

 Bond lengths in Bohr (Angstrom)

 1-5  1.816726005  1-6  1.816726005  2-3  1.816726005  2-4  1.816726005
     ( 0.961370000)     ( 0.961370000)     ( 0.961370001)     ( 0.961370000)

 Bond angles

  3-2-4  104.10699999   5-1-6  104.10700004

 NUCLEAR CHARGE:                   10
 NUMBER OF PRIMITIVE AOS:         830
 NUMBER OF SYMMETRY AOS:          620
 NUMBER OF CONTRACTIONS:          574   (  574A   )
 NUMBER OF CORE ORBITALS:           1   (    1A   )
 NUMBER OF VALENCE ORBITALS:        6   (    6A   )

 MOLECULE CHANGED: INITIALIZING OCCUPATION AND DUMP RECORDS


 NUCLEAR REPULSION ENERGY    9.15605699


 Eigenvalues of metric

         1 0.115E-04 0.120E-04 0.136E-04 0.139E-04 0.571E-04 0.694E-04 0.763E-04 0.778E-04


 OPERATOR DM      FOR CENTER  0  COORDINATES:    0.000000    0.000000    0.000000


 **********************************************************************************************************************************
 DATASETS  * FILE   NREC   LENGTH (MB)   RECORD NAMES
              1      19       42.11       500      610      700      900      950      970     1000      129      960     1100   
                                          VAR    BASINP    GEOM    SYMINP    ZMAT    AOBASIS   BASIS     P2S    ABASIS      S 
                                         1400     1410     1200     1210     1080     1600     1650     1700     1800   
                                           T        V       H0       H01     AOSYM     SMH    MOLCAS    OPER     GRID   

              2       5        9.55       700     1000      520     1800     2101   
                                         GEOM     BASIS   MCVARS    GRID      RKS  

 PROGRAMS   *        TOTAL       INT   RKS-SCF       INT
 CPU TIMES  *      1138.68      0.42   1137.37      0.69
 REAL TIME  *      1147.47 SEC
 DISK USED  *        71.60 MB (local),      286.39 MB (total)
 SF USED    *         3.96 MB
 GA USED    *         2.13 MB       (max)       2.12 MB       (current)
 **********************************************************************************************************************************

 Density functional group PBE=PBEX+PBEC
 Functional: PBEX(Automatically generated (new) PBEX)                          Gradient terms: 1
 Functional: PBEC(Automatically generated (new) PBEC)                          Gradient terms: 1
 Use libxcgrid:  F
 Use grid at  1800.2

 Functional: PBEX                      Factor:  1.0000
 Functional: PBEC                      Factor:  1.0000

 Generated new metagrid on record  1800.2 with target accuracy 1.0D-08 and 64356 points in CPU time    0.2
 Computed new grid on record 1800.1 in CPU time    0.2
  465012 words reserved for DFT integration

 PROGRAM * RKS-SCF (Restricted closed shell Kohn-Sham)     Authors: W. Meyer, H.-J. Werner, P.J. Knowles, 1993

 NUMBER OF ELECTRONS:       5+    5-    SPACE SYMMETRY=1    SPIN SYMMETRY: Singlet 
 CONVERGENCE THRESHOLDS:    1.00E-04 (Density)    1.00E-08 (Energy)
 INTEGRAL THRESHOLDS:       1.00E-11 (Initial)    1.00E-11 (Final)
 MAX. NUMBER OF ITERATIONS:       60
 INTERPOLATION TYPE:            DIIS
 INTERPOLATION STEPS:              2 (START)      1 (STEP)
 LEVEL SHIFTS:                  0.00 (CLOSED)  0.00 (OPEN) 



 Use fine grid record 1800.2 for energy threshold  1.0D-08
 Orbital guess generated from atomic densities. Full valence occupancy:    7

 Molecular orbital dump at record        2201.2

 Initial occupancy:   5

 Direct Fock-matrix evaluation.        Authors: Roland Lindh & Martin Schuetz (1993/96)

 Integral Threshold:                  0.1D-10
 Threshold for writing integrals:     0.1D-06
 Prescreening on density matrix:        ON 
 Calculation will be performed fully direct        

 ITERATION   DDIFF            GRAD            ENERGY        2-EL.EN.            DIPOLE MOMENTS         DIIS   CPU(IT)  CPU(TOT)
    1      0.000D+00      0.000D+00       -76.30159779     98.228138    0.00394   -1.10080   -0.00633    0    157.0    164.1     start
    2      0.000D+00      0.651D-02       -75.91033954     81.744519   -0.00163    0.45358    0.00262    1    160.0    324.1     diag
    3      0.490D-02      0.148D-01       -76.38773071     93.605704    0.00264   -0.73834   -0.00425    2    159.7    483.9     diag
    4      0.343D-02      0.390D-03       -76.38815502     93.200465    0.00253   -0.70823   -0.00407    3    141.5    625.4     diag
    5      0.161D-03      0.855D-04       -76.38816860     93.251459    0.00253   -0.70674   -0.00407    4    122.1    747.5     diag
    6      0.231D-04      0.191D-04       -76.38816937     93.261990    0.00254   -0.70909   -0.00408    5    104.3    851.8     diag
    7      0.458D-05      0.894D-06       -76.38816938     93.261746    0.00254   -0.70895   -0.00408    6     71.4    923.1     diag
    8      0.215D-06      0.592D-07       -76.38816938     93.261833    0.00254   -0.70896   -0.00408    0     40.4    963.6     orth

 Final occupancy:   5

 !RKS STATE  1.1 Energy               -76.388169375369
 Nuclear energy                         9.15605699
 One-electron energy                 -122.93681353
 Two-electron energy                   46.63091648
 Density functional                    -9.23832931     PBEX=-8.91399720 PBEC=-0.32433211
 Virial quotient                       -1.00338011
 !RKS STATE  1.1 Dipole moment          0.00253631    -0.70896445    -0.00407815
 Dipole moment /Debye                   0.00644624    -1.80188987    -0.01036495

 Orbital energies:

         1.1          2.1          3.1          4.1          5.1          6.1          7.1
    -18.755008    -0.930818    -0.483376    -0.343716    -0.266300    -0.034686     0.014337


 HOMO      5.1    -0.266300 =      -7.2464eV
 LUMO      6.1    -0.034686 =      -0.9438eV
 LUMO-HOMO         0.231615 =       6.3026eV


 **********************************************************************************************************************************
 DATASETS  * FILE   NREC   LENGTH (MB)   RECORD NAMES
              1      19       42.11       500      610      700      900      950      970     1000      129      960     1100   
                                          VAR    BASINP    GEOM    SYMINP    ZMAT    AOBASIS   BASIS     P2S    ABASIS      S 
                                         1400     1410     1200     1210     1080     1600     1650     1700     1800   
                                           T        V       H0       H01     AOSYM     SMH    MOLCAS    OPER     GRID   

              2       6       25.25       700     1000      520     1800     2101     2201   
                                         GEOM     BASIS   MCVARS    GRID      RKS      RKS  

 PROGRAMS   *        TOTAL   RKS-SCF       INT   RKS-SCF       INT
 CPU TIMES  *      2102.93    964.25      0.42   1137.37      0.69
 REAL TIME  *      2118.06 SEC
 DISK USED  *        87.30 MB (local),      349.20 MB (total)
 SF USED    *         3.96 MB
 GA USED    *         2.13 MB       (max)       2.12 MB       (current)
 **********************************************************************************************************************************
 SETTING EA_PBE         =       -76.38816938  AU                              

 Dummy atoms: O1  H3  H4


 Recomputing one-electron integrals since nuclear charges changed


 PROGRAM * SEWARD (Integral evaluation for generally contracted gaussian basis sets)     Author: Roland Lindh, 1990

 Geometry written to block  1 of record 700


 Point group  C1  



 ATOMIC COORDINATES

 NR  ATOM    CHARGE       X              Y              Z

   1  O1      0.00    0.000000000   -4.105985585    0.000000000
   2  O2      8.00    0.000000000    4.208809363    0.000000000
   3  H1      1.00    0.056132175    5.256041650   -1.483457817
   4  H2      1.00    0.025798103    5.391905511    1.378445262
   5  H3      0.00    0.033273831   -5.214766969   -1.438746007
   6  H4      0.00   -0.025280454   -5.231454872    1.425893811

 Bond lengths in Bohr (Angstrom)

 1-5  1.816726005  1-6  1.816726005  2-3  1.816726005  2-4  1.816726005
     ( 0.961370000)     ( 0.961370000)     ( 0.961370001)     ( 0.961370000)

 Bond angles

  3-2-4  104.10699999   5-1-6  104.10700004

 NUCLEAR CHARGE:                   10
 NUMBER OF PRIMITIVE AOS:         830
 NUMBER OF SYMMETRY AOS:          620
 NUMBER OF CONTRACTIONS:          574   (  574A   )
 NUMBER OF CORE ORBITALS:           1   (    1A   )
 NUMBER OF VALENCE ORBITALS:        6   (    6A   )

 MOLECULE CHANGED: INITIALIZING OCCUPATION AND DUMP RECORDS


 NUCLEAR REPULSION ENERGY    9.15605698


 Eigenvalues of metric

         1 0.115E-04 0.120E-04 0.136E-04 0.139E-04 0.571E-04 0.694E-04 0.763E-04 0.778E-04


 OPERATOR DM      FOR CENTER  0  COORDINATES:    0.000000    0.000000    0.000000


 **********************************************************************************************************************************
 DATASETS  * FILE   NREC   LENGTH (MB)   RECORD NAMES
              1      19       42.11       500      610      700      900      950      970     1000      129      960     1100   
                                          VAR    BASINP    GEOM    SYMINP    ZMAT    AOBASIS   BASIS     P2S    ABASIS      S 
                                         1400     1410     1200     1210     1080     1600     1650     1700     1800   
                                           T        V       H0       H01     AOSYM     SMH    MOLCAS    OPER     GRID   

              2       6       25.25       700     1000      520     1800     2101     2201   
                                         GEOM     BASIS   MCVARS    GRID      RKS      RKS  

 PROGRAMS   *        TOTAL       INT   RKS-SCF       INT   RKS-SCF       INT
 CPU TIMES  *      2103.34      0.40    964.25      0.42   1137.37      0.69
 REAL TIME  *      2118.50 SEC
 DISK USED  *        87.30 MB (local),      349.20 MB (total)
 SF USED    *         3.96 MB
 GA USED    *         2.13 MB       (max)       2.12 MB       (current)
 **********************************************************************************************************************************

 Density functional group PBE=PBEX+PBEC
 Functional: PBEX(Automatically generated (new) PBEX)                          Gradient terms: 1
 Functional: PBEC(Automatically generated (new) PBEC)                          Gradient terms: 1
 Use libxcgrid:  F
 Use grid at  1800.2

 Functional: PBEX                      Factor:  1.0000
 Functional: PBEC                      Factor:  1.0000

  465012 words reserved for DFT integration

 PROGRAM * RKS-SCF (Restricted closed shell Kohn-Sham)     Authors: W. Meyer, H.-J. Werner, P.J. Knowles, 1993

 NUMBER OF ELECTRONS:       5+    5-    SPACE SYMMETRY=1    SPIN SYMMETRY: Singlet 
 CONVERGENCE THRESHOLDS:    1.00E-04 (Density)    1.00E-08 (Energy)
 INTEGRAL THRESHOLDS:       1.00E-11 (Initial)    1.00E-11 (Final)
 MAX. NUMBER OF ITERATIONS:       60
 INTERPOLATION TYPE:            DIIS
 INTERPOLATION STEPS:              2 (START)      1 (STEP)
 LEVEL SHIFTS:                  0.00 (CLOSED)  0.00 (OPEN) 



 Use fine grid record 1800.2 for energy threshold  1.0D-08
 Orbital guess generated from atomic densities. Full valence occupancy:    7

 Molecular orbital dump at record        2301.2

 Initial occupancy:   5

 Direct Fock-matrix evaluation.        Authors: Roland Lindh & Martin Schuetz (1993/96)

 Integral Threshold:                  0.1D-10
 Threshold for writing integrals:     0.1D-06
 Prescreening on density matrix:        ON 
 Calculation will be performed fully direct        

 ITERATION   DDIFF            GRAD            ENERGY        2-EL.EN.            DIPOLE MOMENTS         DIIS   CPU(IT)  CPU(TOT)
    1      0.000D+00      0.000D+00       -76.30159786     98.228137    0.04037    1.09887   -0.05174    0    148.7    155.7     start
    2      0.000D+00      0.651D-02       -75.91033805     81.744492   -0.01667   -0.45280    0.02129    1    151.8    307.4     diag
    3      0.490D-02      0.148D-01       -76.38773074     93.605705    0.02707    0.73704   -0.03470    2    150.8    458.2     diag
    4      0.343D-02      0.390D-03       -76.38815506     93.200464    0.02597    0.70699   -0.03329    3    135.1    593.3     diag
    5      0.161D-03      0.855D-04       -76.38816864     93.251459    0.02592    0.70550   -0.03322    4    118.3    711.6     diag
    6      0.231D-04      0.191D-04       -76.38816941     93.261990    0.02600    0.70784   -0.03333    5    101.2    812.8     diag
    7      0.458D-05      0.894D-06       -76.38816941     93.261745    0.02600    0.70770   -0.03332    6     72.4    885.2     diag
    8      0.215D-06      0.592D-07       -76.38816941     93.261832    0.02600    0.70772   -0.03332    0     40.3    925.5     orth

 Final occupancy:   5

 !RKS STATE  1.1 Energy               -76.388169412279
 Nuclear energy                         9.15605698
 One-electron energy                 -122.93681331
 Two-electron energy                   46.63091625
 Density functional                    -9.23832933     PBEX=-8.91399723 PBEC=-0.32433210
 Virial quotient                       -1.00338011
 !RKS STATE  1.1 Dipole moment          0.02599941     0.70771916    -0.03332339
 Dipole moment /Debye                   0.06607958     1.79872487    -0.08469405

 Orbital energies:

         1.1          2.1          3.1          4.1          5.1          6.1          7.1
    -18.755008    -0.930818    -0.483376    -0.343716    -0.266300    -0.034686     0.014334


 HOMO      5.1    -0.266300 =      -7.2464eV
 LUMO      6.1    -0.034686 =      -0.9439eV
 LUMO-HOMO         0.231614 =       6.3026eV


 **********************************************************************************************************************************
 DATASETS  * FILE   NREC   LENGTH (MB)   RECORD NAMES
              1      19       42.11       500      610      700      900      950      970     1000      129      960     1100   
                                          VAR    BASINP    GEOM    SYMINP    ZMAT    AOBASIS   BASIS     P2S    ABASIS      S 
                                         1400     1410     1200     1210     1080     1600     1650     1700     1800   
                                           T        V       H0       H01     AOSYM     SMH    MOLCAS    OPER     GRID   

              2       7       40.95       700     1000      520     1800     2101     2201     2301   
                                         GEOM     BASIS   MCVARS    GRID      RKS      RKS      RKS  

 PROGRAMS   *        TOTAL   RKS-SCF       INT   RKS-SCF       INT   RKS-SCF       INT
 CPU TIMES  *      3029.28    925.94      0.40    964.25      0.42   1137.37      0.69
 REAL TIME  *      3049.09 SEC
 DISK USED  *       103.00 MB (local),      412.01 MB (total)
 SF USED    *         3.96 MB
 GA USED    *         2.13 MB       (max)       2.12 MB       (current)
 **********************************************************************************************************************************
 SETTING EB_PBE         =       -76.38816941  AU                              
 SETTING E_AB_INT       =         0.00142120  AU                              

 *** results in hartree
 E_AB_INT         =         0.00142120 AU
 Molecular orbitals read from record     2301.2  Type=RKS/CANONICAL (state 1.1)
 Occupation numbers read from record     2301.2  Type=RKS/RHF (state 1.1)
 Orbital energies read from record       2301.2  Type=RKS/CANONICAL (state 1.1)
 Redundancy group numbers read from rec  2301.2  Type=RKS/RHF (state 1.1)

 RPBE/aug-cc-pV5Z energy=    -76.388169412279

         RKS-SCF         RKS-SCF         RKS-SCF
    -76.38816941    -76.38816938   -152.77491759
 **********************************************************************************************************************************
 Molpro calculation terminated
