
 Primary working directories    : /scratch/sirous/116644/molpro.hRyNoOZexR
 Secondary working directories  : /scratch/sirous/116644/molpro.hRyNoOZexR
 Wavefunction directory         : /scratch/sirous/116644/
 Main file repository           : /scratch/sirous/116644/molpro.hRyNoOZexR/

 id        : karlovklimes

 Nodes                      nprocs
 nc-06.cc.karlov.mff.cuni.cz    4

 Using customized tuning parameters: mindgm=1; mindgv=20; mindgc=4; mindgr=1; noblas=0; minvec=7
 default implementation of scratch files=sf  


 Variables initialized (934), CPU time= 0.01 sec
 ***,CH3C6H4CN+CF3CN+BF3
 memory,500,m
 gdirect
 gthresh,energy=1.d-8,twoint=1.d-19,oneint=1.d-19,zero=1.d-15,orbital=1.d-8,grid=1.d-8
 symmetry,nosym
 geomtyp=xyz
                                                                                 ! Geometry
 geometry={
 O1        0.000000000    0.127206000     0.000000000
 O2        0.000000000    2.227206000     0.000000000
 H1        0.029703868    2.781377461     -0.785012070
 H2        0.013651768    2.853273520     0.729441819
 H3        0.017607753    -0.459535840     -0.761351599
 H4        -0.013377840    -0.468366698     0.754550510
 }
 
 
 
 basis=aug-cc-pv5z
 
 
 
                                                                                 ! Dimer Calculation
 {rks,pbe,accu=1.d-8;orbital,2101.2}
 eab_PBE=energy
 
 
                                                                                 !monomer A
 dummy,2,3,4;                                                                    ! NOW MONOMER B IS DUMMY
 {rks,pbe,accu=1.d-8;orbital,2201.2}
 ea_PBE=energy
                                                                                 !monomer B
 dummy,1,5,6;                                                                    !NOW MONOMER A IS DUMMY
 {rks,pbe,accu=1.d-8;orbital,2301.2}
 eb_PBE=energy
 
 E_AB_int=eab_PBE-ea_PBE-eb_PBE
 
 
 text,results in hartree
 show,E_AB_int
 
 Commands  initialized (763), CPU time= 0.02 sec, 617 directives.
 Default parameters read. Elapsed time= 0.20 sec

 Checking input...
 Passed
1


                                         ***  PROGRAM SYSTEM MOLPRO  ***
                                       Copyright, TTI GmbH Stuttgart, 2015
                                    Version 2019.2 linked Jun  8 2019 11:26:33


 **********************************************************************************************************************************
 LABEL *   CH3C6H4CN+CF3CN+BF3                                                           
  64 bit mpp version                                                                     DATE: 19-Nov-19          TIME: 17:11:15  
 **********************************************************************************************************************************

 SHA1:             8135a10abc80eafa5b3ae28ffc55be4890dc4c84
 **********************************************************************************************************************************

 THRESHOLDS:

 ZERO    =  1.00D-15  ONEINT  =  1.00D-19  TWOINT  =  1.00D-19  PREFAC  =  1.00D-14  XXXXXX  =  1.00D-09  EORDER  =  1.00D-04
 ENERGY  =  1.00D-08  ETEST   =  0.00D+00  EDENS   =  0.00D+00  THRDEDEF=  1.00D-06  GRADIENT=  1.00D-02  STEP    =  1.00D-03
 ORBITAL =  1.00D-08  CIVEC   =  1.00D-05  COEFF   =  1.00D-04  PRINTCI =  5.00D-02  PUNCHCI =  9.90D+01  OPTGRAD =  3.00D-04
 OPTENERG=  1.00D-06  OPTSTEP =  3.00D-04  THRGRAD =  1.00D-10  COMPRESS=  1.00D-11  VARMIN  =  1.00D-07  VARMAX  =  1.00D-03
 THRDOUB =  0.00D+00  THRDIV  =  1.00D-05  THRRED  =  1.00D-07  THRPSP  =  1.00D+00  THRDC   =  1.00D-10  THRCS   =  1.00D-10
 THRNRM  =  1.00D-08  THREQ   =  0.00D+00  THRDE   =  1.00D+00  THRREF  =  1.00D-05  SPARFAC =  1.00D+00  THRDLP  =  1.00D-07
 THRDIA  =  1.00D-10  THRDLS  =  1.00D-07  THRGPS  =  0.00D+00  THRKEX  =  0.00D+00  THRDIS  =  2.00D-01  THRVAR  =  1.00D-10
 THRLOC  =  1.00D-06  THRGAP  =  1.00D-06  THRLOCT = -1.00D+00  THRGAPT = -1.00D+00  THRORB  =  1.00D-06  THRMLTP =  0.00D+00
 THRCPQCI=  1.00D-10  KEXTA   =  0.00D+00  THRCOARS=  0.00D+00  SYMTOL  =  1.00D-06  GRADTOL =  1.00D-06  THROVL  =  1.00D-08
 THRORTH =  1.00D-08  GRID    =  1.00D-08  GRIDMAX =  1.00D-03  DTMAX   =  0.00D+00  THROCCDE=  1.00D-01  THROCCDE=  1.00D-01
 THRPRINT=  2.50D-01


 Variable memory set to  500000000 words,  buffer space 

 SETTING GEOMTYP        =    XYZ
 ZSYMEL=NOSYM

 SETTING BASIS          =    AUG-CC-PV5Z


 Recomputing integrals since basis changed


 Using spherical harmonics

 Library entry O      S aug-cc-pV5Z          selected for orbital group  1
 Library entry O      P aug-cc-pV5Z          selected for orbital group  1
 Library entry O      D aug-cc-pV5Z          selected for orbital group  1
 Library entry O      F aug-cc-pV5Z          selected for orbital group  1
 Library entry O      G aug-cc-pV5Z          selected for orbital group  1
 Library entry O      H aug-cc-pV5Z          selected for orbital group  1
 Library entry H      S aug-cc-pV5Z          selected for orbital group  2
 Library entry H      P aug-cc-pV5Z          selected for orbital group  2
 Library entry H      D aug-cc-pV5Z          selected for orbital group  2
 Library entry H      F aug-cc-pV5Z          selected for orbital group  2
 Library entry H      G aug-cc-pV5Z          selected for orbital group  2


 PROGRAM * SEWARD (Integral evaluation for generally contracted gaussian basis sets)     Author: Roland Lindh, 1990

 Geometry written to block  1 of record 700


 Point group  C1  



 ATOMIC COORDINATES

 NR  ATOM    CHARGE       X              Y              Z

   1  O1      8.00    0.000000000    0.240384501    0.000000000
   2  O2      8.00    0.000000000    4.208809363    0.000000000
   3  H1      1.00    0.056132175    5.256041650   -1.483457817
   4  H2      1.00    0.025798103    5.391905511    1.378445262
   5  H3      1.00    0.033273831   -0.868396882   -1.438746007
   6  H4      1.00   -0.025280454   -0.885084785    1.425893811

 Bond lengths in Bohr (Angstrom)

 1-5  1.816726005  1-6  1.816726005  2-3  1.816726005  2-4  1.816726005
     ( 0.961370000)     ( 0.961370000)     ( 0.961370001)     ( 0.961370000)

 Bond angles

  3-2-4  104.10699999   5-1-6  104.10700004

 NUCLEAR CHARGE:                   20
 NUMBER OF PRIMITIVE AOS:         830
 NUMBER OF SYMMETRY AOS:          620
 NUMBER OF CONTRACTIONS:          574   (  574A   )
 NUMBER OF CORE ORBITALS:           2   (    2A   )
 NUMBER OF VALENCE ORBITALS:       12   (   12A   )


 NUCLEAR REPULSION ENERGY   41.11268008


 Eigenvalues of metric

         1 0.249E-05 0.104E-04 0.105E-04 0.108E-04 0.121E-04 0.261E-04 0.267E-04 0.358E-04


 OPERATOR DM      FOR CENTER  0  COORDINATES:    0.000000    0.000000    0.000000


 **********************************************************************************************************************************
 DATASETS  * FILE   NREC   LENGTH (MB)   RECORD NAMES
              1      18       42.11       500      610      700      900      950      970     1000      129      960     1100   
                                          VAR    BASINP    GEOM    SYMINP    ZMAT    AOBASIS   BASIS     P2S    ABASIS      S 
                                         1400     1410     1200     1210     1080     1600     1650     1700   
                                           T        V       H0       H01     AOSYM     SMH    MOLCAS    OPER   

 PROGRAMS   *        TOTAL       INT
 CPU TIMES  *         0.85      0.66
 REAL TIME  *         1.84 SEC
 DISK USED  *        42.66 MB (local),      170.64 MB (total)
 GA USED    *         0.00 MB       (max)       0.00 MB       (current)
 **********************************************************************************************************************************

 Density functional group PBE=PBEX+PBEC
 Functional: PBEX(Automatically generated (new) PBEX)                          Gradient terms: 1
 Functional: PBEC(Automatically generated (new) PBEC)                          Gradient terms: 1
 Use libxcgrid:  F
 Use grid at  1800.2

 Functional: PBEX                      Factor:  1.0000
 Functional: PBEC                      Factor:  1.0000

 Generated new metagrid on record  1800.2 with target accuracy 1.0D-08 and 64356 points in CPU time    0.2
 Computed new grid on record 1800.1 in CPU time    0.2
  465012 words reserved for DFT integration

 PROGRAM * RKS-SCF (Restricted closed shell Kohn-Sham)     Authors: W. Meyer, H.-J. Werner, P.J. Knowles, 1993

 NUMBER OF ELECTRONS:      10+   10-    SPACE SYMMETRY=1    SPIN SYMMETRY: Singlet 
 CONVERGENCE THRESHOLDS:    1.00E-04 (Density)    1.00E-08 (Energy)
 INTEGRAL THRESHOLDS:       1.00E-12 (Initial)    1.00E-12 (Final)
 MAX. NUMBER OF ITERATIONS:       60
 INTERPOLATION TYPE:            DIIS
 INTERPOLATION STEPS:              2 (START)      1 (STEP)
 LEVEL SHIFTS:                  0.00 (CLOSED)  0.00 (OPEN) 



 Use fine grid record 1800.2 for energy threshold  1.0D-08
 Orbital guess generated from atomic densities. Full valence occupancy:   14

 Molecular orbital dump at record        2101.2

 Initial occupancy:  10

 Direct Fock-matrix evaluation.        Authors: Roland Lindh & Martin Schuetz (1993/96)

 Integral Threshold:                  0.1D-11
 Threshold for writing integrals:     0.1D-06
 Prescreening on density matrix:        ON 
 Calculation will be performed fully direct        

 ITERATION   DDIFF            GRAD            ENERGY        2-EL.EN.            DIPOLE MOMENTS         DIIS   CPU(IT)  CPU(TOT)
    1      0.000D+00      0.000D+00      -152.54189966    244.675641    0.04433   -0.00207   -0.05799    0    388.7    397.8     start
    2      0.000D+00      0.695D-02      -150.97517497    197.929304   -0.01604    0.00412    0.09361    1    399.1    796.9     diag
    3      0.129D-01      0.194D-01      -152.73893242    234.120965    0.02803   -0.00149   -0.03398    2    399.1   1196.0     diag
    4      0.115D-01      0.570D-03      -152.74095548    232.771561    0.02787   -0.00163   -0.03106    3    366.1   1562.1     diag
    5      0.502D-03      0.232D-03      -152.74119661    233.037048    0.02747   -0.00109   -0.03034    4    345.1   1907.2     diag
    6      0.859D-04      0.475D-04      -152.74120557    233.103292    0.02770   -0.00181   -0.03125    5    318.0   2225.2     diag
    7      0.179D-04      0.457D-05      -152.74120554    233.105594    0.02772   -0.00083   -0.03098    6    280.8   2506.0     diag
    8      0.351D-05      0.537D-05      -152.74120565    233.105939    0.02771   -0.00143   -0.03102    7    253.2   2759.1     diag
    9      0.194D-05      0.418D-06      -152.74120565    233.106428    0.02771   -0.00142   -0.03110    8    230.7   2989.8     diag
   10      0.197D-06      0.103D-06      -152.74120565    233.106673    0.02771   -0.00142   -0.03104    0    193.9   3183.7     orth

 Final occupancy:  10

 !RKS STATE  1.1 Energy              -152.741205645950
 Nuclear energy                        41.11268008
 One-electron energy                 -291.90094861
 Two-electron energy                  116.55333632
 Density functional                   -18.50627343     PBEX=-17.85122874 PBEC= -0.65504469
 Virial quotient                       -1.00173233
 !RKS STATE  1.1 Dipole moment          0.02771002    -0.00141855    -0.03104356
 Dipole moment /Debye                   0.07042723    -0.00360536    -0.07889968

 Orbital energies:

         1.1          2.1          3.1          4.1          5.1          6.1          7.1          8.1          9.1         10.1
    -18.725923   -18.725879    -0.916506    -0.899856    -0.467682    -0.454775    -0.374380    -0.257319    -0.249920    -0.228618

        11.1         12.1
     -0.032703    -0.008895


 HOMO     10.1    -0.228618 =      -6.2210eV
 LUMO     11.1    -0.032703 =      -0.8899eV
 LUMO-HOMO         0.195915 =       5.3311eV


 **********************************************************************************************************************************
 DATASETS  * FILE   NREC   LENGTH (MB)   RECORD NAMES
              1      19       42.11       500      610      700      900      950      970     1000      129      960     1100   
                                          VAR    BASINP    GEOM    SYMINP    ZMAT    AOBASIS   BASIS     P2S    ABASIS      S 
                                         1400     1410     1200     1210     1080     1600     1650     1700     1800   
                                           T        V       H0       H01     AOSYM     SMH    MOLCAS    OPER     GRID   

              2       5        9.55       700     1000      520     1800     2101   
                                         GEOM     BASIS   MCVARS    GRID      RKS  

 PROGRAMS   *        TOTAL   RKS-SCF       INT
 CPU TIMES  *      3185.17   3184.32      0.66
 REAL TIME  *      3205.35 SEC
 DISK USED  *        74.24 MB (local),      296.95 MB (total)
 SF USED    *         3.96 MB
 GA USED    *         2.13 MB       (max)       2.12 MB       (current)
 **********************************************************************************************************************************
 SETTING EAB_PBE        =      -152.74120565  AU                              

 Dummy atoms: O2  H1  H2


 Recomputing one-electron integrals since nuclear charges changed


 PROGRAM * SEWARD (Integral evaluation for generally contracted gaussian basis sets)     Author: Roland Lindh, 1990

 Geometry written to block  1 of record 700


 Point group  C1  



 ATOMIC COORDINATES

 NR  ATOM    CHARGE       X              Y              Z

   1  O1      8.00    0.000000000    0.240384501    0.000000000
   2  O2      0.00    0.000000000    4.208809363    0.000000000
   3  H1      0.00    0.056132175    5.256041650   -1.483457817
   4  H2      0.00    0.025798103    5.391905511    1.378445262
   5  H3      1.00    0.033273831   -0.868396882   -1.438746007
   6  H4      1.00   -0.025280454   -0.885084785    1.425893811

 Bond lengths in Bohr (Angstrom)

 1-5  1.816726005  1-6  1.816726005  2-3  1.816726005  2-4  1.816726005
     ( 0.961370000)     ( 0.961370000)     ( 0.961370001)     ( 0.961370000)

 Bond angles

  3-2-4  104.10699999   5-1-6  104.10700004

 NUCLEAR CHARGE:                   10
 NUMBER OF PRIMITIVE AOS:         830
 NUMBER OF SYMMETRY AOS:          620
 NUMBER OF CONTRACTIONS:          574   (  574A   )
 NUMBER OF CORE ORBITALS:           1   (    1A   )
 NUMBER OF VALENCE ORBITALS:        6   (    6A   )

 MOLECULE CHANGED: INITIALIZING OCCUPATION AND DUMP RECORDS


 NUCLEAR REPULSION ENERGY    9.15605699


 Eigenvalues of metric

         1 0.249E-05 0.104E-04 0.105E-04 0.108E-04 0.121E-04 0.261E-04 0.267E-04 0.358E-04


 OPERATOR DM      FOR CENTER  0  COORDINATES:    0.000000    0.000000    0.000000


 **********************************************************************************************************************************
 DATASETS  * FILE   NREC   LENGTH (MB)   RECORD NAMES
              1      19       42.11       500      610      700      900      950      970     1000      129      960     1100   
                                          VAR    BASINP    GEOM    SYMINP    ZMAT    AOBASIS   BASIS     P2S    ABASIS      S 
                                         1400     1410     1200     1210     1080     1600     1650     1700     1800   
                                           T        V       H0       H01     AOSYM     SMH    MOLCAS    OPER     GRID   

              2       5        9.55       700     1000      520     1800     2101   
                                         GEOM     BASIS   MCVARS    GRID      RKS  

 PROGRAMS   *        TOTAL       INT   RKS-SCF       INT
 CPU TIMES  *      3185.58      0.40   3184.32      0.66
 REAL TIME  *      3205.81 SEC
 DISK USED  *        74.24 MB (local),      296.95 MB (total)
 SF USED    *         3.96 MB
 GA USED    *         2.13 MB       (max)       2.12 MB       (current)
 **********************************************************************************************************************************

 Density functional group PBE=PBEX+PBEC
 Functional: PBEX(Automatically generated (new) PBEX)                          Gradient terms: 1
 Functional: PBEC(Automatically generated (new) PBEC)                          Gradient terms: 1
 Use libxcgrid:  F
 Use grid at  1800.2

 Functional: PBEX                      Factor:  1.0000
 Functional: PBEC                      Factor:  1.0000

 Generated new metagrid on record  1800.2 with target accuracy 1.0D-08 and 64356 points in CPU time    0.2
 Computed new grid on record 1800.1 in CPU time    0.2
  465012 words reserved for DFT integration

 PROGRAM * RKS-SCF (Restricted closed shell Kohn-Sham)     Authors: W. Meyer, H.-J. Werner, P.J. Knowles, 1993

 NUMBER OF ELECTRONS:       5+    5-    SPACE SYMMETRY=1    SPIN SYMMETRY: Singlet 
 CONVERGENCE THRESHOLDS:    1.00E-04 (Density)    1.00E-08 (Energy)
 INTEGRAL THRESHOLDS:       1.00E-12 (Initial)    1.00E-12 (Final)
 MAX. NUMBER OF ITERATIONS:       60
 INTERPOLATION TYPE:            DIIS
 INTERPOLATION STEPS:              2 (START)      1 (STEP)
 LEVEL SHIFTS:                  0.00 (CLOSED)  0.00 (OPEN) 



 Use fine grid record 1800.2 for energy threshold  1.0D-08
 Orbital guess generated from atomic densities. Full valence occupancy:    7

 Molecular orbital dump at record        2201.2

 Initial occupancy:   5

 Direct Fock-matrix evaluation.        Authors: Roland Lindh & Martin Schuetz (1993/96)

 Integral Threshold:                  0.1D-11
 Threshold for writing integrals:     0.1D-06
 Prescreening on density matrix:        ON 
 Calculation will be performed fully direct        

 ITERATION   DDIFF            GRAD            ENERGY        2-EL.EN.            DIPOLE MOMENTS         DIIS   CPU(IT)  CPU(TOT)
    1      0.000D+00      0.000D+00       -76.30160191     98.228121    0.00394   -1.10078   -0.00633    0    356.4    364.5     start
    2      0.000D+00      0.651D-02       -75.91006815     81.740042   -0.00175    0.45837    0.00259    1    329.8    694.3     diag
    3      0.513D-02      0.148D-01       -76.38773459     93.606003    0.00264   -0.73836   -0.00425    2    328.3   1022.6     diag
    4      0.366D-02      0.390D-03       -76.38815982     93.200323    0.00253   -0.70816   -0.00407    3    304.7   1327.3     diag
    5      0.206D-03      0.856D-04       -76.38817344     93.251463    0.00253   -0.70669   -0.00407    4    277.5   1604.8     diag
    6      0.282D-04      0.191D-04       -76.38817421     93.261962    0.00254   -0.70904   -0.00408    5    249.0   1853.8     diag
    7      0.507D-05      0.901D-06       -76.38817421     93.261712    0.00254   -0.70890   -0.00408    6    210.6   2064.4     diag
    8      0.239D-06      0.591D-07       -76.38817421     93.261799    0.00254   -0.70891   -0.00408    0    149.6   2214.0     orth

 Final occupancy:   5

 !RKS STATE  1.1 Energy               -76.388174211721
 Nuclear energy                         9.15605699
 One-electron energy                 -122.93680623
 Two-electron energy                   46.63089951
 Density functional                    -9.23832448     PBEX=-8.91399290 PBEC=-0.32433158
 Virial quotient                       -1.00337820
 !RKS STATE  1.1 Dipole moment          0.00253606    -0.70891337    -0.00407805
 Dipole moment /Debye                   0.00644560    -1.80176004    -0.01036469

 Orbital energies:

         1.1          2.1          3.1          4.1          5.1          6.1          7.1
    -18.755019    -0.930818    -0.483376    -0.343716    -0.266300    -0.034728     0.014275


 HOMO      5.1    -0.266300 =      -7.2464eV
 LUMO      6.1    -0.034728 =      -0.9450eV
 LUMO-HOMO         0.231572 =       6.3014eV


 **********************************************************************************************************************************
 DATASETS  * FILE   NREC   LENGTH (MB)   RECORD NAMES
              1      19       42.11       500      610      700      900      950      970     1000      129      960     1100   
                                          VAR    BASINP    GEOM    SYMINP    ZMAT    AOBASIS   BASIS     P2S    ABASIS      S 
                                         1400     1410     1200     1210     1080     1600     1650     1700     1800   
                                           T        V       H0       H01     AOSYM     SMH    MOLCAS    OPER     GRID   

              2       6       25.25       700     1000      520     1800     2101     2201   
                                         GEOM     BASIS   MCVARS    GRID      RKS      RKS  

 PROGRAMS   *        TOTAL   RKS-SCF       INT   RKS-SCF       INT
 CPU TIMES  *      5400.25   2214.67      0.40   3184.32      0.66
 REAL TIME  *      5426.07 SEC
 DISK USED  *        87.30 MB (local),      349.20 MB (total)
 SF USED    *         3.96 MB
 GA USED    *         2.13 MB       (max)       2.12 MB       (current)
 **********************************************************************************************************************************
 SETTING EA_PBE         =       -76.38817421  AU                              

 Dummy atoms: O1  H3  H4


 Recomputing one-electron integrals since nuclear charges changed


 PROGRAM * SEWARD (Integral evaluation for generally contracted gaussian basis sets)     Author: Roland Lindh, 1990

 Geometry written to block  1 of record 700


 Point group  C1  



 ATOMIC COORDINATES

 NR  ATOM    CHARGE       X              Y              Z

   1  O1      0.00    0.000000000    0.240384501    0.000000000
   2  O2      8.00    0.000000000    4.208809363    0.000000000
   3  H1      1.00    0.056132175    5.256041650   -1.483457817
   4  H2      1.00    0.025798103    5.391905511    1.378445262
   5  H3      0.00    0.033273831   -0.868396882   -1.438746007
   6  H4      0.00   -0.025280454   -0.885084785    1.425893811

 Bond lengths in Bohr (Angstrom)

 1-5  1.816726005  1-6  1.816726005  2-3  1.816726005  2-4  1.816726005
     ( 0.961370000)     ( 0.961370000)     ( 0.961370001)     ( 0.961370000)

 Bond angles

  3-2-4  104.10699999   5-1-6  104.10700004

 NUCLEAR CHARGE:                   10
 NUMBER OF PRIMITIVE AOS:         830
 NUMBER OF SYMMETRY AOS:          620
 NUMBER OF CONTRACTIONS:          574   (  574A   )
 NUMBER OF CORE ORBITALS:           1   (    1A   )
 NUMBER OF VALENCE ORBITALS:        6   (    6A   )

 MOLECULE CHANGED: INITIALIZING OCCUPATION AND DUMP RECORDS


 NUCLEAR REPULSION ENERGY    9.15605698


 Eigenvalues of metric

         1 0.249E-05 0.104E-04 0.105E-04 0.108E-04 0.121E-04 0.261E-04 0.267E-04 0.358E-04


 OPERATOR DM      FOR CENTER  0  COORDINATES:    0.000000    0.000000    0.000000


 **********************************************************************************************************************************
 DATASETS  * FILE   NREC   LENGTH (MB)   RECORD NAMES
              1      19       42.11       500      610      700      900      950      970     1000      129      960     1100   
                                          VAR    BASINP    GEOM    SYMINP    ZMAT    AOBASIS   BASIS     P2S    ABASIS      S 
                                         1400     1410     1200     1210     1080     1600     1650     1700     1800   
                                           T        V       H0       H01     AOSYM     SMH    MOLCAS    OPER     GRID   

              2       6       25.25       700     1000      520     1800     2101     2201   
                                         GEOM     BASIS   MCVARS    GRID      RKS      RKS  

 PROGRAMS   *        TOTAL       INT   RKS-SCF       INT   RKS-SCF       INT
 CPU TIMES  *      5400.65      0.39   2214.67      0.40   3184.32      0.66
 REAL TIME  *      5426.52 SEC
 DISK USED  *        87.30 MB (local),      349.20 MB (total)
 SF USED    *         3.96 MB
 GA USED    *         2.13 MB       (max)       2.12 MB       (current)
 **********************************************************************************************************************************

 Density functional group PBE=PBEX+PBEC
 Functional: PBEX(Automatically generated (new) PBEX)                          Gradient terms: 1
 Functional: PBEC(Automatically generated (new) PBEC)                          Gradient terms: 1
 Use libxcgrid:  F
 Use grid at  1800.2

 Functional: PBEX                      Factor:  1.0000
 Functional: PBEC                      Factor:  1.0000

  465012 words reserved for DFT integration

 PROGRAM * RKS-SCF (Restricted closed shell Kohn-Sham)     Authors: W. Meyer, H.-J. Werner, P.J. Knowles, 1993

 NUMBER OF ELECTRONS:       5+    5-    SPACE SYMMETRY=1    SPIN SYMMETRY: Singlet 
 CONVERGENCE THRESHOLDS:    1.00E-04 (Density)    1.00E-08 (Energy)
 INTEGRAL THRESHOLDS:       1.00E-12 (Initial)    1.00E-12 (Final)
 MAX. NUMBER OF ITERATIONS:       60
 INTERPOLATION TYPE:            DIIS
 INTERPOLATION STEPS:              2 (START)      1 (STEP)
 LEVEL SHIFTS:                  0.00 (CLOSED)  0.00 (OPEN) 



 Use fine grid record 1800.2 for energy threshold  1.0D-08
 Orbital guess generated from atomic densities. Full valence occupancy:    7

 Molecular orbital dump at record        2301.2

 Initial occupancy:   5

 Direct Fock-matrix evaluation.        Authors: Roland Lindh & Martin Schuetz (1993/96)

 Integral Threshold:                  0.1D-11
 Threshold for writing integrals:     0.1D-06
 Prescreening on density matrix:        ON 
 Calculation will be performed fully direct        

 ITERATION   DDIFF            GRAD            ENERGY        2-EL.EN.            DIPOLE MOMENTS         DIIS   CPU(IT)  CPU(TOT)
    1      0.000D+00      0.000D+00       -76.30160211     98.228116    0.04036    1.09885   -0.05174    0    331.1    338.7     start
    2      0.000D+00      0.651D-02       -75.91006196     81.739926   -0.01701   -0.45763    0.02140    1    330.0    668.7     diag
    3      0.517D-02      0.148D-01       -76.38773468     93.606009    0.02708    0.73706   -0.03470    2    328.3    997.0     diag
    4      0.372D-02      0.390D-03       -76.38815993     93.200318    0.02597    0.70692   -0.03329    3    304.6   1301.5     diag
    5      0.207D-03      0.856D-04       -76.38817355     93.251460    0.02592    0.70545   -0.03322    4    277.5   1579.0     diag
    6      0.281D-04      0.191D-04       -76.38817432     93.261960    0.02600    0.70779   -0.03333    5    249.3   1828.3     diag
    7      0.508D-05      0.901D-06       -76.38817432     93.261710    0.02600    0.70765   -0.03332    6    210.9   2039.1     diag
    8      0.240D-06      0.591D-07       -76.38817432     93.261796    0.02600    0.70767   -0.03332    0    149.7   2188.9     orth

 Final occupancy:   5

 !RKS STATE  1.1 Energy               -76.388174323238
 Nuclear energy                         9.15605698
 One-electron energy                 -122.93680514
 Two-electron energy                   46.63089821
 Density functional                    -9.23832438     PBEX=-8.91399282 PBEC=-0.32433156
 Virial quotient                       -1.00337820
 !RKS STATE  1.1 Dipole moment          0.02599733     0.70766843    -0.03332073
 Dipole moment /Debye                   0.06607429     1.79859594    -0.08468730

 Orbital energies:

         1.1          2.1          3.1          4.1          5.1          6.1          7.1
    -18.755019    -0.930818    -0.483376    -0.343716    -0.266300    -0.034729     0.014271


 HOMO      5.1    -0.266300 =      -7.2464eV
 LUMO      6.1    -0.034729 =      -0.9450eV
 LUMO-HOMO         0.231571 =       6.3014eV


 **********************************************************************************************************************************
 DATASETS  * FILE   NREC   LENGTH (MB)   RECORD NAMES
              1      19       42.11       500      610      700      900      950      970     1000      129      960     1100   
                                          VAR    BASINP    GEOM    SYMINP    ZMAT    AOBASIS   BASIS     P2S    ABASIS      S 
                                         1400     1410     1200     1210     1080     1600     1650     1700     1800   
                                           T        V       H0       H01     AOSYM     SMH    MOLCAS    OPER     GRID   

              2       7       40.95       700     1000      520     1800     2101     2201     2301   
                                         GEOM     BASIS   MCVARS    GRID      RKS      RKS      RKS  

 PROGRAMS   *        TOTAL   RKS-SCF       INT   RKS-SCF       INT   RKS-SCF       INT
 CPU TIMES  *      7589.98   2189.33      0.39   2214.67      0.40   3184.32      0.66
 REAL TIME  *      7620.20 SEC
 DISK USED  *       103.00 MB (local),      412.01 MB (total)
 SF USED    *         3.96 MB
 GA USED    *         2.13 MB       (max)       2.12 MB       (current)
 **********************************************************************************************************************************
 SETTING EB_PBE         =       -76.38817432  AU                              
 SETTING E_AB_INT       =         0.03514289  AU                              

 *** results in hartree
 E_AB_INT         =         0.03514289 AU
 Molecular orbitals read from record     2301.2  Type=RKS/CANONICAL (state 1.1)
 Occupation numbers read from record     2301.2  Type=RKS/RHF (state 1.1)
 Orbital energies read from record       2301.2  Type=RKS/CANONICAL (state 1.1)
 Redundancy group numbers read from rec  2301.2  Type=RKS/RHF (state 1.1)

 RPBE/aug-cc-pV5Z energy=    -76.388174323238

         RKS-SCF         RKS-SCF         RKS-SCF
    -76.38817432    -76.38817421   -152.74120565
 **********************************************************************************************************************************
 Molpro calculation terminated
