 vasp.5.4.1 24Jun15 (build Jan 02 2020 16:21:29) gamma-only                     
  
 executed on           IFC15_impi date 2020.04.10  09:50:31
 running on    8 total cores
 distrk:  each k-point on    8 cores,    1 groups
 distr:  one band on NCORES_PER_BAND=   8 cores,    1 groups


--------------------------------------------------------------------------------------------------------


 INCAR:
 POTCAR:    PAW_PBE C_s 06Sep2000                 
 POTCAR:    PAW_PBE O_s 07Sep2000                 
 POTCAR:    PAW_PBE H_s 15May2010                 

 ----------------------------------------------------------------------------- 
|                                                                             |
|           W    W    AA    RRRRR   N    N  II  N    N   GGGG   !!!           |
|           W    W   A  A   R    R  NN   N  II  NN   N  G    G  !!!           |
|           W    W  A    A  R    R  N N  N  II  N N  N  G       !!!           |
|           W WW W  AAAAAA  RRRRR   N  N N  II  N  N N  G  GGG   !            |
|           WW  WW  A    A  R   R   N   NN  II  N   NN  G    G                |
|           W    W  A    A  R    R  N    N  II  N    N   GGGG   !!!           |
|                                                                             |
|      For optimal performance we recommend to set                            |
|        NCORE= 4 - approx SQRT( number of cores)                             |
|      NCORE specifies how many cores store one orbital (NPAR=cpu/NCORE).     |
|      This setting can  greatly improve the performance of VASP for DFT.     |
|      The default, NPAR=number of cores might be grossly inefficient         |
|      on modern multi-core architectures or massively parallel machines.     |
|      Do your own testing !!!!                                               |
|      Unfortunately you need to use the default for GW and RPA calculations. |
|      (for HF NCORE is supported but not extensively tested yet)             |
|                                                                             |
 ----------------------------------------------------------------------------- 

 POTCAR:    PAW_PBE C_s 06Sep2000                 
   VRHFIN =C: s2p2                                                              
   LEXCH  = PE                                                                  
   EATOM  =   147.1560 eV,   10.8157 Ry                                         
                                                                                
   TITEL  = PAW_PBE C_s 06Sep2000                                               
   LULTRA =        F    use ultrasoft PP ?                                      
   IUNSCR =        0    unscreen: 0-lin 1-nonlin 2-no                           
   RPACOR =    0.000    partial core radius                                     
   POMASS =   12.011; ZVAL   =    4.000    mass and valenz                      
   RCORE  =    1.850    outmost cutoff radius                                   
   RWIGS  =    1.890; RWIGS  =    1.000    wigner-seitz radius (au A)           
   ENMAX  =  273.911; ENMIN  =  205.433 eV                                      
   RCLOC  =    0.804    cutoff for local pot                                    
   LCOR   =        T    correct aug charges                                     
   LPAW   =        T    paw PP                                                  
   EAUG   =  439.243                                                            
   DEXC   =    0.000                                                            
   RMAX   =    1.897    core radius for proj-oper                               
   RAUG   =    1.300    factor for augmentation sphere                          
   RDEP   =    1.940    radius for radial grids                                 
   RDEPT  =    1.573    core radius for aug-charge                              
                                                                                
   Atomic configuration                                                         
    4 entries                                                                   
     n  l   j            E        occ.                                          
     1  0  0.50      -273.3789   2.0000                                         
     2  0  0.50       -13.7508   2.0000                                         
     2  1  0.50        -5.2854   2.0000                                         
     3  2  1.50        -1.3606   0.0000                                         
   Description                                                                  
     l       E           TYP  RCUT    TYP  RCUT                                 
     0    -13.7508457     23  1.500                                             
     0    -11.0934578     23  1.500                                             
     1     -5.2854381     23  1.850                                             
     1     -1.3099858     23  1.850                                             
  local pseudopotential read in
  atomic valenz-charges read in
  non local Contribution for L=           0  read in
    real space projection operators read in
  non local Contribution for L=           0  read in
    real space projection operators read in
  non local Contribution for L=           1  read in
    real space projection operators read in
  non local Contribution for L=           1  read in
    real space projection operators read in
    PAW grid and wavefunctions read in
 
   number of l-projection  operators is LMAX  =           4
   number of lm-projection operators is LMMAX =           8
 
 POTCAR:    PAW_PBE O_s 07Sep2000                 
   VRHFIN =O: s2p4                                                              
   LEXCH  = PE                                                                  
   EATOM  =   432.3788 eV,   31.7789 Ry                                         
                                                                                
   TITEL  = PAW_PBE O_s 07Sep2000                                               
   LULTRA =        F    use ultrasoft PP ?                                      
   IUNSCR =        0    unscreen: 0-lin 1-nonlin 2-no                           
   RPACOR =    0.000    partial core radius                                     
   POMASS =   16.000; ZVAL   =    6.000    mass and valenz                      
   RCORE  =    1.850    outmost cutoff radius                                   
   RWIGS  =    1.700; RWIGS  =    0.900    wigner-seitz radius (au A)           
   ENMAX  =  282.853; ENMIN  =  212.140 eV                                      
   RCLOC  =    0.804    cutoff for local pot                                    
   LCOR   =        T    correct aug charges                                     
   LPAW   =        T    paw PP                                                  
   EAUG   =  412.352                                                            
   RMAX   =    1.897    core radius for proj-oper                               
   RAUG   =    1.300    factor for augmentation sphere                          
   RDEP   =    1.878    radius for radial grids                                 
   RDEPT  =    1.572    core radius for aug-charge                              
                                                                                
   Atomic configuration                                                         
    4 entries                                                                   
     n  l   j            E        occ.                                          
     1  0  0.50      -514.6923   2.0000                                         
     2  0  0.50       -23.9615   2.0000                                         
     2  1  0.50        -9.0305   4.0000                                         
     3  2  1.50        -1.3606   0.0000                                         
   Description                                                                  
     l       E           TYP  RCUT    TYP  RCUT                                 
     0    -23.9615315     23  1.500                                             
     0    -25.3221141     23  1.500                                             
     1     -9.0304908     23  1.850                                             
     1     -7.3935399     23  1.850                                             
  local pseudopotential read in
  atomic valenz-charges read in
  non local Contribution for L=           0  read in
    real space projection operators read in
  non local Contribution for L=           0  read in
    real space projection operators read in
  non local Contribution for L=           1  read in
    real space projection operators read in
  non local Contribution for L=           1  read in
    real space projection operators read in
    PAW grid and wavefunctions read in
 
   number of l-projection  operators is LMAX  =           4
   number of lm-projection operators is LMMAX =           8
 
 POTCAR:    PAW_PBE H_s 15May2010                 
   VRHFIN =H: ultrasoft test                                                    
   LEXCH  = PE                                                                  
   EATOM  =    12.4884 eV,    0.9179 Ry                                         
                                                                                
   TITEL  = PAW_PBE H_s 15May2010                                               
   LULTRA =        F    use ultrasoft PP ?                                      
   IUNSCR =        0    unscreen: 0-lin 1-nonlin 2-no                           
   RPACOR =    0.000    partial core radius                                     
   POMASS =    1.000; ZVAL   =    1.000    mass and valenz                      
   RCORE  =    1.300    outmost cutoff radius                                   
   RWIGS  =    0.700; RWIGS  =    0.370    wigner-seitz radius (au A)           
   ENMAX  =  200.000; ENMIN  =  150.000 eV                                      
   RCLOC  =    0.701    cutoff for local pot                                    
   LCOR   =        T    correct aug charges                                     
   LPAW   =        T    paw PP                                                  
   EAUG   =  300.000                                                            
   RMAX   =    1.330    core radius for proj-oper                               
   RAUG   =    1.200    factor for augmentation sphere                          
   RDEP   =    1.337    radius for radial grids                                 
   RDEPT  =    1.114    core radius for aug-charge                              
                                                                                
   Atomic configuration                                                         
    2 entries                                                                   
     n  l   j            E        occ.                                          
     1  0  0.50        -6.4927   1.0000                                         
     2  1  0.50        -3.4015   0.0000                                         
   Description                                                                  
     l       E           TYP  RCUT    TYP  RCUT                                 
     0     -6.4927494     23  1.300                                             
     0      6.8029130     23  1.300                                             
     1     -4.0817478     23  1.300                                             
  local pseudopotential read in
  atomic valenz-charges read in
  non local Contribution for L=           0  read in
    real space projection operators read in
  non local Contribution for L=           0  read in
    real space projection operators read in
  non local Contribution for L=           1  read in
    real space projection operators read in
    PAW grid and wavefunctions read in
 
   number of l-projection  operators is LMAX  =           3
   number of lm-projection operators is LMMAX =           5
 
  PAW_PBE C_s 06Sep2000                 :
 energy of atom  1       EATOM= -147.1560
 kinetic energy error for atom=    0.0002 (will be added to EATOM!!)
  PAW_PBE O_s 07Sep2000                 :
 energy of atom  2       EATOM= -432.3788
 kinetic energy error for atom=    0.0004 (will be added to EATOM!!)
  PAW_PBE H_s 15May2010                 :
 energy of atom  3       EATOM=  -12.4884
 kinetic energy error for atom=    0.0000 (will be added to EATOM!!)
 
 
 POSCAR: C O H                                   
  positions in cartesian coordinates
  velocities in direct lattice
  No initial velocities read in
 exchange correlation table for  LEXCH =        8
   RHO(1)=    0.500       N(1)  =     2000
   RHO(2)=  100.500       N(2)  =     4000
 


--------------------------------------------------------------------------------------------------------


 ion  position               nearest neighbor table
   1  0.078  0.025  0.030-   4 1.09   5 1.09   6 1.09   2 1.42
   2  0.067  0.999  0.001-   3 0.96   1 1.42
   3  0.075  0.009  0.977-   2 0.96
   4  0.069  0.013  0.057-   1 1.09
   5  0.109  0.029  0.031-   1 1.09
   6  0.064  0.053  0.027-   1 1.09
 
  LATTYP: Found a simple cubic cell.
 ALAT       =    35.0000000000
  
  Lattice vectors:
  
 A1 = (  35.0000000000,   0.0000000000,   0.0000000000)
 A2 = (   0.0000000000,  35.0000000000,   0.0000000000)
 A3 = (   0.0000000000,   0.0000000000,  35.0000000000)


Analysis of symmetry for initial positions (statically):
=====================================================================
 Subroutine PRICEL returns:
 Original cell was already a primitive cell.
 

 Routine SETGRP: Setting up the symmetry group for a 
 simple cubic supercell.


 Subroutine GETGRP returns: Found  1 space group operations
 (whereof  1 operations were pure point group operations)
 out of a pool of 48 trial point group operations.


The static configuration has the point symmetry C_1 .


Analysis of symmetry for dynamics (positions and initial velocities):
=====================================================================
 Subroutine PRICEL returns:
 Original cell was already a primitive cell.
 

 Routine SETGRP: Setting up the symmetry group for a 
 simple cubic supercell.


 Subroutine GETGRP returns: Found  1 space group operations
 (whereof  1 operations were pure point group operations)
 out of a pool of 48 trial point group operations.


The dynamic configuration has the point symmetry C_1 .
 
 
 KPOINTS: automatic mesh                          

Automatic generation of k-mesh.
Space group operators:
 irot       det(A)        alpha          n_x          n_y          n_z        tau_x        tau_y        tau_z
    1     1.000000     0.000000     1.000000     0.000000     0.000000     0.000000     0.000000     0.000000
 
 Subroutine IBZKPT returns following result:
 ===========================================
 
 Found      1 irreducible k-points:
 
 Following reciprocal coordinates:
            Coordinates               Weight
  0.000000  0.000000  0.000000      1.000000
 
 Following cartesian coordinates:
            Coordinates               Weight
  0.000000  0.000000  0.000000      1.000000
 


--------------------------------------------------------------------------------------------------------




 Dimension of arrays:
   k-points           NKPTS =      1   k-points in BZ     NKDIM =      1   number of bands    NBANDS=     11
   number of dos      NEDOS =    301   number of ions     NIONS =      6
   non local maximal  LDIM  =      4   non local SUM 2l+1 LMDIM =      8
   total plane-waves  NPLWV = ******
   max r-space proj   IRMAX =      1   max aug-charges    IRDMAX=  29269
   dimension x,y,z NGX =   378 NGY =  378 NGZ =  378
   dimension x,y,z NGXF=   756 NGYF=  756 NGZF=  756
   support grid    NGXF=   756 NGYF=  756 NGZF=  756
   ions per type =               1   1   4
 NGX,Y,Z   is equivalent  to a cutoff of  17.95, 17.95, 17.95 a.u.
 NGXF,Y,Z  is equivalent  to a cutoff of  35.91, 35.91, 35.91 a.u.


 I would recommend the setting:
   dimension x,y,z NGX =   361 NGY =  361 NGZ =  361
 SYSTEM =  C                                       
 POSCAR =  C O H                                   

 Startparameter for this run:
   NWRITE =      2    write-flag & timer
   PREC   = acc       normal or accurate (medium, high low for compatibility)
   ISTART =      0    job   : 0-new  1-cont  2-samecut
   ICHARG =      2    charge: 1-file 2-atom 10-const
   ISPIN  =      1    spin polarized calculation?
   LNONCOLLINEAR =      F non collinear calculations
   LSORBIT =      F    spin-orbit coupling
   INIWAV =      1    electr: 0-lowe 1-rand  2-diag
   LASPH  =      T    aspherical Exc in radial PAW
   METAGGA=      F    non-selfconsistent MetaGGA calc.

 Electronic Relaxation 1
   ENCUT  = 1000.0 eV  73.50 Ry    8.57 a.u.  90.25 90.25 90.25*2*pi/ulx,y,z
   ENINI  = 1000.0     initial cutoff
   ENAUG  =  439.2 eV  augmentation charge cutoff
   NELM   =     60;   NELMIN=  2; NELMDL= -5     # of ELM steps 
   EDIFF  = 0.1E-06   stopping-criterion for ELM
   LREAL  =      F    real-space projection
   NLSPLINE    = F    spline interpolate recip. space projectors
   LCOMPAT=      F    compatible to vasp.4.4
   GGA_COMPAT  = T    GGA compatible to vasp.4.4-vasp.4.6
   LMAXPAW     = -100 max onsite density
   LMAXMIX     =    2 max onsite mixed and CHGCAR
   VOSKOWN=      0    Vosko Wilk Nusair interpolation
   ROPT   =    0.00000   0.00000   0.00000
 Ionic relaxation
   EDIFFG = 0.1E-05   stopping-criterion for IOM
   NSW    =      0    number of steps for IOM
   NBLOCK =      1;   KBLOCK =      1    inner block; outer block 
   IBRION =     -1    ionic relax: 0-MD 1-quasi-New 2-CG
   NFREE  =      0    steps in history (QN), initial steepest desc. (CG)
   ISIF   =      2    stress and relaxation
   IWAVPR =     10    prediction:  0-non 1-charg 2-wave 3-comb
   ISYM   =      2    0-nonsym 1-usesym 2-fastsym
   LCORR  =      T    Harris-Foulkes like correction to forces

   POTIM  = 0.5000    time-step for ionic-motion
   TEIN   =    0.0    initial temperature
   TEBEG  =    0.0;   TEEND  =   0.0 temperature during run
   SMASS  =  -3.00    Nose mass-parameter (am)
   estimated Nose-frequenzy (Omega)   =  0.10E-29 period in steps =****** mass=  -0.280E-25a.u.
   SCALEE = 1.0000    scale energy and forces
   NPACO  =    256;   APACO  = 16.0  distance and # of slots for P.C.
   PSTRESS=    0.0 pullay stress

  Mass of Ions in am
   POMASS =  12.01 16.00  1.00
  Ionic Valenz
   ZVAL   =   4.00  6.00  1.00
  Atomic Wigner-Seitz radii
   RWIGS  =  -1.00 -1.00 -1.00
  virtual crystal weights 
   VCA    =   1.00  1.00  1.00
   NELECT =      14.0000    total number of electrons
   NUPDOWN=      -1.0000    fix difference up-down

 DOS related values:
   EMIN   =  10.00;   EMAX   =-10.00  energy-range for DOS
   EFERMI =   0.00
   ISMEAR =     0;   SIGMA  =   0.01  broadening in eV -4-tet -1-fermi 0-gaus

 Electronic relaxation 2 (details)
   IALGO  =     38    algorithm
   LDIAG  =      T    sub-space diagonalisation (order eigenvalues)
   LSUBROT=      F    optimize rotation matrix (better conditioning)
   TURBO    =      0    0=normal 1=particle mesh
   IRESTART =      0    0=no restart 2=restart with 2 vectors
   NREBOOT  =      0    no. of reboots
   NMIN     =      0    reboot dimension
   EREF     =   0.00    reference energy to select bands
   IMIX   =      4    mixing-type and parameters
     AMIX     =   0.40;   BMIX     =  1.00
     AMIX_MAG =   1.60;   BMIX_MAG =  1.00
     AMIN     =   0.10
     WC   =   100.;   INIMIX=   1;  MIXPRE=   1;  MAXMIX= -45

 Intra band minimization:
   WEIMIN = 0.0000     energy-eigenvalue tresh-hold
   EBREAK =  0.23E-08  absolut break condition
   DEPER  =   0.30     relativ break condition  

   TIME   =   0.40     timestep for ELM

  volume/ion in A,a.u.               =    7145.83     48222.46
  Fermi-wavevector in a.u.,A,eV,Ry     =   0.112733  0.213034  0.172911  0.012709
  Thomas-Fermi vector in A             =   0.715943
 
 Write flags
   LWAVE  =      T    write WAVECAR
   LCHARG =      T    write CHGCAR
   LVTOT  =      F    write LOCPOT, total local potential
   LVHAR  =      F    write LOCPOT, Hartree potential only
   LELF   =      F    write electronic localiz. function (ELF)
   LORBIT =      0    0 simple, 1 ext, 2 COOP (PROOUT)


 Dipole corrections
   LMONO  =      F    monopole corrections only (constant potential shift)
   LDIPOL =      F    correct potential (dipole corrections)
   IDIPOL =      0    1-x, 2-y, 3-z, 4-all directions 
   EPSILON=  1.0000000 bulk dielectric constant

 Exchange correlation treatment:
   GGA     =    --    GGA type
   LEXCH   =     8    internal setting for exchange type
   VOSKOWN=      0    Vosko Wilk Nusair interpolation
   LHFCALC =     F    Hartree Fock is set to
   LHFONE  =     F    Hartree Fock one center treatment
   AEXX    =    0.0000 exact exchange contribution

 Linear response parameters
   LEPSILON=     F    determine dielectric tensor
   LRPA    =     F    only Hartree local field effects (RPA)
   LNABLA  =     F    use nabla operator in PAW spheres
   LVEL    =     F    velocity operator in full k-point grid
   LINTERFAST=   F  fast interpolation
   KINTER  =     0    interpolate to denser k-point grid
   CSHIFT  =0.1000    complex shift for real part using Kramers Kronig
   OMEGAMAX=  -1.0    maximum frequency
   DEG_THRESHOLD= 0.2000000E-02 threshold for treating states as degnerate
   RTIME   =    0.100 relaxation time in fs

 Orbital magnetization related:
   ORBITALMAG=     F  switch on orbital magnetization
   LCHIMAG   =     F  perturbation theory with respect to B field
   DQ        =  0.001000  dq finite difference perturbation B field



--------------------------------------------------------------------------------------------------------


 Static calculation
 charge density and potential will be updated during run
 non-spin polarized calculation
 Variant of blocked Davidson
 Davidson routine will perform the subspace rotation
 perform sub-space diagonalisation
    after iterative eigenvector-optimisation
 modified Broyden-mixing scheme, WC =      100.0
 initial mixing is a Kerker type mixing with AMIX =  0.4000 and BMIX =      1.0000
 Hartree-type preconditioning will be used
 using additional bands            4
 reciprocal scheme for non local part
 calculate Harris-corrections to forces 
   (improved forces if not selfconsistent)
 use gradient corrections 
 use of overlap-Matrix (Vanderbilt PP)
 Gauss-broadening in eV      SIGMA  =   0.01


--------------------------------------------------------------------------------------------------------


  energy-cutoff  :     1000.00
  volume of cell :    42875.00
      direct lattice vectors                 reciprocal lattice vectors
    35.000000000  0.000000000  0.000000000     0.028571429  0.000000000  0.000000000
     0.000000000 35.000000000  0.000000000     0.000000000  0.028571429  0.000000000
     0.000000000  0.000000000 35.000000000     0.000000000  0.000000000  0.028571429

  length of vectors
    35.000000000 35.000000000 35.000000000     0.028571429  0.028571429  0.028571429


 
 k-points in units of 2pi/SCALE and weight: automatic mesh                          
   0.00000000  0.00000000  0.00000000       1.000
 
 k-points in reciprocal lattice and weights: automatic mesh                          
   0.00000000  0.00000000  0.00000000       1.000
 
 position of ions in fractional coordinates (direct lattice) 
   0.07808409  0.02485925  0.03000257
   0.06705798  0.99881399  0.00087583
   0.07511587  0.00938395  0.97687971
   0.06885029  0.01258404  0.05694733
   0.10897138  0.02883307  0.03111800
   0.06441339  0.05267634  0.02671182
 
 position of ions in cartesian coordinates  (Angst):
   2.73294319  0.87007390  1.05009009
   2.34702934 34.95848964  0.03065393
   2.62905546  0.32843841 34.19078985
   2.40976014  0.44044123  1.99315664
   3.81399843  1.00915737  1.08913006
   2.25446863  1.84367175  0.93491356
 


--------------------------------------------------------------------------------------------------------


 use parallel FFT for wavefunctions z direction half grid
 k-point  1 :   0.0000 0.0000 0.0000  plane waves: 1539209

 maximum and minimum number of plane-waves per node :    192406   192397

 maximum number of plane-waves:   1539209
 maximum index in each direction: 
   IXMAX=   90   IYMAX=   90   IZMAX=   90
   IXMIN=  -90   IYMIN=  -90   IZMIN=    0

 NGX is ok and might be reduce to 362
 NGY is ok and might be reduce to 362
 NGZ is ok and might be reduce to 362

 parallel 3D FFT for wavefunctions:
    minimum data exchange during FFTs selected (reduces bandwidth)
 parallel 3D FFT for charge:
    minimum data exchange during FFTs selected (reduces bandwidth)


 total amount of memory used by VASP on root node  5840403. kBytes
========================================================================

   base      :      30000. kBytes
   nonl-proj :      55412. kBytes
   fftplans  :    1964666. kBytes
   grid      :    3756461. kBytes
   one-center:          1. kBytes
   wavefun   :      33863. kBytes
 
     INWAV:  cpu time    0.0000: real time    0.0000
 Broyden mixing: mesh for mixing (old mesh)
   NGX =181   NGY =181   NGZ =181
  (NGX  =756   NGY  =756   NGZ  =756)
  gives a total of ****** points

 initial charge density was supplied:
 charge density of overlapping atoms calculated
 number of electron      14.0000000 magnetization 
 keeping initial charge density in first step


--------------------------------------------------------------------------------------------------------


 Maximum index for augmentation-charges         3483 (set IRDMAX)


--------------------------------------------------------------------------------------------------------


 First call to EWALD:  gamma=   0.051
 Maximum number of real-space cells 3x 3x 3
 Maximum number of reciprocal cells 3x 3x 3

 FEWALD executed in parallel
    FEWALD:  cpu time    0.0012: real time    0.0012


----------------------------------------- Iteration    1(   1)  ---------------------------------------


    POTLOK:  cpu time   26.0599: real time   26.1235
    SETDIJ:  cpu time    0.0476: real time    0.0477
     EDDAV:  cpu time   11.8967: real time   11.9261
       DOS:  cpu time    0.0001: real time    0.0001
    --------------------------------------------
      LOOP:  cpu time   38.0057: real time   38.1001

 eigenvalue-minimisations  :    38
 total energy-change (2. order) : 0.8119279E+02  (-0.2519785E+03)
 number of electron      14.0000000 magnetization 
 augmentation part       14.0000000 magnetization 

 Free energy of the ion-electron system (eV)
  ---------------------------------------------------
  alpha Z        PSCENC =         0.01306424
  Ewald energy   TEWEN  =       574.48221640
  -Hartree energ DENC   =     -1037.47195012
  -exchange      EXHF   =         0.00000000
  -V(xc)+E(xc)   XCENC  =        50.52387704
  PAW double counting   =       465.01322463     -470.02423200
  entropy T*S    EENTRO =        -0.00000000
  eigenvalues    EBANDS =      -130.83106533
  atomic energy  EATOM  =       629.48766000
  Solvation  Ediel_sol  =         0.00000000
  ---------------------------------------------------
  free energy    TOTEN  =        81.19279486 eV

  energy without entropy =       81.19279486  energy(sigma->0) =       81.19279486


--------------------------------------------------------------------------------------------------------




----------------------------------------- Iteration    1(   2)  ---------------------------------------


     EDDAV:  cpu time   13.3331: real time   13.3658
       DOS:  cpu time    0.0000: real time    0.0000
    --------------------------------------------
      LOOP:  cpu time   13.3345: real time   13.3695

 eigenvalue-minimisations  :    44
 total energy-change (2. order) :-0.8787212E+02  (-0.8666012E+02)
 number of electron      14.0000000 magnetization 
 augmentation part       14.0000000 magnetization 

 Free energy of the ion-electron system (eV)
  ---------------------------------------------------
  alpha Z        PSCENC =         0.01306424
  Ewald energy   TEWEN  =       574.48221640
  -Hartree energ DENC   =     -1037.47195012
  -exchange      EXHF   =         0.00000000
  -V(xc)+E(xc)   XCENC  =        50.52387704
  PAW double counting   =       465.01322463     -470.02423200
  entropy T*S    EENTRO =        -0.00000000
  eigenvalues    EBANDS =      -218.70318753
  atomic energy  EATOM  =       629.48766000
  Solvation  Ediel_sol  =         0.00000000
  ---------------------------------------------------
  free energy    TOTEN  =        -6.67932734 eV

  energy without entropy =       -6.67932734  energy(sigma->0) =       -6.67932734


--------------------------------------------------------------------------------------------------------




----------------------------------------- Iteration    1(   3)  ---------------------------------------


     EDDAV:  cpu time    9.4935: real time    9.5168
       DOS:  cpu time    0.0000: real time    0.0000
    --------------------------------------------
      LOOP:  cpu time    9.4951: real time    9.5205

 eigenvalue-minimisations  :    28
 total energy-change (2. order) :-0.2491820E+02  (-0.2479388E+02)
 number of electron      14.0000000 magnetization 
 augmentation part       14.0000000 magnetization 

 Free energy of the ion-electron system (eV)
  ---------------------------------------------------
  alpha Z        PSCENC =         0.01306424
  Ewald energy   TEWEN  =       574.48221640
  -Hartree energ DENC   =     -1037.47195012
  -exchange      EXHF   =         0.00000000
  -V(xc)+E(xc)   XCENC  =        50.52387704
  PAW double counting   =       465.01322463     -470.02423200
  entropy T*S    EENTRO =        -0.00000000
  eigenvalues    EBANDS =      -243.62138855
  atomic energy  EATOM  =       629.48766000
  Solvation  Ediel_sol  =         0.00000000
  ---------------------------------------------------
  free energy    TOTEN  =       -31.59752836 eV

  energy without entropy =      -31.59752836  energy(sigma->0) =      -31.59752836


--------------------------------------------------------------------------------------------------------




----------------------------------------- Iteration    1(   4)  ---------------------------------------


     EDDAV:  cpu time    8.7060: real time    8.7274
       DOS:  cpu time    0.0000: real time    0.0000
    --------------------------------------------
      LOOP:  cpu time    8.7077: real time    8.7313

 eigenvalue-minimisations  :    25
 total energy-change (2. order) :-0.1930534E+01  (-0.1927707E+01)
 number of electron      14.0000000 magnetization 
 augmentation part       14.0000000 magnetization 

 Free energy of the ion-electron system (eV)
  ---------------------------------------------------
  alpha Z        PSCENC =         0.01306424
  Ewald energy   TEWEN  =       574.48221640
  -Hartree energ DENC   =     -1037.47195012
  -exchange      EXHF   =         0.00000000
  -V(xc)+E(xc)   XCENC  =        50.52387704
  PAW double counting   =       465.01322463     -470.02423200
  entropy T*S    EENTRO =        -0.00000000
  eigenvalues    EBANDS =      -245.55192265
  atomic energy  EATOM  =       629.48766000
  Solvation  Ediel_sol  =         0.00000000
  ---------------------------------------------------
  free energy    TOTEN  =       -33.52806246 eV

  energy without entropy =      -33.52806246  energy(sigma->0) =      -33.52806246


--------------------------------------------------------------------------------------------------------




----------------------------------------- Iteration    1(   5)  ---------------------------------------


     EDDAV:  cpu time   13.2646: real time   13.2973
       DOS:  cpu time    0.0000: real time    0.0000
    CHARGE:  cpu time    2.7794: real time    2.7863
    MIXING:  cpu time    0.7033: real time    0.7051
    --------------------------------------------
      LOOP:  cpu time   16.7489: real time   16.7923

 eigenvalue-minimisations  :    44
 total energy-change (2. order) :-0.6481909E-01  (-0.6480925E-01)
 number of electron      14.0000000 magnetization 
 augmentation part        1.8912587 magnetization 

 Broyden mixing:
  rms(total) = 0.27581E+01    rms(broyden)= 0.27581E+01
  rms(prec ) = 0.27695E+01
  weight for this iteration     100.00

 Free energy of the ion-electron system (eV)
  ---------------------------------------------------
  alpha Z        PSCENC =         0.01306424
  Ewald energy   TEWEN  =       574.48221640
  -Hartree energ DENC   =     -1037.47195012
  -exchange      EXHF   =         0.00000000
  -V(xc)+E(xc)   XCENC  =        50.52387704
  PAW double counting   =       465.01322463     -470.02423200
  entropy T*S    EENTRO =        -0.00000000
  eigenvalues    EBANDS =      -245.61674174
  atomic energy  EATOM  =       629.48766000
  Solvation  Ediel_sol  =         0.00000000
  ---------------------------------------------------
  free energy    TOTEN  =       -33.59288155 eV

  energy without entropy =      -33.59288155  energy(sigma->0) =      -33.59288155


--------------------------------------------------------------------------------------------------------




----------------------------------------- Iteration    1(   6)  ---------------------------------------


    POTLOK:  cpu time   25.8347: real time   25.8979
    SETDIJ:  cpu time    0.3559: real time    0.3567
     EDDAV:  cpu time   12.3464: real time   12.3767
       DOS:  cpu time    0.0000: real time    0.0000
    CHARGE:  cpu time    2.7750: real time    2.7818
    MIXING:  cpu time    0.8734: real time    0.8755
    --------------------------------------------
      LOOP:  cpu time   42.1868: real time   42.2922

 eigenvalue-minimisations  :    36
 total energy-change (2. order) : 0.2893713E+01  (-0.7756795E+00)
 number of electron      14.0000000 magnetization 
 augmentation part        1.6782949 magnetization 

 Broyden mixing:
  rms(total) = 0.27627E+01    rms(broyden)= 0.27627E+01
  rms(prec ) = 0.27647E+01
  weight for this iteration     100.00

 eigenvalues of (default mixing * dielectric matrix)
  average eigenvalue GAMMA=   0.4488
  0.4488

 Free energy of the ion-electron system (eV)
  ---------------------------------------------------
  alpha Z        PSCENC =         0.01306424
  Ewald energy   TEWEN  =       574.48221640
  -Hartree energ DENC   =     -1070.65594040
  -exchange      EXHF   =         0.00000000
  -V(xc)+E(xc)   XCENC  =        52.30994762
  PAW double counting   =       982.20046518     -988.26431017
  entropy T*S    EENTRO =        -0.00000000
  eigenvalues    EBANDS =      -210.27227164
  atomic energy  EATOM  =       629.48766000
  Solvation  Ediel_sol  =         0.00000000
  ---------------------------------------------------
  free energy    TOTEN  =       -30.69916876 eV

  energy without entropy =      -30.69916876  energy(sigma->0) =      -30.69916876


--------------------------------------------------------------------------------------------------------




----------------------------------------- Iteration    1(   7)  ---------------------------------------


    POTLOK:  cpu time   30.8951: real time   30.9708
    SETDIJ:  cpu time    0.3545: real time    0.3554
     EDDAV:  cpu time   12.4533: real time   12.4840
       DOS:  cpu time    0.0000: real time    0.0000
    CHARGE:  cpu time    2.7674: real time    2.7742
    MIXING:  cpu time    0.9034: real time    0.9056
    --------------------------------------------
      LOOP:  cpu time   47.3753: real time   47.4935

 eigenvalue-minimisations  :    36
 total energy-change (2. order) : 0.2537953E+00  (-0.2688295E-01)
 number of electron      14.0000000 magnetization 
 augmentation part        1.6654765 magnetization 

 Broyden mixing:
  rms(total) = 0.21981E+01    rms(broyden)= 0.21981E+01
  rms(prec ) = 0.21996E+01
  weight for this iteration     100.00

 eigenvalues of (default mixing * dielectric matrix)
  average eigenvalue GAMMA=   1.5769
  1.3126  1.8412

 Free energy of the ion-electron system (eV)
  ---------------------------------------------------
  alpha Z        PSCENC =         0.01306424
  Ewald energy   TEWEN  =       574.48221640
  -Hartree energ DENC   =     -1076.27119879
  -exchange      EXHF   =         0.00000000
  -V(xc)+E(xc)   XCENC  =        52.64271793
  PAW double counting   =      1280.28340894    -1286.40441373
  entropy T*S    EENTRO =        -0.00000000
  eigenvalues    EBANDS =      -204.67882843
  atomic energy  EATOM  =       629.48766000
  Solvation  Ediel_sol  =         0.00000000
  ---------------------------------------------------
  free energy    TOTEN  =       -30.44537345 eV

  energy without entropy =      -30.44537345  energy(sigma->0) =      -30.44537345


--------------------------------------------------------------------------------------------------------




----------------------------------------- Iteration    1(   8)  ---------------------------------------


    POTLOK:  cpu time   30.8869: real time   30.9625
    SETDIJ:  cpu time    0.3539: real time    0.3547
     EDDAV:  cpu time   12.3351: real time   12.3654
       DOS:  cpu time    0.0000: real time    0.0000
    CHARGE:  cpu time    2.7668: real time    2.7736
    MIXING:  cpu time    0.9250: real time    0.9273
    --------------------------------------------
      LOOP:  cpu time   47.2693: real time   47.3873

 eigenvalue-minimisations  :    36
 total energy-change (2. order) : 0.4290104E+00  (-0.5772957E-01)
 number of electron      14.0000000 magnetization 
 augmentation part        1.6579500 magnetization 

 Broyden mixing:
  rms(total) = 0.22062E+00    rms(broyden)= 0.22062E+00
  rms(prec ) = 0.22201E+00
  weight for this iteration     100.00

 eigenvalues of (default mixing * dielectric matrix)
  average eigenvalue GAMMA=   1.4458
  2.3118  1.0128  1.0128

 Free energy of the ion-electron system (eV)
  ---------------------------------------------------
  alpha Z        PSCENC =         0.01306424
  Ewald energy   TEWEN  =       574.48221640
  -Hartree energ DENC   =     -1091.37796797
  -exchange      EXHF   =         0.00000000
  -V(xc)+E(xc)   XCENC  =        53.66864590
  PAW double counting   =      2639.56314216    -2645.82013310
  entropy T*S    EENTRO =        -0.00000000
  eigenvalues    EBANDS =      -190.03299066
  atomic energy  EATOM  =       629.48766000
  Solvation  Ediel_sol  =         0.00000000
  ---------------------------------------------------
  free energy    TOTEN  =       -30.01636303 eV

  energy without entropy =      -30.01636303  energy(sigma->0) =      -30.01636303


--------------------------------------------------------------------------------------------------------




----------------------------------------- Iteration    1(   9)  ---------------------------------------


    POTLOK:  cpu time   30.8912: real time   30.9665
    SETDIJ:  cpu time    0.3536: real time    0.3545
     EDDAV:  cpu time   12.3409: real time   12.3710
       DOS:  cpu time    0.0000: real time    0.0000
    CHARGE:  cpu time    2.7553: real time    2.7620
    MIXING:  cpu time    0.9473: real time    0.9497
    --------------------------------------------
      LOOP:  cpu time   47.2898: real time   47.4073

 eigenvalue-minimisations  :    36
 total energy-change (2. order) : 0.2118170E-01  (-0.1132990E-01)
 number of electron      14.0000000 magnetization 
 augmentation part        1.6401367 magnetization 

 Broyden mixing:
  rms(total) = 0.11190E+00    rms(broyden)= 0.11190E+00
  rms(prec ) = 0.11282E+00
  weight for this iteration     100.00

 eigenvalues of (default mixing * dielectric matrix)
  average eigenvalue GAMMA=   1.3346
  2.3200  0.8617  0.8617  1.2951

 Free energy of the ion-electron system (eV)
  ---------------------------------------------------
  alpha Z        PSCENC =         0.01306424
  Ewald energy   TEWEN  =       574.48221640
  -Hartree energ DENC   =     -1095.83582372
  -exchange      EXHF   =         0.00000000
  -V(xc)+E(xc)   XCENC  =        53.89655371
  PAW double counting   =      2847.18241414    -2853.49234984
  entropy T*S    EENTRO =        -0.00000000
  eigenvalues    EBANDS =      -185.72891627
  atomic energy  EATOM  =       629.48766000
  Solvation  Ediel_sol  =         0.00000000
  ---------------------------------------------------
  free energy    TOTEN  =       -29.99518133 eV

  energy without entropy =      -29.99518133  energy(sigma->0) =      -29.99518133


--------------------------------------------------------------------------------------------------------




----------------------------------------- Iteration    1(  10)  ---------------------------------------


    POTLOK:  cpu time   30.9180: real time   30.9934
    SETDIJ:  cpu time    0.3536: real time    0.3545
     EDDAV:  cpu time   11.6596: real time   11.6882
       DOS:  cpu time    0.0000: real time    0.0000
    CHARGE:  cpu time    2.7605: real time    2.7672
    MIXING:  cpu time    0.9710: real time    0.9734
    --------------------------------------------
      LOOP:  cpu time   46.6643: real time   46.7804

 eigenvalue-minimisations  :    33
 total energy-change (2. order) : 0.1441890E-02  (-0.2230817E-03)
 number of electron      14.0000000 magnetization 
 augmentation part        1.6408937 magnetization 

 Broyden mixing:
  rms(total) = 0.59801E-01    rms(broyden)= 0.59801E-01
  rms(prec ) = 0.60949E-01
  weight for this iteration     100.00

 eigenvalues of (default mixing * dielectric matrix)
  average eigenvalue GAMMA=   1.4566
  2.0443  2.0443  1.1355  1.1355  0.9234

 Free energy of the ion-electron system (eV)
  ---------------------------------------------------
  alpha Z        PSCENC =         0.01306424
  Ewald energy   TEWEN  =       574.48221640
  -Hartree energ DENC   =     -1096.48404910
  -exchange      EXHF   =         0.00000000
  -V(xc)+E(xc)   XCENC  =        53.90408475
  PAW double counting   =      2875.00999293    -2881.29076647
  entropy T*S    EENTRO =        -0.00000000
  eigenvalues    EBANDS =      -185.11594219
  atomic energy  EATOM  =       629.48766000
  Solvation  Ediel_sol  =         0.00000000
  ---------------------------------------------------
  free energy    TOTEN  =       -29.99373944 eV

  energy without entropy =      -29.99373944  energy(sigma->0) =      -29.99373944


--------------------------------------------------------------------------------------------------------




----------------------------------------- Iteration    1(  11)  ---------------------------------------


    POTLOK:  cpu time   30.9392: real time   31.0145
    SETDIJ:  cpu time    0.3547: real time    0.3555
     EDDAV:  cpu time   10.8891: real time   10.9158
       DOS:  cpu time    0.0000: real time    0.0000
    CHARGE:  cpu time    2.7618: real time    2.7686
    MIXING:  cpu time    0.9910: real time    0.9935
    --------------------------------------------
      LOOP:  cpu time   45.9374: real time   46.0516

 eigenvalue-minimisations  :    30
 total energy-change (2. order) :-0.2972885E-03  (-0.1702440E-03)
 number of electron      14.0000000 magnetization 
 augmentation part        1.6409191 magnetization 

 Broyden mixing:
  rms(total) = 0.15477E-01    rms(broyden)= 0.15477E-01
  rms(prec ) = 0.17498E-01
  weight for this iteration     100.00

 eigenvalues of (default mixing * dielectric matrix)
  average eigenvalue GAMMA=   1.4224
  2.1756  2.1756  1.4574  0.9053  0.9053  0.9150

 Free energy of the ion-electron system (eV)
  ---------------------------------------------------
  alpha Z        PSCENC =         0.01306424
  Ewald energy   TEWEN  =       574.48221640
  -Hartree energ DENC   =     -1097.74852985
  -exchange      EXHF   =         0.00000000
  -V(xc)+E(xc)   XCENC  =        53.91878579
  PAW double counting   =      2881.04548438    -2887.29131255
  entropy T*S    EENTRO =        -0.00000000
  eigenvalues    EBANDS =      -183.90140515
  atomic energy  EATOM  =       629.48766000
  Solvation  Ediel_sol  =         0.00000000
  ---------------------------------------------------
  free energy    TOTEN  =       -29.99403673 eV

  energy without entropy =      -29.99403673  energy(sigma->0) =      -29.99403673


--------------------------------------------------------------------------------------------------------




----------------------------------------- Iteration    1(  12)  ---------------------------------------


    POTLOK:  cpu time   30.9267: real time   31.0021
    SETDIJ:  cpu time    0.3572: real time    0.3580
     EDDAV:  cpu time   10.3402: real time   10.3654
       DOS:  cpu time    0.0000: real time    0.0000
    CHARGE:  cpu time    2.7521: real time    2.7588
    MIXING:  cpu time    1.0271: real time    1.0296
    --------------------------------------------
      LOOP:  cpu time   45.4049: real time   45.5181

 eigenvalue-minimisations  :    28
 total energy-change (2. order) :-0.1060291E-02  (-0.1103441E-03)
 number of electron      14.0000000 magnetization 
 augmentation part        1.6392027 magnetization 

 Broyden mixing:
  rms(total) = 0.92871E-02    rms(broyden)= 0.92871E-02
  rms(prec ) = 0.11226E-01
  weight for this iteration     100.00

 eigenvalues of (default mixing * dielectric matrix)
  average eigenvalue GAMMA=   1.4247
  2.2371  2.2371  1.3540  1.3540  0.8412  0.9746  0.9746

 Free energy of the ion-electron system (eV)
  ---------------------------------------------------
  alpha Z        PSCENC =         0.01306424
  Ewald energy   TEWEN  =       574.48221640
  -Hartree energ DENC   =     -1098.63954289
  -exchange      EXHF   =         0.00000000
  -V(xc)+E(xc)   XCENC  =        53.94175838
  PAW double counting   =      2886.69512569    -2892.93710390
  entropy T*S    EENTRO =        -0.00000000
  eigenvalues    EBANDS =      -183.03827495
  atomic energy  EATOM  =       629.48766000
  Solvation  Ediel_sol  =         0.00000000
  ---------------------------------------------------
  free energy    TOTEN  =       -29.99509702 eV

  energy without entropy =      -29.99509702  energy(sigma->0) =      -29.99509702


--------------------------------------------------------------------------------------------------------




----------------------------------------- Iteration    1(  13)  ---------------------------------------


    POTLOK:  cpu time   30.9529: real time   31.0283
    SETDIJ:  cpu time    0.3535: real time    0.3544
     EDDAV:  cpu time   10.3521: real time   10.3774
       DOS:  cpu time    0.0000: real time    0.0000
    CHARGE:  cpu time    2.7556: real time    2.7623
    MIXING:  cpu time    1.0578: real time    1.0604
    --------------------------------------------
      LOOP:  cpu time   45.4734: real time   45.5864

 eigenvalue-minimisations  :    28
 total energy-change (2. order) :-0.2477485E-02  (-0.3489512E-04)
 number of electron      14.0000000 magnetization 
 augmentation part        1.6388839 magnetization 

 Broyden mixing:
  rms(total) = 0.56896E-02    rms(broyden)= 0.56896E-02
  rms(prec ) = 0.75371E-02
  weight for this iteration     100.00

 eigenvalues of (default mixing * dielectric matrix)
  average eigenvalue GAMMA=   1.6690
  3.8583  2.4407  1.7565  1.7565  0.9253  0.9253  0.9456  0.7440

 Free energy of the ion-electron system (eV)
  ---------------------------------------------------
  alpha Z        PSCENC =         0.01306424
  Ewald energy   TEWEN  =       574.48221640
  -Hartree energ DENC   =     -1099.18878842
  -exchange      EXHF   =         0.00000000
  -V(xc)+E(xc)   XCENC  =        53.94941864
  PAW double counting   =      2880.19615381    -2886.43361614
  entropy T*S    EENTRO =        -0.00000000
  eigenvalues    EBANDS =      -182.50368303
  atomic energy  EATOM  =       629.48766000
  Solvation  Ediel_sol  =         0.00000000
  ---------------------------------------------------
  free energy    TOTEN  =       -29.99757451 eV

  energy without entropy =      -29.99757451  energy(sigma->0) =      -29.99757451


--------------------------------------------------------------------------------------------------------




----------------------------------------- Iteration    1(  14)  ---------------------------------------


    POTLOK:  cpu time   30.9640: real time   31.0395
    SETDIJ:  cpu time    0.3533: real time    0.3542
     EDDAV:  cpu time    9.5609: real time    9.5843
       DOS:  cpu time    0.0000: real time    0.0000
    CHARGE:  cpu time    2.7544: real time    2.7611
    MIXING:  cpu time    1.0849: real time    1.0875
    --------------------------------------------
      LOOP:  cpu time   44.7191: real time   44.8303

 eigenvalue-minimisations  :    25
 total energy-change (2. order) :-0.4238965E-02  (-0.1760461E-03)
 number of electron      14.0000000 magnetization 
 augmentation part        1.6377990 magnetization 

 Broyden mixing:
  rms(total) = 0.40777E-02    rms(broyden)= 0.40777E-02
  rms(prec ) = 0.46856E-02
  weight for this iteration     100.00

 eigenvalues of (default mixing * dielectric matrix)
  average eigenvalue GAMMA=   1.6547
  4.3864  2.2337  2.2337  1.4110  0.9363  0.9363  0.9943  0.8803  0.8803

 Free energy of the ion-electron system (eV)
  ---------------------------------------------------
  alpha Z        PSCENC =         0.01306424
  Ewald energy   TEWEN  =       574.48221640
  -Hartree energ DENC   =     -1100.47413764
  -exchange      EXHF   =         0.00000000
  -V(xc)+E(xc)   XCENC  =        53.97306070
  PAW double counting   =      2875.82089625    -2882.05187104
  entropy T*S    EENTRO =        -0.00000000
  eigenvalues    EBANDS =      -181.25270239
  atomic energy  EATOM  =       629.48766000
  Solvation  Ediel_sol  =         0.00000000
  ---------------------------------------------------
  free energy    TOTEN  =       -30.00181347 eV

  energy without entropy =      -30.00181347  energy(sigma->0) =      -30.00181347


--------------------------------------------------------------------------------------------------------




----------------------------------------- Iteration    1(  15)  ---------------------------------------


    POTLOK:  cpu time   30.9787: real time   31.0542
    SETDIJ:  cpu time    0.3534: real time    0.3543
     EDDAV:  cpu time   12.5320: real time   12.5627
       DOS:  cpu time    0.0000: real time    0.0000
    CHARGE:  cpu time    2.7619: real time    2.7687
    MIXING:  cpu time    1.1135: real time    1.1162
    --------------------------------------------
      LOOP:  cpu time   47.7412: real time   47.8603

 eigenvalue-minimisations  :    36
 total energy-change (2. order) :-0.1994885E-02  (-0.1934511E-04)
 number of electron      14.0000000 magnetization 
 augmentation part        1.6376747 magnetization 

 Broyden mixing:
  rms(total) = 0.33981E-02    rms(broyden)= 0.33981E-02
  rms(prec ) = 0.37995E-02
  weight for this iteration     100.00

 eigenvalues of (default mixing * dielectric matrix)
  average eigenvalue GAMMA=   1.6844
  4.6206  2.5031  1.9564  1.6620  1.6620  0.9626  0.9626  0.9658  0.7841  0.7653

 Free energy of the ion-electron system (eV)
  ---------------------------------------------------
  alpha Z        PSCENC =         0.01306424
  Ewald energy   TEWEN  =       574.48221640
  -Hartree energ DENC   =     -1100.71846069
  -exchange      EXHF   =         0.00000000
  -V(xc)+E(xc)   XCENC  =        53.97563874
  PAW double counting   =      2876.66076756    -2882.89263000
  entropy T*S    EENTRO =        -0.00000000
  eigenvalues    EBANDS =      -181.01206460
  atomic energy  EATOM  =       629.48766000
  Solvation  Ediel_sol  =         0.00000000
  ---------------------------------------------------
  free energy    TOTEN  =       -30.00380836 eV

  energy without entropy =      -30.00380836  energy(sigma->0) =      -30.00380836


--------------------------------------------------------------------------------------------------------




----------------------------------------- Iteration    1(  16)  ---------------------------------------


    POTLOK:  cpu time   30.9816: real time   31.0571
    SETDIJ:  cpu time    0.3534: real time    0.3543
     EDDAV:  cpu time   12.5345: real time   12.5653
       DOS:  cpu time    0.0000: real time    0.0000
    CHARGE:  cpu time    2.7545: real time    2.7612
    MIXING:  cpu time    1.1564: real time    1.1593
    --------------------------------------------
      LOOP:  cpu time   47.7822: real time   47.9011

 eigenvalue-minimisations  :    36
 total energy-change (2. order) :-0.2342706E-02  (-0.1578176E-04)
 number of electron      14.0000000 magnetization 
 augmentation part        1.6378664 magnetization 

 Broyden mixing:
  rms(total) = 0.12438E-02    rms(broyden)= 0.12438E-02
  rms(prec ) = 0.16601E-02
  weight for this iteration     100.00

 eigenvalues of (default mixing * dielectric matrix)
  average eigenvalue GAMMA=   1.8696
  6.0342  3.1648  2.3603  1.7421  1.7421  0.9964  0.9964  0.9459  0.9459  0.8185
  0.8185

 Free energy of the ion-electron system (eV)
  ---------------------------------------------------
  alpha Z        PSCENC =         0.01306424
  Ewald energy   TEWEN  =       574.48221640
  -Hartree energ DENC   =     -1100.81114475
  -exchange      EXHF   =         0.00000000
  -V(xc)+E(xc)   XCENC  =        53.97142031
  PAW double counting   =      2875.19098745    -2881.42319533
  entropy T*S    EENTRO =        -0.00000000
  eigenvalues    EBANDS =      -180.91715939
  atomic energy  EATOM  =       629.48766000
  Solvation  Ediel_sol  =         0.00000000
  ---------------------------------------------------
  free energy    TOTEN  =       -30.00615106 eV

  energy without entropy =      -30.00615106  energy(sigma->0) =      -30.00615106


--------------------------------------------------------------------------------------------------------




----------------------------------------- Iteration    1(  17)  ---------------------------------------


    POTLOK:  cpu time   30.9634: real time   31.0389
    SETDIJ:  cpu time    0.3530: real time    0.3539
     EDDAV:  cpu time   12.4572: real time   12.4877
       DOS:  cpu time    0.0000: real time    0.0000
    CHARGE:  cpu time    2.7574: real time    2.7642
    MIXING:  cpu time    1.1845: real time    1.1874
    --------------------------------------------
      LOOP:  cpu time   47.7171: real time   47.8359

 eigenvalue-minimisations  :    36
 total energy-change (2. order) :-0.2034428E-02  (-0.1922240E-04)
 number of electron      14.0000000 magnetization 
 augmentation part        1.6378893 magnetization 

 Broyden mixing:
  rms(total) = 0.15130E-02    rms(broyden)= 0.15130E-02
  rms(prec ) = 0.16129E-02
  weight for this iteration     100.00

 eigenvalues of (default mixing * dielectric matrix)
  average eigenvalue GAMMA=   1.9605
  7.0789  3.2748  2.3743  1.7948  1.7948  1.6212  0.9346  0.9346  1.0873  1.0150
  0.8079  0.8079

 Free energy of the ion-electron system (eV)
  ---------------------------------------------------
  alpha Z        PSCENC =         0.01306424
  Ewald energy   TEWEN  =       574.48221640
  -Hartree energ DENC   =     -1100.94566562
  -exchange      EXHF   =         0.00000000
  -V(xc)+E(xc)   XCENC  =        53.96980054
  PAW double counting   =      2875.19474104    -2881.42798861
  entropy T*S    EENTRO =        -0.00000000
  eigenvalues    EBANDS =      -180.78201348
  atomic energy  EATOM  =       629.48766000
  Solvation  Ediel_sol  =         0.00000000
  ---------------------------------------------------
  free energy    TOTEN  =       -30.00818549 eV

  energy without entropy =      -30.00818549  energy(sigma->0) =      -30.00818549


--------------------------------------------------------------------------------------------------------




----------------------------------------- Iteration    1(  18)  ---------------------------------------


    POTLOK:  cpu time   30.9899: real time   31.0654
    SETDIJ:  cpu time    0.3528: real time    0.3537
     EDDAV:  cpu time   12.4567: real time   12.4872
       DOS:  cpu time    0.0000: real time    0.0000
    CHARGE:  cpu time    2.7617: real time    2.7684
    MIXING:  cpu time    1.2246: real time    1.2276
    --------------------------------------------
      LOOP:  cpu time   47.7873: real time   47.9060

 eigenvalue-minimisations  :    36
 total energy-change (2. order) :-0.8510774E-03  (-0.4034583E-05)
 number of electron      14.0000000 magnetization 
 augmentation part        1.6378107 magnetization 

 Broyden mixing:
  rms(total) = 0.70807E-03    rms(broyden)= 0.70807E-03
  rms(prec ) = 0.77975E-03
  weight for this iteration     100.00

 eigenvalues of (default mixing * dielectric matrix)
  average eigenvalue GAMMA=   1.9730
  7.3693  3.7884  2.3202  2.3202  1.6890  1.6890  1.0250  1.0250  0.9297  0.9297
  0.9684  0.7977  0.7977

 Free energy of the ion-electron system (eV)
  ---------------------------------------------------
  alpha Z        PSCENC =         0.01306424
  Ewald energy   TEWEN  =       574.48221640
  -Hartree energ DENC   =     -1100.98125723
  -exchange      EXHF   =         0.00000000
  -V(xc)+E(xc)   XCENC  =        53.96840857
  PAW double counting   =      2874.53311498    -2880.76551349
  entropy T*S    EENTRO =        -0.00000000
  eigenvalues    EBANDS =      -180.74673003
  atomic energy  EATOM  =       629.48766000
  Solvation  Ediel_sol  =         0.00000000
  ---------------------------------------------------
  free energy    TOTEN  =       -30.00903657 eV

  energy without entropy =      -30.00903657  energy(sigma->0) =      -30.00903657


--------------------------------------------------------------------------------------------------------




----------------------------------------- Iteration    1(  19)  ---------------------------------------


    POTLOK:  cpu time   30.9431: real time   31.0184
    SETDIJ:  cpu time    0.3525: real time    0.3533
     EDDAV:  cpu time   10.3350: real time   10.3602
       DOS:  cpu time    0.0000: real time    0.0000
    CHARGE:  cpu time    2.7693: real time    2.7760
    MIXING:  cpu time    1.2543: real time    1.2574
    --------------------------------------------
      LOOP:  cpu time   45.6557: real time   45.7691

 eigenvalue-minimisations  :    28
 total energy-change (2. order) :-0.4346140E-03  (-0.1770724E-05)
 number of electron      14.0000000 magnetization 
 augmentation part        1.6377811 magnetization 

 Broyden mixing:
  rms(total) = 0.37323E-03    rms(broyden)= 0.37323E-03
  rms(prec ) = 0.42490E-03
  weight for this iteration     100.00

 eigenvalues of (default mixing * dielectric matrix)
  average eigenvalue GAMMA=   2.0239
  7.6155  4.2385  2.3929  2.3929  1.8248  1.8248  1.5416  1.1667  0.9631  0.9631
  0.8971  0.8971  0.8080  0.8080

 Free energy of the ion-electron system (eV)
  ---------------------------------------------------
  alpha Z        PSCENC =         0.01306424
  Ewald energy   TEWEN  =       574.48221640
  -Hartree energ DENC   =     -1100.97565280
  -exchange      EXHF   =         0.00000000
  -V(xc)+E(xc)   XCENC  =        53.96717242
  PAW double counting   =      2874.87999267    -2881.11216268
  entropy T*S    EENTRO =        -0.00000000
  eigenvalues    EBANDS =      -180.75176145
  atomic energy  EATOM  =       629.48766000
  Solvation  Ediel_sol  =         0.00000000
  ---------------------------------------------------
  free energy    TOTEN  =       -30.00947118 eV

  energy without entropy =      -30.00947118  energy(sigma->0) =      -30.00947118


--------------------------------------------------------------------------------------------------------




----------------------------------------- Iteration    1(  20)  ---------------------------------------


    POTLOK:  cpu time   30.9688: real time   31.0443
    SETDIJ:  cpu time    0.3522: real time    0.3531
     EDDAV:  cpu time   11.6649: real time   11.6934
       DOS:  cpu time    0.0000: real time    0.0000
    CHARGE:  cpu time    2.7595: real time    2.7662
    MIXING:  cpu time    1.3074: real time    1.3106
    --------------------------------------------
      LOOP:  cpu time   47.0544: real time   47.1715

 eigenvalue-minimisations  :    33
 total energy-change (2. order) :-0.2704067E-03  (-0.7260820E-06)
 number of electron      14.0000000 magnetization 
 augmentation part        1.6377689 magnetization 

 Broyden mixing:
  rms(total) = 0.45726E-03    rms(broyden)= 0.45726E-03
  rms(prec ) = 0.47269E-03
  weight for this iteration     100.00

 eigenvalues of (default mixing * dielectric matrix)
  average eigenvalue GAMMA=   2.0700
  8.1623  4.8685  2.8704  2.5638  1.8217  1.5963  1.5963  1.2234  0.9663  0.9663
  0.9377  0.9377  0.9285  0.8051  0.8051

 Free energy of the ion-electron system (eV)
  ---------------------------------------------------
  alpha Z        PSCENC =         0.01306424
  Ewald energy   TEWEN  =       574.48221640
  -Hartree energ DENC   =     -1100.97891168
  -exchange      EXHF   =         0.00000000
  -V(xc)+E(xc)   XCENC  =        53.96677824
  PAW double counting   =      2875.26797655    -2881.49996902
  entropy T*S    EENTRO =        -0.00000000
  eigenvalues    EBANDS =      -180.74855632
  atomic energy  EATOM  =       629.48766000
  Solvation  Ediel_sol  =         0.00000000
  ---------------------------------------------------
  free energy    TOTEN  =       -30.00974159 eV

  energy without entropy =      -30.00974159  energy(sigma->0) =      -30.00974159


--------------------------------------------------------------------------------------------------------




----------------------------------------- Iteration    1(  21)  ---------------------------------------


    POTLOK:  cpu time   30.9110: real time   30.9864
    SETDIJ:  cpu time    0.3519: real time    0.3528
     EDDAV:  cpu time   10.2601: real time   10.2853
       DOS:  cpu time    0.0000: real time    0.0000
    CHARGE:  cpu time    2.7629: real time    2.7697
    MIXING:  cpu time    1.3498: real time    1.3531
    --------------------------------------------
      LOOP:  cpu time   45.6374: real time   45.7516

 eigenvalue-minimisations  :    28
 total energy-change (2. order) :-0.1263817E-03  (-0.2282141E-06)
 number of electron      14.0000000 magnetization 
 augmentation part        1.6377647 magnetization 

 Broyden mixing:
  rms(total) = 0.18213E-03    rms(broyden)= 0.18213E-03
  rms(prec ) = 0.19659E-03
  weight for this iteration     100.00

 eigenvalues of (default mixing * dielectric matrix)
  average eigenvalue GAMMA=   2.0734
  8.4670  5.1493  3.0913  2.4165  1.8368  1.6618  1.6618  1.1775  1.1775  1.0592
  1.0592  0.9193  0.9193  0.9574  0.8103  0.8103

 Free energy of the ion-electron system (eV)
  ---------------------------------------------------
  alpha Z        PSCENC =         0.01306424
  Ewald energy   TEWEN  =       574.48221640
  -Hartree energ DENC   =     -1100.98251714
  -exchange      EXHF   =         0.00000000
  -V(xc)+E(xc)   XCENC  =        53.96655019
  PAW double counting   =      2874.84415795    -2881.07600690
  entropy T*S    EENTRO =        -0.00000000
  eigenvalues    EBANDS =      -180.74499271
  atomic energy  EATOM  =       629.48766000
  Solvation  Ediel_sol  =         0.00000000
  ---------------------------------------------------
  free energy    TOTEN  =       -30.00986797 eV

  energy without entropy =      -30.00986797  energy(sigma->0) =      -30.00986797


--------------------------------------------------------------------------------------------------------




----------------------------------------- Iteration    1(  22)  ---------------------------------------


    POTLOK:  cpu time   30.8824: real time   30.9580
    SETDIJ:  cpu time    0.3569: real time    0.3578
     EDDAV:  cpu time   12.3594: real time   12.3897
       DOS:  cpu time    0.0000: real time    0.0000
    CHARGE:  cpu time    2.7562: real time    2.7630
    MIXING:  cpu time    1.3954: real time    1.3989
    --------------------------------------------
      LOOP:  cpu time   47.7520: real time   47.8710

 eigenvalue-minimisations  :    36
 total energy-change (2. order) :-0.6024612E-04  (-0.3778476E-07)
 number of electron      14.0000000 magnetization 
 augmentation part        1.6377555 magnetization 

 Broyden mixing:
  rms(total) = 0.15162E-03    rms(broyden)= 0.15162E-03
  rms(prec ) = 0.15980E-03
  weight for this iteration     100.00

 eigenvalues of (default mixing * dielectric matrix)
  average eigenvalue GAMMA=   2.1312
  8.8909  5.5382  3.3806  2.5349  2.2685  1.7303  1.5804  1.4337  1.4337  1.0017
  1.0017  0.9369  0.9369  0.8062  0.8062  0.9747  0.9747

 Free energy of the ion-electron system (eV)
  ---------------------------------------------------
  alpha Z        PSCENC =         0.01306424
  Ewald energy   TEWEN  =       574.48221640
  -Hartree energ DENC   =     -1100.98662124
  -exchange      EXHF   =         0.00000000
  -V(xc)+E(xc)   XCENC  =        53.96661089
  PAW double counting   =      2874.87877938    -2881.11074412
  entropy T*S    EENTRO =        -0.00000000
  eigenvalues    EBANDS =      -180.74089378
  atomic energy  EATOM  =       629.48766000
  Solvation  Ediel_sol  =         0.00000000
  ---------------------------------------------------
  free energy    TOTEN  =       -30.00992822 eV

  energy without entropy =      -30.00992822  energy(sigma->0) =      -30.00992822


--------------------------------------------------------------------------------------------------------




----------------------------------------- Iteration    1(  23)  ---------------------------------------


    POTLOK:  cpu time   30.8187: real time   30.8943
    SETDIJ:  cpu time    0.3569: real time    0.3578
     EDDAV:  cpu time    8.6924: real time    8.7139
       DOS:  cpu time    0.0000: real time    0.0000
    CHARGE:  cpu time    2.7678: real time    2.7746
    MIXING:  cpu time    1.4364: real time    1.4399
    --------------------------------------------
      LOOP:  cpu time   44.0738: real time   44.1843

 eigenvalue-minimisations  :    22
 total energy-change (2. order) :-0.5368410E-04  (-0.3683390E-07)
 number of electron      14.0000000 magnetization 
 augmentation part        1.6377697 magnetization 

 Broyden mixing:
  rms(total) = 0.52827E-04    rms(broyden)= 0.52827E-04
  rms(prec ) = 0.58276E-04
  weight for this iteration     100.00

 eigenvalues of (default mixing * dielectric matrix)
  average eigenvalue GAMMA=   2.1799
  9.1621  5.8073  3.9874  2.5543  2.5543  1.8191  1.8191  1.4226  1.4226  1.1006
  1.1006  1.0342  1.0342  0.9320  0.9320  0.9389  0.8082  0.8082

 Free energy of the ion-electron system (eV)
  ---------------------------------------------------
  alpha Z        PSCENC =         0.01306424
  Ewald energy   TEWEN  =       574.48221640
  -Hartree energ DENC   =     -1100.98673367
  -exchange      EXHF   =         0.00000000
  -V(xc)+E(xc)   XCENC  =        53.96651788
  PAW double counting   =      2874.86548933    -2881.09753439
  entropy T*S    EENTRO =        -0.00000000
  eigenvalues    EBANDS =      -180.74066170
  atomic energy  EATOM  =       629.48766000
  Solvation  Ediel_sol  =         0.00000000
  ---------------------------------------------------
  free energy    TOTEN  =       -30.00998190 eV

  energy without entropy =      -30.00998190  energy(sigma->0) =      -30.00998190


--------------------------------------------------------------------------------------------------------




----------------------------------------- Iteration    1(  24)  ---------------------------------------


    POTLOK:  cpu time   30.7742: real time   30.8493
    SETDIJ:  cpu time    0.3535: real time    0.3544
     EDDAV:  cpu time   10.2475: real time   10.2726
       DOS:  cpu time    0.0000: real time    0.0000
    CHARGE:  cpu time    2.7585: real time    2.7653
    MIXING:  cpu time    1.5020: real time    1.5057
    --------------------------------------------
      LOOP:  cpu time   45.6372: real time   45.7513

 eigenvalue-minimisations  :    28
 total energy-change (2. order) :-0.2166483E-04  (-0.9571638E-08)
 number of electron      14.0000000 magnetization 
 augmentation part        1.6377661 magnetization 

 Broyden mixing:
  rms(total) = 0.79194E-04    rms(broyden)= 0.79194E-04
  rms(prec ) = 0.80335E-04
  weight for this iteration     100.00

 eigenvalues of (default mixing * dielectric matrix)
  average eigenvalue GAMMA=   2.1912
  9.2399  6.2857  4.3170  2.9771  2.4925  1.8403  1.8403  1.6536  1.3549  1.3549
  0.9938  0.9938  0.9452  0.9452  0.9835  0.9835  0.8099  0.8099  0.8126

 Free energy of the ion-electron system (eV)
  ---------------------------------------------------
  alpha Z        PSCENC =         0.01306424
  Ewald energy   TEWEN  =       574.48221640
  -Hartree energ DENC   =     -1100.98899225
  -exchange      EXHF   =         0.00000000
  -V(xc)+E(xc)   XCENC  =        53.96656265
  PAW double counting   =      2874.88124114    -2881.11331480
  entropy T*S    EENTRO =        -0.00000000
  eigenvalues    EBANDS =      -180.73844096
  atomic energy  EATOM  =       629.48766000
  Solvation  Ediel_sol  =         0.00000000
  ---------------------------------------------------
  free energy    TOTEN  =       -30.01000357 eV

  energy without entropy =      -30.01000357  energy(sigma->0) =      -30.01000357


--------------------------------------------------------------------------------------------------------




----------------------------------------- Iteration    1(  25)  ---------------------------------------


    POTLOK:  cpu time   30.7678: real time   30.8427
    SETDIJ:  cpu time    0.3531: real time    0.3540
     EDDAV:  cpu time   10.7837: real time   10.8101
       DOS:  cpu time    0.0000: real time    0.0000
    CHARGE:  cpu time    2.7648: real time    2.7716
    MIXING:  cpu time    1.5378: real time    1.5416
    --------------------------------------------
      LOOP:  cpu time   46.2089: real time   46.3241

 eigenvalue-minimisations  :    30
 total energy-change (2. order) :-0.7848419E-05  (-0.1889227E-08)
 number of electron      14.0000000 magnetization 
 augmentation part        1.6377687 magnetization 

 Broyden mixing:
  rms(total) = 0.52769E-04    rms(broyden)= 0.52769E-04
  rms(prec ) = 0.53518E-04
  weight for this iteration     100.00

 eigenvalues of (default mixing * dielectric matrix)
  average eigenvalue GAMMA=   2.2205
  9.4084  6.5238  4.5618  3.0752  2.4434  2.4434  1.7050  1.7050  1.5426  1.5426
  1.0726  1.0726  0.9390  0.9390  0.9836  0.9836  0.9874  0.8080  0.8080  0.8660

 Free energy of the ion-electron system (eV)
  ---------------------------------------------------
  alpha Z        PSCENC =         0.01306424
  Ewald energy   TEWEN  =       574.48221640
  -Hartree energ DENC   =     -1100.98866875
  -exchange      EXHF   =         0.00000000
  -V(xc)+E(xc)   XCENC  =        53.96653276
  PAW double counting   =      2874.89066813    -2881.12274250
  entropy T*S    EENTRO =        -0.00000000
  eigenvalues    EBANDS =      -180.73874169
  atomic energy  EATOM  =       629.48766000
  Solvation  Ediel_sol  =         0.00000000
  ---------------------------------------------------
  free energy    TOTEN  =       -30.01001141 eV

  energy without entropy =      -30.01001141  energy(sigma->0) =      -30.01001141


--------------------------------------------------------------------------------------------------------




----------------------------------------- Iteration    1(  26)  ---------------------------------------


    POTLOK:  cpu time   30.7776: real time   30.8525
    SETDIJ:  cpu time    0.3527: real time    0.3535
     EDDAV:  cpu time    8.7770: real time    8.7984
       DOS:  cpu time    0.0000: real time    0.0000
    CHARGE:  cpu time    2.7681: real time    2.7748
    MIXING:  cpu time    1.5891: real time    1.5930
    --------------------------------------------
      LOOP:  cpu time   44.2659: real time   44.3761

 eigenvalue-minimisations  :    22
 total energy-change (2. order) :-0.5970271E-05  (-0.1180855E-08)
 number of electron      14.0000000 magnetization 
 augmentation part        1.6377684 magnetization 

 Broyden mixing:
  rms(total) = 0.20729E-04    rms(broyden)= 0.20729E-04
  rms(prec ) = 0.21268E-04
  weight for this iteration     100.00

 eigenvalues of (default mixing * dielectric matrix)
  average eigenvalue GAMMA=   2.2858
  9.5200  6.9305  5.0681  3.6241  2.9313  2.3006  2.0764  1.7363  1.7363  1.3591
  1.3591  1.0202  1.0202  0.9400  0.9400  0.9933  0.9933  0.8098  0.8098  0.9615
  0.8711

 Free energy of the ion-electron system (eV)
  ---------------------------------------------------
  alpha Z        PSCENC =         0.01306424
  Ewald energy   TEWEN  =       574.48221640
  -Hartree energ DENC   =     -1100.98899596
  -exchange      EXHF   =         0.00000000
  -V(xc)+E(xc)   XCENC  =        53.96651752
  PAW double counting   =      2874.87778661    -2881.10983356
  entropy T*S    EENTRO =        -0.00000000
  eigenvalues    EBANDS =      -180.73843264
  atomic energy  EATOM  =       629.48766000
  Solvation  Ediel_sol  =         0.00000000
  ---------------------------------------------------
  free energy    TOTEN  =       -30.01001739 eV

  energy without entropy =      -30.01001739  energy(sigma->0) =      -30.01001739


--------------------------------------------------------------------------------------------------------




----------------------------------------- Iteration    1(  27)  ---------------------------------------


    POTLOK:  cpu time   30.8139: real time   30.8890
    SETDIJ:  cpu time    0.3534: real time    0.3543
     EDDAV:  cpu time    8.7671: real time    8.7885
       DOS:  cpu time    0.0000: real time    0.0000
    CHARGE:  cpu time    2.7651: real time    2.7719
    MIXING:  cpu time    1.6549: real time    1.6589
    --------------------------------------------
      LOOP:  cpu time   44.3559: real time   44.4661

 eigenvalue-minimisations  :    22
 total energy-change (2. order) :-0.3134092E-05  (-0.1065722E-08)
 number of electron      14.0000000 magnetization 
 augmentation part        1.6377678 magnetization 

 Broyden mixing:
  rms(total) = 0.31372E-04    rms(broyden)= 0.31372E-04
  rms(prec ) = 0.31465E-04
  weight for this iteration     100.00

 eigenvalues of (default mixing * dielectric matrix)
  average eigenvalue GAMMA=   2.2884
  9.5699  7.0530  5.1952  3.6822  2.9252  2.4433  2.4433  1.8863  1.5604  1.5604
  1.5323  1.0979  1.0979  1.0204  1.0204  0.9343  0.9343  0.8095  0.8095  1.0004
  0.9290  0.8404

 Free energy of the ion-electron system (eV)
  ---------------------------------------------------
  alpha Z        PSCENC =         0.01306424
  Ewald energy   TEWEN  =       574.48221640
  -Hartree energ DENC   =     -1100.98922561
  -exchange      EXHF   =         0.00000000
  -V(xc)+E(xc)   XCENC  =        53.96652172
  PAW double counting   =      2874.89744362    -2881.12948220
  entropy T*S    EENTRO =        -0.00000000
  eigenvalues    EBANDS =      -180.73821869
  atomic energy  EATOM  =       629.48766000
  Solvation  Ediel_sol  =         0.00000000
  ---------------------------------------------------
  free energy    TOTEN  =       -30.01002052 eV

  energy without entropy =      -30.01002052  energy(sigma->0) =      -30.01002052


--------------------------------------------------------------------------------------------------------




----------------------------------------- Iteration    1(  28)  ---------------------------------------


    POTLOK:  cpu time   30.8392: real time   30.9144
    SETDIJ:  cpu time    0.3530: real time    0.3538
     EDDAV:  cpu time   12.3423: real time   12.3726
       DOS:  cpu time    0.0000: real time    0.0000
    CHARGE:  cpu time    2.7700: real time    2.7768
    MIXING:  cpu time    1.7054: real time    1.7095
    --------------------------------------------
      LOOP:  cpu time   48.0115: real time   48.1309

 eigenvalue-minimisations  :    36
 total energy-change (2. order) :-0.9776318E-06  (-0.3502905E-09)
 number of electron      14.0000000 magnetization 
 augmentation part        1.6377679 magnetization 

 Broyden mixing:
  rms(total) = 0.13914E-04    rms(broyden)= 0.13914E-04
  rms(prec ) = 0.13980E-04
  weight for this iteration     100.00

 eigenvalues of (default mixing * dielectric matrix)
  average eigenvalue GAMMA=   2.2771
  9.5877  7.3033  5.4279  3.9909  2.7750  2.7750  2.2877  1.9110  1.6130  1.6130
  1.4012  1.1966  1.1966  1.0413  1.0413  0.9390  0.9390  1.0173  0.8097  0.8097
  0.9261  0.9261  0.8440

 Free energy of the ion-electron system (eV)
  ---------------------------------------------------
  alpha Z        PSCENC =         0.01306424
  Ewald energy   TEWEN  =       574.48221640
  -Hartree energ DENC   =     -1100.98917136
  -exchange      EXHF   =         0.00000000
  -V(xc)+E(xc)   XCENC  =        53.96651590
  PAW double counting   =      2874.88021864    -2881.11225733
  entropy T*S    EENTRO =        -0.00000000
  eigenvalues    EBANDS =      -180.73826799
  atomic energy  EATOM  =       629.48766000
  Solvation  Ediel_sol  =         0.00000000
  ---------------------------------------------------
  free energy    TOTEN  =       -30.01002150 eV

  energy without entropy =      -30.01002150  energy(sigma->0) =      -30.01002150


--------------------------------------------------------------------------------------------------------




----------------------------------------- Iteration    1(  29)  ---------------------------------------


    POTLOK:  cpu time   30.8672: real time   30.9424
    SETDIJ:  cpu time    0.3541: real time    0.3550
     EDDAV:  cpu time    8.6847: real time    8.7060
       DOS:  cpu time    0.0000: real time    0.0000
    CHARGE:  cpu time    2.7667: real time    2.7735
    MIXING:  cpu time    1.7668: real time    1.7711
    --------------------------------------------
      LOOP:  cpu time   44.4410: real time   44.5513

 eigenvalue-minimisations  :    22
 total energy-change (2. order) :-0.3760606E-06  (-0.2377583E-09)
 number of electron      14.0000000 magnetization 
 augmentation part        1.6377676 magnetization 

 Broyden mixing:
  rms(total) = 0.98711E-05    rms(broyden)= 0.98711E-05
  rms(prec ) = 0.99273E-05
  weight for this iteration     100.00

 eigenvalues of (default mixing * dielectric matrix)
  average eigenvalue GAMMA=   2.3110
  9.6346  7.6092  5.6966  4.4367  3.1488  2.7057  2.3586  2.3097  1.6606  1.6606
  1.4495  1.4495  1.0651  1.0651  0.9860  0.9860  0.9334  0.9334  0.8095  0.8095
  1.0152  0.9513  0.9513  0.8392

 Free energy of the ion-electron system (eV)
  ---------------------------------------------------
  alpha Z        PSCENC =         0.01306424
  Ewald energy   TEWEN  =       574.48221640
  -Hartree energ DENC   =     -1100.98920224
  -exchange      EXHF   =         0.00000000
  -V(xc)+E(xc)   XCENC  =        53.96651618
  PAW double counting   =      2874.87598578    -2881.10802687
  entropy T*S    EENTRO =        -0.00000000
  eigenvalues    EBANDS =      -180.73823536
  atomic energy  EATOM  =       629.48766000
  Solvation  Ediel_sol  =         0.00000000
  ---------------------------------------------------
  free energy    TOTEN  =       -30.01002187 eV

  energy without entropy =      -30.01002187  energy(sigma->0) =      -30.01002187


--------------------------------------------------------------------------------------------------------




----------------------------------------- Iteration    1(  30)  ---------------------------------------


    POTLOK:  cpu time   30.8001: real time   30.8751
    SETDIJ:  cpu time    0.3535: real time    0.3543
     EDDAV:  cpu time   10.7853: real time   10.8117
       DOS:  cpu time    0.0000: real time    0.0000
    CHARGE:  cpu time    2.7566: real time    2.7633
    MIXING:  cpu time    1.8432: real time    1.8477
    --------------------------------------------
      LOOP:  cpu time   46.5403: real time   46.6559

 eigenvalue-minimisations  :    30
 total energy-change (2. order) :-0.2869356E-06  (-0.2193143E-09)
 number of electron      14.0000000 magnetization 
 augmentation part        1.6377675 magnetization 

 Broyden mixing:
  rms(total) = 0.80573E-05    rms(broyden)= 0.80573E-05
  rms(prec ) = 0.80806E-05
  weight for this iteration     100.00

 eigenvalues of (default mixing * dielectric matrix)
  average eigenvalue GAMMA=   2.3144
  9.7032  7.6898  5.8704  4.5400  3.0379  3.0379  2.4183  2.4183  1.7960  1.5945
  1.5945  1.6315  1.0779  1.0779  1.1110  1.1110  0.9398  0.9398  0.9793  0.9793
  0.9826  0.8091  0.8091  0.8932  0.8171

 Free energy of the ion-electron system (eV)
  ---------------------------------------------------
  alpha Z        PSCENC =         0.01306424
  Ewald energy   TEWEN  =       574.48221640
  -Hartree energ DENC   =     -1100.98919666
  -exchange      EXHF   =         0.00000000
  -V(xc)+E(xc)   XCENC  =        53.96651627
  PAW double counting   =      2874.88157016    -2881.11361270
  entropy T*S    EENTRO =        -0.00000000
  eigenvalues    EBANDS =      -180.73823987
  atomic energy  EATOM  =       629.48766000
  Solvation  Ediel_sol  =         0.00000000
  ---------------------------------------------------
  free energy    TOTEN  =       -30.01002216 eV

  energy without entropy =      -30.01002216  energy(sigma->0) =      -30.01002216


--------------------------------------------------------------------------------------------------------




----------------------------------------- Iteration    1(  31)  ---------------------------------------


    POTLOK:  cpu time   30.7498: real time   30.8247
    SETDIJ:  cpu time    0.3538: real time    0.3547
     EDDAV:  cpu time   12.4519: real time   12.4824
       DOS:  cpu time    0.0000: real time    0.0000
    CHARGE:  cpu time    2.7654: real time    2.7721
    MIXING:  cpu time    1.9101: real time    1.9148
    --------------------------------------------
      LOOP:  cpu time   48.2329: real time   48.3529

 eigenvalue-minimisations  :    36
 total energy-change (2. order) :-0.1308772E-06  (-0.1650893E-09)
 number of electron      14.0000000 magnetization 
 augmentation part        1.6377676 magnetization 

 Broyden mixing:
  rms(total) = 0.30046E-05    rms(broyden)= 0.30046E-05
  rms(prec ) = 0.30215E-05
  weight for this iteration     100.00

 eigenvalues of (default mixing * dielectric matrix)
  average eigenvalue GAMMA=   2.2790
  9.7232  7.7095  5.9459  4.5541  3.1201  2.9664  2.4683  2.4683  2.0036  1.6052
  1.6052  1.4843  1.1758  1.1758  1.0205  1.0205  1.0211  1.0211  0.9346  0.9346
  0.8097  0.8097  0.9883  0.9205  0.9205  0.8473

 Free energy of the ion-electron system (eV)
  ---------------------------------------------------
  alpha Z        PSCENC =         0.01306424
  Ewald energy   TEWEN  =       574.48221640
  -Hartree energ DENC   =     -1100.98918167
  -exchange      EXHF   =         0.00000000
  -V(xc)+E(xc)   XCENC  =        53.96651639
  PAW double counting   =      2874.88568900    -2881.11773270
  entropy T*S    EENTRO =        -0.00000000
  eigenvalues    EBANDS =      -180.73825394
  atomic energy  EATOM  =       629.48766000
  Solvation  Ediel_sol  =         0.00000000
  ---------------------------------------------------
  free energy    TOTEN  =       -30.01002229 eV

  energy without entropy =      -30.01002229  energy(sigma->0) =      -30.01002229


--------------------------------------------------------------------------------------------------------




----------------------------------------- Iteration    1(  32)  ---------------------------------------


    POTLOK:  cpu time   30.7200: real time   30.7948
    SETDIJ:  cpu time    0.3580: real time    0.3588
     EDDAV:  cpu time   10.3426: real time   10.3679
       DOS:  cpu time    0.0000: real time    0.0000
    --------------------------------------------
      LOOP:  cpu time   41.4220: real time   41.5255

 eigenvalue-minimisations  :    28
 total energy-change (2. order) :-0.4824551E-07  (-0.1380442E-09)
 number of electron      14.0000000 magnetization 
 augmentation part        1.6377676 magnetization 

 Free energy of the ion-electron system (eV)
  ---------------------------------------------------
  alpha Z        PSCENC =         0.01306424
  Ewald energy   TEWEN  =       574.48221640
  -Hartree energ DENC   =     -1100.98918597
  -exchange      EXHF   =         0.00000000
  -V(xc)+E(xc)   XCENC  =        53.96651647
  PAW double counting   =      2874.88565088    -2881.11769446
  entropy T*S    EENTRO =        -0.00000000
  eigenvalues    EBANDS =      -180.73824991
  atomic energy  EATOM  =       629.48766000
  Solvation  Ediel_sol  =         0.00000000
  ---------------------------------------------------
  free energy    TOTEN  =       -30.01002234 eV

  energy without entropy =      -30.01002234  energy(sigma->0) =      -30.01002234


--------------------------------------------------------------------------------------------------------




 average (electrostatic) potential at core
  the test charge radii are     0.8471  0.8742  0.6256
  (the norm of the test charge is              1.0000)
       1 -84.1399       2 -90.5125       3 -41.3495       4 -38.4686       5 -38.4240
       6 -38.4215
 
 
 
 E-fermi :  -6.2229     XC(G=0):  -0.0292     alpha+bet : -0.0070


 k-point     1 :       0.0000    0.0000    0.0000
  band No.  band energies     occupation 
      1     -25.6125      2.00000
      2     -16.9131      2.00000
      3     -12.5252      2.00000
      4     -10.6956      2.00000
      5     -10.3645      2.00000
      6      -7.9662      2.00000
      7      -6.2920      2.00000
      8      -0.6972      0.00000
      9      -0.1261      0.00000
     10       0.0051      0.00000
     11       0.1059      0.00000


--------------------------------------------------------------------------------------------------------


 soft charge-density along one line, spin component           1
         0         1         2         3         4         5         6         7         8         9
 total charge-density along one line
 
 pseudopotential strength for first ion, spin component:           1
 19.759  23.257  -0.003  -0.004  -0.001  -0.003  -0.004  -0.001
 23.257  27.378  -0.004  -0.005  -0.002  -0.004  -0.005  -0.002
 -0.003  -0.004  -2.974  -0.001  -0.002  -3.636  -0.002  -0.003
 -0.004  -0.005  -0.001  -2.974  -0.000  -0.002  -3.637  -0.000
 -0.001  -0.002  -0.002  -0.000  -2.971  -0.003  -0.000  -3.633
 -0.003  -0.004  -3.636  -0.002  -0.003  -4.371  -0.002  -0.003
 -0.004  -0.005  -0.002  -3.637  -0.000  -0.002  -4.372  -0.000
 -0.001  -0.002  -0.003  -0.000  -3.633  -0.003  -0.000  -4.366
 total augmentation occupancy for first ion, spin component:           1
 18.494 -11.600  -1.374  -1.372  -0.595   1.008   1.015   0.435
-11.600   7.384   1.280   1.321   0.551  -0.897  -0.926  -0.386
 -1.374   1.280  10.378   0.877   0.388  -5.407  -0.774  -0.320
 -1.372   1.321   0.877  10.398   0.376  -0.774  -5.467  -0.333
 -0.595   0.551   0.388   0.376   9.659  -0.320  -0.333  -4.803
  1.008  -0.897  -5.407  -0.774  -0.320   2.856   0.585   0.237
  1.015  -0.926  -0.774  -5.467  -0.333   0.585   2.912   0.252
  0.435  -0.386  -0.320  -0.333  -4.803   0.237   0.252   2.406


------------------------ aborting loop because EDIFF is reached ----------------------------------------


    CHARGE:  cpu time    2.7578: real time    2.7646
    FORLOC:  cpu time    2.8192: real time    2.8261
    FORNL :  cpu time    0.4944: real time    0.4956
    STRESS:  cpu time    4.5263: real time    4.5374
    FORHAR:  cpu time    9.8605: real time    9.8845
    MIXING:  cpu time    1.9505: real time    1.9552
    OFIELD:  cpu time    0.0000: real time    0.0000

  FORCE on cell =-STRESS in cart. coord.  units (eV):
  Direction    XX          YY          ZZ          XY          YZ          ZX
  --------------------------------------------------------------------------------------
  Alpha Z     0.01306     0.01306     0.01306
  Ewald      88.07603   186.15506   300.25106    56.87520   101.97860    30.61839
  Hartree   316.55411   372.07328   412.36182    29.28698    72.48635    27.94268
  E(xc)     -57.18397   -57.01753   -56.73618     0.11863     0.05457    -0.02237
  Local    -624.26570  -767.59911  -899.91455   -78.37326  -173.43954   -61.70057
  n-local    22.80685    21.45643    19.39011    -1.12686     0.47577     0.65755
  augment    52.12012    49.48561    45.15185    -1.85559    -0.99985     0.27120
  Kinetic   202.73228   196.53433   182.01515    -4.67079    -0.79241     1.92488
  Fock        0.00000     0.00000     0.00000     0.00000     0.00000     0.00000
  -------------------------------------------------------------------------------------
  Total       0.85279     1.10114     2.53233     0.25431    -0.23651    -0.30823
  in kB       0.03187     0.04115     0.09463     0.00950    -0.00884    -0.01152
  external pressure =        0.06 kB  Pullay stress =        0.00 kB


 VOLUME and BASIS-vectors are now :
 -----------------------------------------------------------------------------
  energy-cutoff  :     1000.00
  volume of cell :    42875.00
      direct lattice vectors                 reciprocal lattice vectors
    35.000000000  0.000000000  0.000000000     0.028571429  0.000000000  0.000000000
     0.000000000 35.000000000  0.000000000     0.000000000  0.028571429  0.000000000
     0.000000000  0.000000000 35.000000000     0.000000000  0.000000000  0.028571429

  length of vectors
    35.000000000 35.000000000 35.000000000     0.028571429  0.028571429  0.028571429


 FORCES acting on ions
    electron-ion (+dipol)            ewald-force                    non-local-force                 convergence-correction
 -----------------------------------------------------------------------------------------------
   -.326E+02 -.779E+02 -.907E+02   0.351E+02 0.840E+02 0.983E+02   -.249E+01 -.602E+01 -.739E+01   0.877E-06 0.256E-05 0.286E-05
   0.560E+02 0.122E+03 0.912E+02   -.876E+02 -.179E+03 -.798E+02   0.310E+02 0.559E+02 -.104E+02   -.416E-05 -.107E-04 -.200E-04
   -.233E+02 -.260E+02 0.938E+02   0.259E+02 0.293E+02 -.103E+03   -.218E+01 -.277E+01 0.697E+01   -.252E-06 -.535E-06 -.755E-06
   0.154E+02 0.169E+02 -.644E+02   -.173E+02 -.194E+02 0.699E+02   0.175E+01 0.232E+01 -.510E+01   -.736E-06 -.803E-06 0.258E-05
   -.647E+02 -.154E+02 -.116E+02   0.708E+02 0.162E+02 0.119E+02   -.566E+01 -.716E+00 -.261E+00   0.257E-05 0.510E-06 0.230E-06
   0.242E+02 -.629E+02 -.278E+01   -.269E+02 0.685E+02 0.219E+01   0.252E+01 -.509E+01 0.547E+00   -.108E-05 0.250E-05 -.983E-07
 -----------------------------------------------------------------------------------------------
   -.249E+02 -.437E+02 0.156E+02   0.711E-14 -.142E-13 -.151E-13   0.249E+02 0.437E+02 -.156E+02   -.278E-05 -.650E-05 -.151E-04
 
 
 POSITION                                       TOTAL-FORCE (eV/Angst)
 -----------------------------------------------------------------------------------
      2.73294      0.87007      1.05009         0.028367      0.112213      0.294023
      2.34703     34.95849      0.03065        -0.654849     -1.015731      1.074411
      2.62906      0.32844     34.19079         0.483802      0.577318     -1.749410
      2.40976      0.44044      1.99316        -0.125619     -0.161991      0.392773
      3.81400      1.00916      1.08913         0.474223      0.066346      0.029438
      2.25447      1.84367      0.93491        -0.205924      0.421845     -0.041234
 -----------------------------------------------------------------------------------
    total drift:                               -0.000117      0.000073     -0.000032


--------------------------------------------------------------------------------------------------------



  FREE ENERGIE OF THE ION-ELECTRON SYSTEM (eV)
  ---------------------------------------------------
  free  energy   TOTEN  =       -30.01002234 eV

  energy  without entropy=      -30.01002234  energy(sigma->0) =      -30.01002234
 


--------------------------------------------------------------------------------------------------------


    POTLOK:  cpu time   31.0275: real time   31.1030


--------------------------------------------------------------------------------------------------------


 writing wavefunctions
     LOOP+:  cpu time 1658.5573: real time 1662.7328
    4ORBIT:  cpu time    0.0000: real time    0.0000

 total amount of memory used by VASP on root node  5840403. kBytes
========================================================================

   base      :      30000. kBytes
   nonl-proj :      55412. kBytes
   fftplans  :    1964666. kBytes
   grid      :    3756461. kBytes
   one-center:          1. kBytes
   wavefun   :      33863. kBytes
 
  
  
 General timing and accounting informations for this job:
 ========================================================
  
                  Total CPU time used (sec):     2064.110
                            User time (sec):     1889.657
                          System time (sec):      174.453
                         Elapsed time (sec):     2069.291
  
                   Maximum memory used (kb):     8985376.
                   Average memory used (kb):           0.
  
                          Minor page faults:       230047
                          Major page faults:            5
                 Voluntary context switches:          740
 
 PROFILE, used timers:      14
 =============================
 
 index                 routine                    time                            calls level
----------------------------------------------------------------------------------------------
    1    total_time                         2069.292121                                1   1
    2      w1_copy                               3.001381                           4103   2
    3      fftwav_mpi                          158.412192                           1571   2
    4      fftext_mpi                            0.768665                             11   2
    5      overl                                 0.000996                           2377   2
    6      orth1                                 3.924377                            775   2
    7      lincom                                0.203563                             33   2
    8      eccp                                  5.494471                            352   2
    9      hamiltmu                            179.412485                            258   2
   10        vhamil                               33.166198                         1364   3
   11        overl1                                0.001077                         1364   3
   12        kinhamil                            114.603322                         1364   3
   13          fftext_mpi                          113.730675                       1364   4
   14      pdssyex_zheevx                        0.026147                             32   2
 
 Flat profile
 ============
 
             routine name                   CPU           calls
 ---------------------------------------------------------------
 total_time                           1718.047844           1
 fftwav_mpi                            158.412192        1571
 fftext_mpi                            114.499340        1375
 vhamil                                 33.166198        1364
 hamiltmu                               31.641888         258
 eccp                                    5.494471         352
 orth1                                   3.924377         775
 w1_copy                                 3.001381        4103
 kinhamil                                0.872647        1364
 lincom                                  0.203563          33
 pdssyex_zheevx                          0.026147          32
 overl1                                  0.001077        1364
 overl                                   0.000996        2377
 ---------------------------------------------------------------
  summed up times    2069.29212117195     
 
Profiling took   0.008977  0.005522  0.003266  0.003257 seconds
Profiling took   0.005928 seconds
