 vasp.5.4.1 24Jun15 (build Jan 02 2020 16:21:29) gamma-only                     
  
 executed on           IFC15_impi date 2020.04.11  15:33:52
 running on    8 total cores
 distrk:  each k-point on    8 cores,    1 groups
 distr:  one band on NCORES_PER_BAND=   8 cores,    1 groups


--------------------------------------------------------------------------------------------------------


 INCAR:
 POTCAR:    PAW_PBE C_s 06Sep2000                 
 POTCAR:    PAW_PBE O_s 07Sep2000                 
 POTCAR:    PAW_PBE H_s 15May2010                 

 ----------------------------------------------------------------------------- 
|                                                                             |
|           W    W    AA    RRRRR   N    N  II  N    N   GGGG   !!!           |
|           W    W   A  A   R    R  NN   N  II  NN   N  G    G  !!!           |
|           W    W  A    A  R    R  N N  N  II  N N  N  G       !!!           |
|           W WW W  AAAAAA  RRRRR   N  N N  II  N  N N  G  GGG   !            |
|           WW  WW  A    A  R   R   N   NN  II  N   NN  G    G                |
|           W    W  A    A  R    R  N    N  II  N    N   GGGG   !!!           |
|                                                                             |
|      For optimal performance we recommend to set                            |
|        NCORE= 4 - approx SQRT( number of cores)                             |
|      NCORE specifies how many cores store one orbital (NPAR=cpu/NCORE).     |
|      This setting can  greatly improve the performance of VASP for DFT.     |
|      The default, NPAR=number of cores might be grossly inefficient         |
|      on modern multi-core architectures or massively parallel machines.     |
|      Do your own testing !!!!                                               |
|      Unfortunately you need to use the default for GW and RPA calculations. |
|      (for HF NCORE is supported but not extensively tested yet)             |
|                                                                             |
 ----------------------------------------------------------------------------- 

 POTCAR:    PAW_PBE C_s 06Sep2000                 
   VRHFIN =C: s2p2                                                              
   LEXCH  = PE                                                                  
   EATOM  =   147.1560 eV,   10.8157 Ry                                         
                                                                                
   TITEL  = PAW_PBE C_s 06Sep2000                                               
   LULTRA =        F    use ultrasoft PP ?                                      
   IUNSCR =        0    unscreen: 0-lin 1-nonlin 2-no                           
   RPACOR =    0.000    partial core radius                                     
   POMASS =   12.011; ZVAL   =    4.000    mass and valenz                      
   RCORE  =    1.850    outmost cutoff radius                                   
   RWIGS  =    1.890; RWIGS  =    1.000    wigner-seitz radius (au A)           
   ENMAX  =  273.911; ENMIN  =  205.433 eV                                      
   RCLOC  =    0.804    cutoff for local pot                                    
   LCOR   =        T    correct aug charges                                     
   LPAW   =        T    paw PP                                                  
   EAUG   =  439.243                                                            
   DEXC   =    0.000                                                            
   RMAX   =    1.897    core radius for proj-oper                               
   RAUG   =    1.300    factor for augmentation sphere                          
   RDEP   =    1.940    radius for radial grids                                 
   RDEPT  =    1.573    core radius for aug-charge                              
                                                                                
   Atomic configuration                                                         
    4 entries                                                                   
     n  l   j            E        occ.                                          
     1  0  0.50      -273.3789   2.0000                                         
     2  0  0.50       -13.7508   2.0000                                         
     2  1  0.50        -5.2854   2.0000                                         
     3  2  1.50        -1.3606   0.0000                                         
   Description                                                                  
     l       E           TYP  RCUT    TYP  RCUT                                 
     0    -13.7508457     23  1.500                                             
     0    -11.0934578     23  1.500                                             
     1     -5.2854381     23  1.850                                             
     1     -1.3099858     23  1.850                                             
  local pseudopotential read in
  atomic valenz-charges read in
  non local Contribution for L=           0  read in
    real space projection operators read in
  non local Contribution for L=           0  read in
    real space projection operators read in
  non local Contribution for L=           1  read in
    real space projection operators read in
  non local Contribution for L=           1  read in
    real space projection operators read in
    PAW grid and wavefunctions read in
 
   number of l-projection  operators is LMAX  =           4
   number of lm-projection operators is LMMAX =           8
 
 POTCAR:    PAW_PBE O_s 07Sep2000                 
   VRHFIN =O: s2p4                                                              
   LEXCH  = PE                                                                  
   EATOM  =   432.3788 eV,   31.7789 Ry                                         
                                                                                
   TITEL  = PAW_PBE O_s 07Sep2000                                               
   LULTRA =        F    use ultrasoft PP ?                                      
   IUNSCR =        0    unscreen: 0-lin 1-nonlin 2-no                           
   RPACOR =    0.000    partial core radius                                     
   POMASS =   16.000; ZVAL   =    6.000    mass and valenz                      
   RCORE  =    1.850    outmost cutoff radius                                   
   RWIGS  =    1.700; RWIGS  =    0.900    wigner-seitz radius (au A)           
   ENMAX  =  282.853; ENMIN  =  212.140 eV                                      
   RCLOC  =    0.804    cutoff for local pot                                    
   LCOR   =        T    correct aug charges                                     
   LPAW   =        T    paw PP                                                  
   EAUG   =  412.352                                                            
   RMAX   =    1.897    core radius for proj-oper                               
   RAUG   =    1.300    factor for augmentation sphere                          
   RDEP   =    1.878    radius for radial grids                                 
   RDEPT  =    1.572    core radius for aug-charge                              
                                                                                
   Atomic configuration                                                         
    4 entries                                                                   
     n  l   j            E        occ.                                          
     1  0  0.50      -514.6923   2.0000                                         
     2  0  0.50       -23.9615   2.0000                                         
     2  1  0.50        -9.0305   4.0000                                         
     3  2  1.50        -1.3606   0.0000                                         
   Description                                                                  
     l       E           TYP  RCUT    TYP  RCUT                                 
     0    -23.9615315     23  1.500                                             
     0    -25.3221141     23  1.500                                             
     1     -9.0304908     23  1.850                                             
     1     -7.3935399     23  1.850                                             
  local pseudopotential read in
  atomic valenz-charges read in
  non local Contribution for L=           0  read in
    real space projection operators read in
  non local Contribution for L=           0  read in
    real space projection operators read in
  non local Contribution for L=           1  read in
    real space projection operators read in
  non local Contribution for L=           1  read in
    real space projection operators read in
    PAW grid and wavefunctions read in
 
   number of l-projection  operators is LMAX  =           4
   number of lm-projection operators is LMMAX =           8
 
 POTCAR:    PAW_PBE H_s 15May2010                 
   VRHFIN =H: ultrasoft test                                                    
   LEXCH  = PE                                                                  
   EATOM  =    12.4884 eV,    0.9179 Ry                                         
                                                                                
   TITEL  = PAW_PBE H_s 15May2010                                               
   LULTRA =        F    use ultrasoft PP ?                                      
   IUNSCR =        0    unscreen: 0-lin 1-nonlin 2-no                           
   RPACOR =    0.000    partial core radius                                     
   POMASS =    1.000; ZVAL   =    1.000    mass and valenz                      
   RCORE  =    1.300    outmost cutoff radius                                   
   RWIGS  =    0.700; RWIGS  =    0.370    wigner-seitz radius (au A)           
   ENMAX  =  200.000; ENMIN  =  150.000 eV                                      
   RCLOC  =    0.701    cutoff for local pot                                    
   LCOR   =        T    correct aug charges                                     
   LPAW   =        T    paw PP                                                  
   EAUG   =  300.000                                                            
   RMAX   =    1.330    core radius for proj-oper                               
   RAUG   =    1.200    factor for augmentation sphere                          
   RDEP   =    1.337    radius for radial grids                                 
   RDEPT  =    1.114    core radius for aug-charge                              
                                                                                
   Atomic configuration                                                         
    2 entries                                                                   
     n  l   j            E        occ.                                          
     1  0  0.50        -6.4927   1.0000                                         
     2  1  0.50        -3.4015   0.0000                                         
   Description                                                                  
     l       E           TYP  RCUT    TYP  RCUT                                 
     0     -6.4927494     23  1.300                                             
     0      6.8029130     23  1.300                                             
     1     -4.0817478     23  1.300                                             
  local pseudopotential read in
  atomic valenz-charges read in
  non local Contribution for L=           0  read in
    real space projection operators read in
  non local Contribution for L=           0  read in
    real space projection operators read in
  non local Contribution for L=           1  read in
    real space projection operators read in
    PAW grid and wavefunctions read in
 
   number of l-projection  operators is LMAX  =           3
   number of lm-projection operators is LMMAX =           5
 
  PAW_PBE C_s 06Sep2000                 :
 energy of atom  1       EATOM= -147.1560
 kinetic energy error for atom=    0.0002 (will be added to EATOM!!)
  PAW_PBE O_s 07Sep2000                 :
 energy of atom  2       EATOM= -432.3788
 kinetic energy error for atom=    0.0004 (will be added to EATOM!!)
  PAW_PBE H_s 15May2010                 :
 energy of atom  3       EATOM=  -12.4884
 kinetic energy error for atom=    0.0000 (will be added to EATOM!!)
 
 
 POSCAR: C O H                                   
  positions in cartesian coordinates
  No initial velocities read in
 exchange correlation table for  LEXCH =        8
   RHO(1)=    0.500       N(1)  =     2000
   RHO(2)=  100.500       N(2)  =     4000
 


--------------------------------------------------------------------------------------------------------


 ion  position               nearest neighbor table
   1  0.968  0.038  0.008-   3 1.22   4 1.32   2 1.50
   2  0.925  0.037  0.008-   6 1.08   8 1.09   7 1.09   1 1.50
   3  0.987  0.067  0.013-   1 1.22
   4  0.983  0.004  0.001-   5 0.99   1 1.32
   5  0.012  0.006  0.002-   4 0.99
   6  0.914  0.065  0.013-   2 1.08
   7  0.915  0.026  0.981-   2 1.09
   8  0.916  0.017  0.030-   2 1.09
 
  LATTYP: Found a simple cubic cell.
 ALAT       =    35.0000000000
  
  Lattice vectors:
  
 A1 = (  35.0000000000,   0.0000000000,   0.0000000000)
 A2 = (   0.0000000000,  35.0000000000,   0.0000000000)
 A3 = (   0.0000000000,   0.0000000000,  35.0000000000)


Analysis of symmetry for initial positions (statically):
=====================================================================
 Subroutine PRICEL returns:
 Original cell was already a primitive cell.
 

 Routine SETGRP: Setting up the symmetry group for a 
 simple cubic supercell.


 Subroutine GETGRP returns: Found  1 space group operations
 (whereof  1 operations were pure point group operations)
 out of a pool of 48 trial point group operations.


The static configuration has the point symmetry C_1 .


Analysis of symmetry for dynamics (positions and initial velocities):
=====================================================================
 Subroutine PRICEL returns:
 Original cell was already a primitive cell.
 

 Routine SETGRP: Setting up the symmetry group for a 
 simple cubic supercell.


 Subroutine GETGRP returns: Found  1 space group operations
 (whereof  1 operations were pure point group operations)
 out of a pool of 48 trial point group operations.


The dynamic configuration has the point symmetry C_1 .
 
 
 KPOINTS: automatic mesh                          

Automatic generation of k-mesh.
Space group operators:
 irot       det(A)        alpha          n_x          n_y          n_z        tau_x        tau_y        tau_z
    1     1.000000     0.000000     1.000000     0.000000     0.000000     0.000000     0.000000     0.000000
 
 Subroutine IBZKPT returns following result:
 ===========================================
 
 Found      1 irreducible k-points:
 
 Following reciprocal coordinates:
            Coordinates               Weight
  0.000000  0.000000  0.000000      1.000000
 
 Following cartesian coordinates:
            Coordinates               Weight
  0.000000  0.000000  0.000000      1.000000
 


--------------------------------------------------------------------------------------------------------




 Dimension of arrays:
   k-points           NKPTS =      1   k-points in BZ     NKDIM =      1   number of bands    NBANDS=     17
   number of dos      NEDOS =    301   number of ions     NIONS =      8
   non local maximal  LDIM  =      4   non local SUM 2l+1 LMDIM =      8
   total plane-waves  NPLWV = ******
   max r-space proj   IRMAX =      1   max aug-charges    IRDMAX=  29269
   dimension x,y,z NGX =   378 NGY =  378 NGZ =  378
   dimension x,y,z NGXF=   756 NGYF=  756 NGZF=  756
   support grid    NGXF=   756 NGYF=  756 NGZF=  756
   ions per type =               2   2   4
 NGX,Y,Z   is equivalent  to a cutoff of  17.95, 17.95, 17.95 a.u.
 NGXF,Y,Z  is equivalent  to a cutoff of  35.91, 35.91, 35.91 a.u.


 I would recommend the setting:
   dimension x,y,z NGX =   361 NGY =  361 NGZ =  361
 SYSTEM =  C                                       
 POSCAR =  C O H                                   

 Startparameter for this run:
   NWRITE =      2    write-flag & timer
   PREC   = acc       normal or accurate (medium, high low for compatibility)
   ISTART =      0    job   : 0-new  1-cont  2-samecut
   ICHARG =      2    charge: 1-file 2-atom 10-const
   ISPIN  =      1    spin polarized calculation?
   LNONCOLLINEAR =      F non collinear calculations
   LSORBIT =      F    spin-orbit coupling
   INIWAV =      1    electr: 0-lowe 1-rand  2-diag
   LASPH  =      T    aspherical Exc in radial PAW
   METAGGA=      F    non-selfconsistent MetaGGA calc.

 Electronic Relaxation 1
   ENCUT  = 1000.0 eV  73.50 Ry    8.57 a.u.  90.25 90.25 90.25*2*pi/ulx,y,z
   ENINI  = 1000.0     initial cutoff
   ENAUG  =  439.2 eV  augmentation charge cutoff
   NELM   =     60;   NELMIN=  2; NELMDL= -5     # of ELM steps 
   EDIFF  = 0.1E-06   stopping-criterion for ELM
   LREAL  =      F    real-space projection
   NLSPLINE    = F    spline interpolate recip. space projectors
   LCOMPAT=      F    compatible to vasp.4.4
   GGA_COMPAT  = T    GGA compatible to vasp.4.4-vasp.4.6
   LMAXPAW     = -100 max onsite density
   LMAXMIX     =    2 max onsite mixed and CHGCAR
   VOSKOWN=      0    Vosko Wilk Nusair interpolation
   ROPT   =    0.00000   0.00000   0.00000
 Ionic relaxation
   EDIFFG = 0.1E-05   stopping-criterion for IOM
   NSW    =      0    number of steps for IOM
   NBLOCK =      1;   KBLOCK =      1    inner block; outer block 
   IBRION =     -1    ionic relax: 0-MD 1-quasi-New 2-CG
   NFREE  =      0    steps in history (QN), initial steepest desc. (CG)
   ISIF   =      2    stress and relaxation
   IWAVPR =     10    prediction:  0-non 1-charg 2-wave 3-comb
   ISYM   =      2    0-nonsym 1-usesym 2-fastsym
   LCORR  =      T    Harris-Foulkes like correction to forces

   POTIM  = 0.5000    time-step for ionic-motion
   TEIN   =    0.0    initial temperature
   TEBEG  =    0.0;   TEEND  =   0.0 temperature during run
   SMASS  =  -3.00    Nose mass-parameter (am)
   estimated Nose-frequenzy (Omega)   =  0.10E-29 period in steps =****** mass=  -0.280E-25a.u.
   SCALEE = 1.0000    scale energy and forces
   NPACO  =    256;   APACO  = 16.0  distance and # of slots for P.C.
   PSTRESS=    0.0 pullay stress

  Mass of Ions in am
   POMASS =  12.01 16.00  1.00
  Ionic Valenz
   ZVAL   =   4.00  6.00  1.00
  Atomic Wigner-Seitz radii
   RWIGS  =  -1.00 -1.00 -1.00
  virtual crystal weights 
   VCA    =   1.00  1.00  1.00
   NELECT =      24.0000    total number of electrons
   NUPDOWN=      -1.0000    fix difference up-down

 DOS related values:
   EMIN   =  10.00;   EMAX   =-10.00  energy-range for DOS
   EFERMI =   0.00
   ISMEAR =     0;   SIGMA  =   0.01  broadening in eV -4-tet -1-fermi 0-gaus

 Electronic relaxation 2 (details)
   IALGO  =     38    algorithm
   LDIAG  =      T    sub-space diagonalisation (order eigenvalues)
   LSUBROT=      F    optimize rotation matrix (better conditioning)
   TURBO    =      0    0=normal 1=particle mesh
   IRESTART =      0    0=no restart 2=restart with 2 vectors
   NREBOOT  =      0    no. of reboots
   NMIN     =      0    reboot dimension
   EREF     =   0.00    reference energy to select bands
   IMIX   =      4    mixing-type and parameters
     AMIX     =   0.40;   BMIX     =  1.00
     AMIX_MAG =   1.60;   BMIX_MAG =  1.00
     AMIN     =   0.10
     WC   =   100.;   INIMIX=   1;  MIXPRE=   1;  MAXMIX= -45

 Intra band minimization:
   WEIMIN = 0.0000     energy-eigenvalue tresh-hold
   EBREAK =  0.15E-08  absolut break condition
   DEPER  =   0.30     relativ break condition  

   TIME   =   0.40     timestep for ELM

  volume/ion in A,a.u.               =    5359.38     36166.85
  Fermi-wavevector in a.u.,A,eV,Ry     =   0.134920  0.254962  0.247673  0.018203
  Thomas-Fermi vector in A             =   0.783236
 
 Write flags
   LWAVE  =      T    write WAVECAR
   LCHARG =      T    write CHGCAR
   LVTOT  =      F    write LOCPOT, total local potential
   LVHAR  =      F    write LOCPOT, Hartree potential only
   LELF   =      F    write electronic localiz. function (ELF)
   LORBIT =      0    0 simple, 1 ext, 2 COOP (PROOUT)


 Dipole corrections
   LMONO  =      F    monopole corrections only (constant potential shift)
   LDIPOL =      F    correct potential (dipole corrections)
   IDIPOL =      0    1-x, 2-y, 3-z, 4-all directions 
   EPSILON=  1.0000000 bulk dielectric constant

 Exchange correlation treatment:
   GGA     =    --    GGA type
   LEXCH   =     8    internal setting for exchange type
   VOSKOWN=      0    Vosko Wilk Nusair interpolation
   LHFCALC =     F    Hartree Fock is set to
   LHFONE  =     F    Hartree Fock one center treatment
   AEXX    =    0.0000 exact exchange contribution

 Linear response parameters
   LEPSILON=     F    determine dielectric tensor
   LRPA    =     F    only Hartree local field effects (RPA)
   LNABLA  =     F    use nabla operator in PAW spheres
   LVEL    =     F    velocity operator in full k-point grid
   LINTERFAST=   F  fast interpolation
   KINTER  =     0    interpolate to denser k-point grid
   CSHIFT  =0.1000    complex shift for real part using Kramers Kronig
   OMEGAMAX=  -1.0    maximum frequency
   DEG_THRESHOLD= 0.2000000E-02 threshold for treating states as degnerate
   RTIME   =    0.100 relaxation time in fs

 Orbital magnetization related:
   ORBITALMAG=     F  switch on orbital magnetization
   LCHIMAG   =     F  perturbation theory with respect to B field
   DQ        =  0.001000  dq finite difference perturbation B field



--------------------------------------------------------------------------------------------------------


 Static calculation
 charge density and potential will be updated during run
 non-spin polarized calculation
 Variant of blocked Davidson
 Davidson routine will perform the subspace rotation
 perform sub-space diagonalisation
    after iterative eigenvector-optimisation
 modified Broyden-mixing scheme, WC =      100.0
 initial mixing is a Kerker type mixing with AMIX =  0.4000 and BMIX =      1.0000
 Hartree-type preconditioning will be used
 using additional bands            5
 reciprocal scheme for non local part
 calculate Harris-corrections to forces 
   (improved forces if not selfconsistent)
 use gradient corrections 
 use of overlap-Matrix (Vanderbilt PP)
 Gauss-broadening in eV      SIGMA  =   0.01


--------------------------------------------------------------------------------------------------------


  energy-cutoff  :     1000.00
  volume of cell :    42875.00
      direct lattice vectors                 reciprocal lattice vectors
    35.000000000  0.000000000  0.000000000     0.028571429  0.000000000  0.000000000
     0.000000000 35.000000000  0.000000000     0.000000000  0.028571429  0.000000000
     0.000000000  0.000000000 35.000000000     0.000000000  0.000000000  0.028571429

  length of vectors
    35.000000000 35.000000000 35.000000000     0.028571429  0.028571429  0.028571429


 
 k-points in units of 2pi/SCALE and weight: automatic mesh                          
   0.00000000  0.00000000  0.00000000       1.000
 
 k-points in reciprocal lattice and weights: automatic mesh                          
   0.00000000  0.00000000  0.00000000       1.000
 
 position of ions in fractional coordinates (direct lattice) 
   0.96818211  0.03791486  0.00786192
   0.92538787  0.03674827  0.00792461
   0.98665478  0.06712537  0.01318678
   0.98348316  0.00391201  0.00141764
   0.01180915  0.00580733  0.00158535
   0.91409575  0.06505387  0.01330828
   0.91530696  0.02615025  0.98051425
   0.91562531  0.01690852  0.02974973
 
 position of ions in cartesian coordinates  (Angst):
  33.88637388  1.32702010  0.27516705
  32.38857531  1.28618957  0.27736131
  34.53291736  2.34938778  0.46153746
  34.42191061  0.13692049  0.04961747
   0.41332036  0.20325660  0.05548711
  31.99335128  2.27688545  0.46578983
  32.03574377  0.91525868 34.31799877
  32.04688579  0.59179821  1.04124041
 


--------------------------------------------------------------------------------------------------------


 use parallel FFT for wavefunctions z direction half grid
 k-point  1 :   0.0000 0.0000 0.0000  plane waves: 1539209

 maximum and minimum number of plane-waves per node :    192406   192397

 maximum number of plane-waves:   1539209
 maximum index in each direction: 
   IXMAX=   90   IYMAX=   90   IZMAX=   90
   IXMIN=  -90   IYMIN=  -90   IZMIN=    0

 NGX is ok and might be reduce to 362
 NGY is ok and might be reduce to 362
 NGZ is ok and might be reduce to 362

 parallel 3D FFT for wavefunctions:
    minimum data exchange during FFTs selected (reduces bandwidth)
 parallel 3D FFT for charge:
    minimum data exchange during FFTs selected (reduces bandwidth)


 total amount of memory used by VASP on root node  5865032. kBytes
========================================================================

   base      :      30000. kBytes
   nonl-proj :      61569. kBytes
   fftplans  :    1964666. kBytes
   grid      :    3756461. kBytes
   one-center:          1. kBytes
   wavefun   :      52335. kBytes
 
     INWAV:  cpu time    0.0000: real time    0.0000
 Broyden mixing: mesh for mixing (old mesh)
   NGX =181   NGY =181   NGZ =181
  (NGX  =756   NGY  =756   NGZ  =756)
  gives a total of ****** points

 initial charge density was supplied:
 charge density of overlapping atoms calculated
 number of electron      24.0000000 magnetization 
 keeping initial charge density in first step


--------------------------------------------------------------------------------------------------------


 Maximum index for augmentation-charges         3939 (set IRDMAX)


--------------------------------------------------------------------------------------------------------


 First call to EWALD:  gamma=   0.051
 Maximum number of real-space cells 3x 3x 3
 Maximum number of reciprocal cells 3x 3x 3

 FEWALD executed in parallel
    FEWALD:  cpu time    0.0012: real time    0.0012


----------------------------------------- Iteration    1(   1)  ---------------------------------------


    POTLOK:  cpu time   26.0256: real time   26.0909
    SETDIJ:  cpu time    0.0502: real time    0.0504
     EDDAV:  cpu time   16.8742: real time   16.9173
       DOS:  cpu time    0.0000: real time    0.0000
    --------------------------------------------
      LOOP:  cpu time   42.9515: real time   43.0615

 eigenvalue-minimisations  :    50
 total energy-change (2. order) : 0.2046954E+03  (-0.4047230E+03)
 number of electron      24.0000000 magnetization 
 augmentation part       24.0000000 magnetization 

 Free energy of the ion-electron system (eV)
  ---------------------------------------------------
  alpha Z        PSCENC =         0.03925812
  Ewald energy   TEWEN  =      1513.56575091
  -Hartree energ DENC   =     -2425.68646538
  -exchange      EXHF   =         0.00000000
  -V(xc)+E(xc)   XCENC  =        91.79021812
  PAW double counting   =       917.52283183     -927.46382948
  entropy T*S    EENTRO =        -0.00000000
  eigenvalues    EBANDS =      -174.09419222
  atomic energy  EATOM  =      1209.02182130
  Solvation  Ediel_sol  =         0.00000000
  ---------------------------------------------------
  free energy    TOTEN  =       204.69539319 eV

  energy without entropy =      204.69539319  energy(sigma->0) =      204.69539319


--------------------------------------------------------------------------------------------------------




----------------------------------------- Iteration    1(   2)  ---------------------------------------


     EDDAV:  cpu time   21.1598: real time   21.2137
       DOS:  cpu time    0.0000: real time    0.0000
    --------------------------------------------
      LOOP:  cpu time   21.1612: real time   21.2174

 eigenvalue-minimisations  :    67
 total energy-change (2. order) :-0.1512844E+03  (-0.1510675E+03)
 number of electron      24.0000000 magnetization 
 augmentation part       24.0000000 magnetization 

 Free energy of the ion-electron system (eV)
  ---------------------------------------------------
  alpha Z        PSCENC =         0.03925812
  Ewald energy   TEWEN  =      1513.56575091
  -Hartree energ DENC   =     -2425.68646538
  -exchange      EXHF   =         0.00000000
  -V(xc)+E(xc)   XCENC  =        91.79021812
  PAW double counting   =       917.52283183     -927.46382948
  entropy T*S    EENTRO =        -0.00000000
  eigenvalues    EBANDS =      -325.37856023
  atomic energy  EATOM  =      1209.02182130
  Solvation  Ediel_sol  =         0.00000000
  ---------------------------------------------------
  free energy    TOTEN  =        53.41102519 eV

  energy without entropy =       53.41102519  energy(sigma->0) =       53.41102519


--------------------------------------------------------------------------------------------------------




----------------------------------------- Iteration    1(   3)  ---------------------------------------


     EDDAV:  cpu time   17.3894: real time   17.4338
       DOS:  cpu time    0.0000: real time    0.0000
    --------------------------------------------
      LOOP:  cpu time   17.3912: real time   17.4378

 eigenvalue-minimisations  :    52
 total energy-change (2. order) :-0.8769566E+02  (-0.8763444E+02)
 number of electron      24.0000000 magnetization 
 augmentation part       24.0000000 magnetization 

 Free energy of the ion-electron system (eV)
  ---------------------------------------------------
  alpha Z        PSCENC =         0.03925812
  Ewald energy   TEWEN  =      1513.56575091
  -Hartree energ DENC   =     -2425.68646538
  -exchange      EXHF   =         0.00000000
  -V(xc)+E(xc)   XCENC  =        91.79021812
  PAW double counting   =       917.52283183     -927.46382948
  entropy T*S    EENTRO =        -0.00000000
  eigenvalues    EBANDS =      -413.07421663
  atomic energy  EATOM  =      1209.02182130
  Solvation  Ediel_sol  =         0.00000000
  ---------------------------------------------------
  free energy    TOTEN  =       -34.28463121 eV

  energy without entropy =      -34.28463121  energy(sigma->0) =      -34.28463121


--------------------------------------------------------------------------------------------------------




----------------------------------------- Iteration    1(   4)  ---------------------------------------


     EDDAV:  cpu time   13.3290: real time   13.3630
       DOS:  cpu time    0.0000: real time    0.0000
    --------------------------------------------
      LOOP:  cpu time   13.3307: real time   13.3667

 eigenvalue-minimisations  :    36
 total energy-change (2. order) :-0.1650163E+02  (-0.1650030E+02)
 number of electron      24.0000000 magnetization 
 augmentation part       24.0000000 magnetization 

 Free energy of the ion-electron system (eV)
  ---------------------------------------------------
  alpha Z        PSCENC =         0.03925812
  Ewald energy   TEWEN  =      1513.56575091
  -Hartree energ DENC   =     -2425.68646538
  -exchange      EXHF   =         0.00000000
  -V(xc)+E(xc)   XCENC  =        91.79021812
  PAW double counting   =       917.52283183     -927.46382948
  entropy T*S    EENTRO =        -0.00000000
  eigenvalues    EBANDS =      -429.57585030
  atomic energy  EATOM  =      1209.02182130
  Solvation  Ediel_sol  =         0.00000000
  ---------------------------------------------------
  free energy    TOTEN  =       -50.78626489 eV

  energy without entropy =      -50.78626489  energy(sigma->0) =      -50.78626489


--------------------------------------------------------------------------------------------------------




----------------------------------------- Iteration    1(   5)  ---------------------------------------


     EDDAV:  cpu time   17.2700: real time   17.3140
       DOS:  cpu time    0.0000: real time    0.0000
    CHARGE:  cpu time    3.3502: real time    3.3586
    MIXING:  cpu time    0.6976: real time    0.6993
    --------------------------------------------
      LOOP:  cpu time   21.3191: real time   21.3758

 eigenvalue-minimisations  :    52
 total energy-change (2. order) :-0.4267823E+00  (-0.4266499E+00)
 number of electron      23.9999999 magnetization 
 augmentation part        3.5156227 magnetization 

 Broyden mixing:
  rms(total) = 0.46271E+01    rms(broyden)= 0.46271E+01
  rms(prec ) = 0.46373E+01
  weight for this iteration     100.00

 Free energy of the ion-electron system (eV)
  ---------------------------------------------------
  alpha Z        PSCENC =         0.03925812
  Ewald energy   TEWEN  =      1513.56575091
  -Hartree energ DENC   =     -2425.68646538
  -exchange      EXHF   =         0.00000000
  -V(xc)+E(xc)   XCENC  =        91.79021812
  PAW double counting   =       917.52283183     -927.46382948
  entropy T*S    EENTRO =        -0.00000000
  eigenvalues    EBANDS =      -430.00263261
  atomic energy  EATOM  =      1209.02182130
  Solvation  Ediel_sol  =         0.00000000
  ---------------------------------------------------
  free energy    TOTEN  =       -51.21304720 eV

  energy without entropy =      -51.21304720  energy(sigma->0) =      -51.21304720


--------------------------------------------------------------------------------------------------------




----------------------------------------- Iteration    1(   6)  ---------------------------------------


    POTLOK:  cpu time   30.0555: real time   30.1307
    SETDIJ:  cpu time    0.3613: real time    0.3622
     EDDAV:  cpu time   19.2128: real time   19.2616
       DOS:  cpu time    0.0000: real time    0.0000
    CHARGE:  cpu time    3.2941: real time    3.3024
    MIXING:  cpu time    0.9083: real time    0.9106
    --------------------------------------------
      LOOP:  cpu time   53.8335: real time   53.9708

 eigenvalue-minimisations  :    52
 total energy-change (2. order) : 0.4298159E+01  (-0.1635964E+01)
 number of electron      24.0000000 magnetization 
 augmentation part        3.1019725 magnetization 

 Broyden mixing:
  rms(total) = 0.44528E+01    rms(broyden)= 0.44528E+01
  rms(prec ) = 0.44543E+01
  weight for this iteration     100.00

 eigenvalues of (default mixing * dielectric matrix)
  average eigenvalue GAMMA=   0.8079
  0.8079

 Free energy of the ion-electron system (eV)
  ---------------------------------------------------
  alpha Z        PSCENC =         0.03925812
  Ewald energy   TEWEN  =      1513.56575091
  -Hartree energ DENC   =     -2474.13763826
  -exchange      EXHF   =         0.00000000
  -V(xc)+E(xc)   XCENC  =        94.48197406
  PAW double counting   =      2082.76399405    -2094.62236006
  entropy T*S    EENTRO =        -0.00000000
  eigenvalues    EBANDS =      -378.02768811
  atomic energy  EATOM  =      1209.02182130
  Solvation  Ediel_sol  =         0.00000000
  ---------------------------------------------------
  free energy    TOTEN  =       -46.91488799 eV

  energy without entropy =      -46.91488799  energy(sigma->0) =      -46.91488799


--------------------------------------------------------------------------------------------------------




----------------------------------------- Iteration    1(   7)  ---------------------------------------


    POTLOK:  cpu time   30.8483: real time   30.9254
    SETDIJ:  cpu time    0.3617: real time    0.3627
     EDDAV:  cpu time   21.2118: real time   21.2658
       DOS:  cpu time    0.0000: real time    0.0000
    CHARGE:  cpu time    3.3117: real time    3.3200
    MIXING:  cpu time    0.9138: real time    0.9161
    --------------------------------------------
      LOOP:  cpu time   56.6488: real time   56.7936

 eigenvalue-minimisations  :    60
 total energy-change (2. order) : 0.4576528E+00  (-0.1010220E+00)
 number of electron      23.9999999 magnetization 
 augmentation part        3.0976360 magnetization 

 Broyden mixing:
  rms(total) = 0.28797E+01    rms(broyden)= 0.28797E+01
  rms(prec ) = 0.28807E+01
  weight for this iteration     100.00

 eigenvalues of (default mixing * dielectric matrix)
  average eigenvalue GAMMA=   1.6055
  0.9833  2.2277

 Free energy of the ion-electron system (eV)
  ---------------------------------------------------
  alpha Z        PSCENC =         0.03925812
  Ewald energy   TEWEN  =      1513.56575091
  -Hartree energ DENC   =     -2486.61739174
  -exchange      EXHF   =         0.00000000
  -V(xc)+E(xc)   XCENC  =        95.07768271
  PAW double counting   =      3172.62163024    -3184.49907278
  entropy T*S    EENTRO =        -0.00000000
  eigenvalues    EBANDS =      -365.66691393
  atomic energy  EATOM  =      1209.02182130
  Solvation  Ediel_sol  =         0.00000000
  ---------------------------------------------------
  free energy    TOTEN  =       -46.45723517 eV

  energy without entropy =      -46.45723517  energy(sigma->0) =      -46.45723517


--------------------------------------------------------------------------------------------------------




----------------------------------------- Iteration    1(   8)  ---------------------------------------


    POTLOK:  cpu time   30.8842: real time   30.9614
    SETDIJ:  cpu time    0.3603: real time    0.3612
     EDDAV:  cpu time   18.8628: real time   18.9107
       DOS:  cpu time    0.0000: real time    0.0000
    CHARGE:  cpu time    3.3081: real time    3.3165
    MIXING:  cpu time    0.9377: real time    0.9401
    --------------------------------------------
      LOOP:  cpu time   54.3545: real time   54.4934

 eigenvalue-minimisations  :    51
 total energy-change (2. order) : 0.3348507E+00  (-0.7901661E-01)
 number of electron      23.9999999 magnetization 
 augmentation part        3.0551802 magnetization 

 Broyden mixing:
  rms(total) = 0.39323E+00    rms(broyden)= 0.39323E+00
  rms(prec ) = 0.39397E+00
  weight for this iteration     100.00

 eigenvalues of (default mixing * dielectric matrix)
  average eigenvalue GAMMA=   1.4311
  2.4259  1.0699  0.7974

 Free energy of the ion-electron system (eV)
  ---------------------------------------------------
  alpha Z        PSCENC =         0.03925812
  Ewald energy   TEWEN  =      1513.56575091
  -Hartree energ DENC   =     -2509.34452862
  -exchange      EXHF   =         0.00000000
  -V(xc)+E(xc)   XCENC  =        96.31683970
  PAW double counting   =      6003.86047522    -6015.96993669
  entropy T*S    EENTRO =        -0.00000000
  eigenvalues    EBANDS =      -343.61206438
  atomic energy  EATOM  =      1209.02182130
  Solvation  Ediel_sol  =         0.00000000
  ---------------------------------------------------
  free energy    TOTEN  =       -46.12238444 eV

  energy without entropy =      -46.12238444  energy(sigma->0) =      -46.12238444


--------------------------------------------------------------------------------------------------------




----------------------------------------- Iteration    1(   9)  ---------------------------------------


    POTLOK:  cpu time   30.9039: real time   30.9812
    SETDIJ:  cpu time    0.3630: real time    0.3638
     EDDAV:  cpu time   19.1589: real time   19.2076
       DOS:  cpu time    0.0000: real time    0.0000
    CHARGE:  cpu time    3.3141: real time    3.3225
    MIXING:  cpu time    0.9476: real time    0.9500
    --------------------------------------------
      LOOP:  cpu time   54.6889: real time   54.8289

 eigenvalue-minimisations  :    52
 total energy-change (2. order) : 0.9663168E-02  (-0.1105075E-01)
 number of electron      23.9999999 magnetization 
 augmentation part        3.0622444 magnetization 

 Broyden mixing:
  rms(total) = 0.12407E+00    rms(broyden)= 0.12407E+00
  rms(prec ) = 0.12515E+00
  weight for this iteration     100.00

 eigenvalues of (default mixing * dielectric matrix)
  average eigenvalue GAMMA=   1.3265
  2.5344  1.0505  1.0505  0.6707

 Free energy of the ion-electron system (eV)
  ---------------------------------------------------
  alpha Z        PSCENC =         0.03925812
  Ewald energy   TEWEN  =      1513.56575091
  -Hartree energ DENC   =     -2511.43096631
  -exchange      EXHF   =         0.00000000
  -V(xc)+E(xc)   XCENC  =        96.38151096
  PAW double counting   =      6329.57860743    -6341.63043332
  entropy T*S    EENTRO =        -0.00000000
  eigenvalues    EBANDS =      -341.63827035
  atomic energy  EATOM  =      1209.02182130
  Solvation  Ediel_sol  =         0.00000000
  ---------------------------------------------------
  free energy    TOTEN  =       -46.11272127 eV

  energy without entropy =      -46.11272127  energy(sigma->0) =      -46.11272127


--------------------------------------------------------------------------------------------------------




----------------------------------------- Iteration    1(  10)  ---------------------------------------


    POTLOK:  cpu time   30.9263: real time   31.0047
    SETDIJ:  cpu time    0.3626: real time    0.3635
     EDDAV:  cpu time   14.5877: real time   14.6247
       DOS:  cpu time    0.0000: real time    0.0000
    CHARGE:  cpu time    3.3017: real time    3.3101
    MIXING:  cpu time    0.9885: real time    0.9910
    --------------------------------------------
      LOOP:  cpu time   50.1684: real time   50.2981

 eigenvalue-minimisations  :    36
 total energy-change (2. order) : 0.1851047E-02  (-0.8569629E-03)
 number of electron      23.9999999 magnetization 
 augmentation part        3.0615321 magnetization 

 Broyden mixing:
  rms(total) = 0.91927E-01    rms(broyden)= 0.91927E-01
  rms(prec ) = 0.92866E-01
  weight for this iteration     100.00

 eigenvalues of (default mixing * dielectric matrix)
  average eigenvalue GAMMA=   1.4588
  2.5737  1.4846  1.4846  0.7902  0.9609

 Free energy of the ion-electron system (eV)
  ---------------------------------------------------
  alpha Z        PSCENC =         0.03925812
  Ewald energy   TEWEN  =      1513.56575091
  -Hartree energ DENC   =     -2512.59803425
  -exchange      EXHF   =         0.00000000
  -V(xc)+E(xc)   XCENC  =        96.40085405
  PAW double counting   =      6427.94970428    -6439.96820026
  entropy T*S    EENTRO =        -0.00000000
  eigenvalues    EBANDS =      -340.52202436
  atomic energy  EATOM  =      1209.02182130
  Solvation  Ediel_sol  =         0.00000000
  ---------------------------------------------------
  free energy    TOTEN  =       -46.11087022 eV

  energy without entropy =      -46.11087022  energy(sigma->0) =      -46.11087022


--------------------------------------------------------------------------------------------------------




----------------------------------------- Iteration    1(  11)  ---------------------------------------


    POTLOK:  cpu time   30.9347: real time   31.0119
    SETDIJ:  cpu time    0.3622: real time    0.3631
     EDDAV:  cpu time   14.2111: real time   14.2472
       DOS:  cpu time    0.0000: real time    0.0000
    CHARGE:  cpu time    3.3019: real time    3.3102
    MIXING:  cpu time    1.0093: real time    1.0119
    --------------------------------------------
      LOOP:  cpu time   49.8205: real time   49.9482

 eigenvalue-minimisations  :    34
 total energy-change (2. order) :-0.1754698E-02  (-0.7525118E-03)
 number of electron      23.9999999 magnetization 
 augmentation part        3.0617538 magnetization 

 Broyden mixing:
  rms(total) = 0.31085E-01    rms(broyden)= 0.31085E-01
  rms(prec ) = 0.32362E-01
  weight for this iteration     100.00

 eigenvalues of (default mixing * dielectric matrix)
  average eigenvalue GAMMA=   1.3827
  2.4017  1.8922  1.4016  0.9290  0.8359  0.8359

 Free energy of the ion-electron system (eV)
  ---------------------------------------------------
  alpha Z        PSCENC =         0.03925812
  Ewald energy   TEWEN  =      1513.56575091
  -Hartree energ DENC   =     -2514.12209401
  -exchange      EXHF   =         0.00000000
  -V(xc)+E(xc)   XCENC  =        96.40061502
  PAW double counting   =      6435.97446800    -6447.94304269
  entropy T*S    EENTRO =        -0.00000000
  eigenvalues    EBANDS =      -339.04940157
  atomic energy  EATOM  =      1209.02182130
  Solvation  Ediel_sol  =         0.00000000
  ---------------------------------------------------
  free energy    TOTEN  =       -46.11262492 eV

  energy without entropy =      -46.11262492  energy(sigma->0) =      -46.11262492


--------------------------------------------------------------------------------------------------------




----------------------------------------- Iteration    1(  12)  ---------------------------------------


    POTLOK:  cpu time   30.9627: real time   31.0401
    SETDIJ:  cpu time    0.3623: real time    0.3632
     EDDAV:  cpu time   17.0282: real time   17.0714
       DOS:  cpu time    0.0000: real time    0.0000
    CHARGE:  cpu time    3.3144: real time    3.3228
    MIXING:  cpu time    1.0277: real time    1.0303
    --------------------------------------------
      LOOP:  cpu time   52.6968: real time   52.8315

 eigenvalue-minimisations  :    44
 total energy-change (2. order) :-0.2039456E-02  (-0.1533107E-03)
 number of electron      23.9999999 magnetization 
 augmentation part        3.0621702 magnetization 

 Broyden mixing:
  rms(total) = 0.15572E-01    rms(broyden)= 0.15572E-01
  rms(prec ) = 0.17301E-01
  weight for this iteration     100.00

 eigenvalues of (default mixing * dielectric matrix)
  average eigenvalue GAMMA=   1.3287
  2.2254  2.2254  1.4133  0.9881  0.8418  0.8033  0.8033

 Free energy of the ion-electron system (eV)
  ---------------------------------------------------
  alpha Z        PSCENC =         0.03925812
  Ewald energy   TEWEN  =      1513.56575091
  -Hartree energ DENC   =     -2514.80645671
  -exchange      EXHF   =         0.00000000
  -V(xc)+E(xc)   XCENC  =        96.40113064
  PAW double counting   =      6410.18738017    -6422.14655306
  entropy T*S    EENTRO =        -0.00000000
  eigenvalues    EBANDS =      -338.37699574
  atomic energy  EATOM  =      1209.02182130
  Solvation  Ediel_sol  =         0.00000000
  ---------------------------------------------------
  free energy    TOTEN  =       -46.11466438 eV

  energy without entropy =      -46.11466438  energy(sigma->0) =      -46.11466438


--------------------------------------------------------------------------------------------------------




----------------------------------------- Iteration    1(  13)  ---------------------------------------


    POTLOK:  cpu time   30.9480: real time   31.0254
    SETDIJ:  cpu time    0.3619: real time    0.3629
     EDDAV:  cpu time   16.7873: real time   16.8299
       DOS:  cpu time    0.0000: real time    0.0000
    CHARGE:  cpu time    3.3010: real time    3.3093
    MIXING:  cpu time    1.0623: real time    1.0650
    --------------------------------------------
      LOOP:  cpu time   52.4621: real time   52.5968

 eigenvalue-minimisations  :    44
 total energy-change (2. order) :-0.1969647E-02  (-0.4236214E-04)
 number of electron      23.9999999 magnetization 
 augmentation part        3.0618554 magnetization 

 Broyden mixing:
  rms(total) = 0.12034E-01    rms(broyden)= 0.12034E-01
  rms(prec ) = 0.13631E-01
  weight for this iteration     100.00

 eigenvalues of (default mixing * dielectric matrix)
  average eigenvalue GAMMA=   1.4133
  2.3717  2.3717  1.4198  1.4198  1.0452  0.8197  0.9292  0.9292

 Free energy of the ion-electron system (eV)
  ---------------------------------------------------
  alpha Z        PSCENC =         0.03925812
  Ewald energy   TEWEN  =      1513.56575091
  -Hartree energ DENC   =     -2515.49820995
  -exchange      EXHF   =         0.00000000
  -V(xc)+E(xc)   XCENC  =        96.40923737
  PAW double counting   =      6402.56587222    -6414.52165943
  entropy T*S    EENTRO =        -0.00000000
  eigenvalues    EBANDS =      -337.69870456
  atomic energy  EATOM  =      1209.02182130
  Solvation  Ediel_sol  =         0.00000000
  ---------------------------------------------------
  free energy    TOTEN  =       -46.11663402 eV

  energy without entropy =      -46.11663402  energy(sigma->0) =      -46.11663402


--------------------------------------------------------------------------------------------------------




----------------------------------------- Iteration    1(  14)  ---------------------------------------


    POTLOK:  cpu time   30.9512: real time   31.0286
    SETDIJ:  cpu time    0.3657: real time    0.3666
     EDDAV:  cpu time   17.0417: real time   17.0850
       DOS:  cpu time    0.0000: real time    0.0000
    CHARGE:  cpu time    3.3092: real time    3.3175
    MIXING:  cpu time    1.0841: real time    1.0869
    --------------------------------------------
      LOOP:  cpu time   52.7534: real time   52.8883

 eigenvalue-minimisations  :    44
 total energy-change (2. order) :-0.4202030E-02  (-0.7620495E-04)
 number of electron      23.9999999 magnetization 
 augmentation part        3.0610966 magnetization 

 Broyden mixing:
  rms(total) = 0.58138E-02    rms(broyden)= 0.58138E-02
  rms(prec ) = 0.72706E-02
  weight for this iteration     100.00

 eigenvalues of (default mixing * dielectric matrix)
  average eigenvalue GAMMA=   1.5427
  3.5779  2.4801  1.7734  1.5166  0.9869  0.9869  0.8171  0.8727  0.8727

 Free energy of the ion-electron system (eV)
  ---------------------------------------------------
  alpha Z        PSCENC =         0.03925812
  Ewald energy   TEWEN  =      1513.56575091
  -Hartree energ DENC   =     -2516.74374274
  -exchange      EXHF   =         0.00000000
  -V(xc)+E(xc)   XCENC  =        96.42438546
  PAW double counting   =      6390.34409899    -6402.29674689
  entropy T*S    EENTRO =        -0.00000000
  eigenvalues    EBANDS =      -336.47566120
  atomic energy  EATOM  =      1209.02182130
  Solvation  Ediel_sol  =         0.00000000
  ---------------------------------------------------
  free energy    TOTEN  =       -46.12083605 eV

  energy without entropy =      -46.12083605  energy(sigma->0) =      -46.12083605


--------------------------------------------------------------------------------------------------------




----------------------------------------- Iteration    1(  15)  ---------------------------------------


    POTLOK:  cpu time   30.9836: real time   31.0611
    SETDIJ:  cpu time    0.3621: real time    0.3629
     EDDAV:  cpu time   16.7707: real time   16.8134
       DOS:  cpu time    0.0000: real time    0.0000
    CHARGE:  cpu time    3.3056: real time    3.3140
    MIXING:  cpu time    1.1220: real time    1.1248
    --------------------------------------------
      LOOP:  cpu time   52.5455: real time   52.6805

 eigenvalue-minimisations  :    44
 total energy-change (2. order) :-0.3837471E-02  (-0.8910378E-04)
 number of electron      23.9999999 magnetization 
 augmentation part        3.0607307 magnetization 

 Broyden mixing:
  rms(total) = 0.28031E-02    rms(broyden)= 0.28031E-02
  rms(prec ) = 0.37381E-02
  weight for this iteration     100.00

 eigenvalues of (default mixing * dielectric matrix)
  average eigenvalue GAMMA=   1.6008
  4.5139  2.4428  1.6924  1.6924  1.0926  1.0926  0.9423  0.8000  0.8695  0.8695

 Free energy of the ion-electron system (eV)
  ---------------------------------------------------
  alpha Z        PSCENC =         0.03925812
  Ewald energy   TEWEN  =      1513.56575091
  -Hartree energ DENC   =     -2518.01493682
  -exchange      EXHF   =         0.00000000
  -V(xc)+E(xc)   XCENC  =        96.44034797
  PAW double counting   =      6391.85176812    -6403.80033818
  entropy T*S    EENTRO =        -0.00000000
  eigenvalues    EBANDS =      -335.22834494
  atomic energy  EATOM  =      1209.02182130
  Solvation  Ediel_sol  =         0.00000000
  ---------------------------------------------------
  free energy    TOTEN  =       -46.12467352 eV

  energy without entropy =      -46.12467352  energy(sigma->0) =      -46.12467352


--------------------------------------------------------------------------------------------------------




----------------------------------------- Iteration    1(  16)  ---------------------------------------


    POTLOK:  cpu time   31.0660: real time   31.1437
    SETDIJ:  cpu time    0.3651: real time    0.3660
     EDDAV:  cpu time   19.0519: real time   19.1002
       DOS:  cpu time    0.0000: real time    0.0000
    CHARGE:  cpu time    3.3164: real time    3.3249
    MIXING:  cpu time    1.1626: real time    1.1656
    --------------------------------------------
      LOOP:  cpu time   54.9636: real time   55.1039

 eigenvalue-minimisations  :    52
 total energy-change (2. order) :-0.2394421E-02  (-0.2345752E-04)
 number of electron      23.9999999 magnetization 
 augmentation part        3.0604853 magnetization 

 Broyden mixing:
  rms(total) = 0.28166E-02    rms(broyden)= 0.28166E-02
  rms(prec ) = 0.32626E-02
  weight for this iteration     100.00

 eigenvalues of (default mixing * dielectric matrix)
  average eigenvalue GAMMA=   1.6516
  5.0241  2.5485  1.8842  1.8842  1.3836  1.1348  0.8668  0.8668  0.9088  0.9088
  0.7570

 Free energy of the ion-electron system (eV)
  ---------------------------------------------------
  alpha Z        PSCENC =         0.03925812
  Ewald energy   TEWEN  =      1513.56575091
  -Hartree energ DENC   =     -2518.51203279
  -exchange      EXHF   =         0.00000000
  -V(xc)+E(xc)   XCENC  =        96.44332426
  PAW double counting   =      6390.50035486    -6402.44823210
  entropy T*S    EENTRO =        -0.00000000
  eigenvalues    EBANDS =      -334.73731250
  atomic energy  EATOM  =      1209.02182130
  Solvation  Ediel_sol  =         0.00000000
  ---------------------------------------------------
  free energy    TOTEN  =       -46.12706795 eV

  energy without entropy =      -46.12706795  energy(sigma->0) =      -46.12706795


--------------------------------------------------------------------------------------------------------




----------------------------------------- Iteration    1(  17)  ---------------------------------------


    POTLOK:  cpu time   30.9772: real time   31.0546
    SETDIJ:  cpu time    0.3625: real time    0.3634
     EDDAV:  cpu time   18.4399: real time   18.4868
       DOS:  cpu time    0.0000: real time    0.0000
    CHARGE:  cpu time    3.3092: real time    3.3176
    MIXING:  cpu time    1.1893: real time    1.1923
    --------------------------------------------
      LOOP:  cpu time   54.2797: real time   54.4184

 eigenvalue-minimisations  :    50
 total energy-change (2. order) :-0.2209398E-02  (-0.1278975E-04)
 number of electron      23.9999999 magnetization 
 augmentation part        3.0604796 magnetization 

 Broyden mixing:
  rms(total) = 0.10676E-02    rms(broyden)= 0.10676E-02
  rms(prec ) = 0.15167E-02
  weight for this iteration     100.00

 eigenvalues of (default mixing * dielectric matrix)
  average eigenvalue GAMMA=   1.7059
  5.7328  2.7148  2.3319  1.7046  1.7046  0.8745  0.8745  1.0316  1.0316  0.8569
  0.8569  0.7558

 Free energy of the ion-electron system (eV)
  ---------------------------------------------------
  alpha Z        PSCENC =         0.03925812
  Ewald energy   TEWEN  =      1513.56575091
  -Hartree energ DENC   =     -2518.75524121
  -exchange      EXHF   =         0.00000000
  -V(xc)+E(xc)   XCENC  =        96.44177502
  PAW double counting   =      6389.56527503    -6401.51309085
  entropy T*S    EENTRO =        -0.00000000
  eigenvalues    EBANDS =      -334.49482566
  atomic energy  EATOM  =      1209.02182130
  Solvation  Ediel_sol  =         0.00000000
  ---------------------------------------------------
  free energy    TOTEN  =       -46.12927734 eV

  energy without entropy =      -46.12927734  energy(sigma->0) =      -46.12927734


--------------------------------------------------------------------------------------------------------




----------------------------------------- Iteration    1(  18)  ---------------------------------------


    POTLOK:  cpu time   30.9993: real time   31.0768
    SETDIJ:  cpu time    0.3645: real time    0.3655
     EDDAV:  cpu time   19.0346: real time   19.0829
       DOS:  cpu time    0.0000: real time    0.0000
    CHARGE:  cpu time    3.3041: real time    3.3124
    MIXING:  cpu time    1.2387: real time    1.2419
    --------------------------------------------
      LOOP:  cpu time   54.9428: real time   55.0833

 eigenvalue-minimisations  :    52
 total energy-change (2. order) :-0.1658673E-02  (-0.9297357E-05)
 number of electron      23.9999999 magnetization 
 augmentation part        3.0604138 magnetization 

 Broyden mixing:
  rms(total) = 0.75981E-03    rms(broyden)= 0.75981E-03
  rms(prec ) = 0.99506E-03
  weight for this iteration     100.00

 eigenvalues of (default mixing * dielectric matrix)
  average eigenvalue GAMMA=   1.7621
  6.2860  2.9355  2.4131  1.7885  1.7885  1.2163  1.2163  0.8656  0.8656  0.9885
  0.9885  0.8218  0.7330

 Free energy of the ion-electron system (eV)
  ---------------------------------------------------
  alpha Z        PSCENC =         0.03925812
  Ewald energy   TEWEN  =      1513.56575091
  -Hartree energ DENC   =     -2518.93917012
  -exchange      EXHF   =         0.00000000
  -V(xc)+E(xc)   XCENC  =        96.44076259
  PAW double counting   =      6389.71633311    -6401.66417586
  entropy T*S    EENTRO =        -0.00000000
  eigenvalues    EBANDS =      -334.31151606
  atomic energy  EATOM  =      1209.02182130
  Solvation  Ediel_sol  =         0.00000000
  ---------------------------------------------------
  free energy    TOTEN  =       -46.13093602 eV

  energy without entropy =      -46.13093602  energy(sigma->0) =      -46.13093602


--------------------------------------------------------------------------------------------------------




----------------------------------------- Iteration    1(  19)  ---------------------------------------


    POTLOK:  cpu time   30.9678: real time   31.0451
    SETDIJ:  cpu time    0.3629: real time    0.3638
     EDDAV:  cpu time   14.5941: real time   14.6311
       DOS:  cpu time    0.0000: real time    0.0000
    CHARGE:  cpu time    3.3063: real time    3.3147
    MIXING:  cpu time    1.2695: real time    1.2727
    --------------------------------------------
      LOOP:  cpu time   50.5022: real time   50.6311

 eigenvalue-minimisations  :    36
 total energy-change (2. order) :-0.1055832E-02  (-0.4565819E-05)
 number of electron      23.9999999 magnetization 
 augmentation part        3.0603837 magnetization 

 Broyden mixing:
  rms(total) = 0.43422E-03    rms(broyden)= 0.43422E-03
  rms(prec ) = 0.57793E-03
  weight for this iteration     100.00

 eigenvalues of (default mixing * dielectric matrix)
  average eigenvalue GAMMA=   1.8767
  7.5348  3.3901  2.5579  1.9895  1.9895  1.5155  0.8692  0.8692  1.0126  1.0126
  0.9922  0.9922  0.8185  0.7304

 Free energy of the ion-electron system (eV)
  ---------------------------------------------------
  alpha Z        PSCENC =         0.03925812
  Ewald energy   TEWEN  =      1513.56575091
  -Hartree energ DENC   =     -2519.01108546
  -exchange      EXHF   =         0.00000000
  -V(xc)+E(xc)   XCENC  =        96.43933663
  PAW double counting   =      6389.59527258    -6401.54298279
  entropy T*S    EENTRO =        -0.00000000
  eigenvalues    EBANDS =      -334.23936314
  atomic energy  EATOM  =      1209.02182130
  Solvation  Ediel_sol  =         0.00000000
  ---------------------------------------------------
  free energy    TOTEN  =       -46.13199185 eV

  energy without entropy =      -46.13199185  energy(sigma->0) =      -46.13199185


--------------------------------------------------------------------------------------------------------




----------------------------------------- Iteration    1(  20)  ---------------------------------------


    POTLOK:  cpu time   30.9606: real time   31.0381
    SETDIJ:  cpu time    0.3632: real time    0.3641
     EDDAV:  cpu time   19.0461: real time   19.0944
       DOS:  cpu time    0.0000: real time    0.0000
    CHARGE:  cpu time    3.3096: real time    3.3180
    MIXING:  cpu time    1.3098: real time    1.3131
    --------------------------------------------
      LOOP:  cpu time   54.9909: real time   55.1314

 eigenvalue-minimisations  :    52
 total energy-change (2. order) :-0.5817066E-03  (-0.2317673E-05)
 number of electron      23.9999999 magnetization 
 augmentation part        3.0603498 magnetization 

 Broyden mixing:
  rms(total) = 0.36014E-03    rms(broyden)= 0.36014E-03
  rms(prec ) = 0.42506E-03
  weight for this iteration     100.00

 eigenvalues of (default mixing * dielectric matrix)
  average eigenvalue GAMMA=   1.9338
  8.0064  4.0527  2.5173  2.5173  1.6788  1.6788  1.1724  1.1724  0.8663  0.8663
  0.9957  0.9957  0.9405  0.8144  0.7320

 Free energy of the ion-electron system (eV)
  ---------------------------------------------------
  alpha Z        PSCENC =         0.03925812
  Ewald energy   TEWEN  =      1513.56575091
  -Hartree energ DENC   =     -2519.05541089
  -exchange      EXHF   =         0.00000000
  -V(xc)+E(xc)   XCENC  =        96.43847712
  PAW double counting   =      6389.34783021    -6401.29533705
  entropy T*S    EENTRO =        -0.00000000
  eigenvalues    EBANDS =      -334.19496327
  atomic energy  EATOM  =      1209.02182130
  Solvation  Ediel_sol  =         0.00000000
  ---------------------------------------------------
  free energy    TOTEN  =       -46.13257356 eV

  energy without entropy =      -46.13257356  energy(sigma->0) =      -46.13257356


--------------------------------------------------------------------------------------------------------




----------------------------------------- Iteration    1(  21)  ---------------------------------------


    POTLOK:  cpu time   30.9318: real time   31.0091
    SETDIJ:  cpu time    0.3620: real time    0.3629
     EDDAV:  cpu time   18.4601: real time   18.5070
       DOS:  cpu time    0.0000: real time    0.0000
    CHARGE:  cpu time    3.3075: real time    3.3158
    MIXING:  cpu time    1.3653: real time    1.3688
    --------------------------------------------
      LOOP:  cpu time   54.4284: real time   54.5671

 eigenvalue-minimisations  :    50
 total energy-change (2. order) :-0.3517530E-03  (-0.1190690E-05)
 number of electron      23.9999999 magnetization 
 augmentation part        3.0603794 magnetization 

 Broyden mixing:
  rms(total) = 0.20979E-03    rms(broyden)= 0.20979E-03
  rms(prec ) = 0.24414E-03
  weight for this iteration     100.00

 eigenvalues of (default mixing * dielectric matrix)
  average eigenvalue GAMMA=   2.0367
  8.5624  4.8388  2.6400  2.5217  2.5217  1.6484  1.6484  0.8676  0.8676  1.0406
  1.0406  0.9884  0.9884  0.8610  0.8235  0.7285

 Free energy of the ion-electron system (eV)
  ---------------------------------------------------
  alpha Z        PSCENC =         0.03925812
  Ewald energy   TEWEN  =      1513.56575091
  -Hartree energ DENC   =     -2519.04548493
  -exchange      EXHF   =         0.00000000
  -V(xc)+E(xc)   XCENC  =        96.43723047
  PAW double counting   =      6389.06458975    -6401.01190386
  entropy T*S    EENTRO =        -0.00000000
  eigenvalues    EBANDS =      -334.20418707
  atomic energy  EATOM  =      1209.02182130
  Solvation  Ediel_sol  =         0.00000000
  ---------------------------------------------------
  free energy    TOTEN  =       -46.13292531 eV

  energy without entropy =      -46.13292531  energy(sigma->0) =      -46.13292531


--------------------------------------------------------------------------------------------------------




----------------------------------------- Iteration    1(  22)  ---------------------------------------


    POTLOK:  cpu time   30.9047: real time   30.9820
    SETDIJ:  cpu time    0.3627: real time    0.3636
     EDDAV:  cpu time   19.2699: real time   19.3187
       DOS:  cpu time    0.0000: real time    0.0000
    CHARGE:  cpu time    3.3135: real time    3.3219
    MIXING:  cpu time    1.3950: real time    1.3986
    --------------------------------------------
      LOOP:  cpu time   55.2473: real time   55.3883

 eigenvalue-minimisations  :    52
 total energy-change (2. order) :-0.1886124E-03  (-0.4195739E-06)
 number of electron      23.9999999 magnetization 
 augmentation part        3.0603676 magnetization 

 Broyden mixing:
  rms(total) = 0.11149E-03    rms(broyden)= 0.11149E-03
  rms(prec ) = 0.12821E-03
  weight for this iteration     100.00

 eigenvalues of (default mixing * dielectric matrix)
  average eigenvalue GAMMA=   2.0291
  8.6097  5.3211  3.1229  2.3878  2.3878  1.6643  1.6643  1.1267  1.1267  0.8681
  0.8681  0.9479  0.9479  0.9520  0.9520  0.8218  0.7252

 Free energy of the ion-electron system (eV)
  ---------------------------------------------------
  alpha Z        PSCENC =         0.03925812
  Ewald energy   TEWEN  =      1513.56575091
  -Hartree energ DENC   =     -2519.04737865
  -exchange      EXHF   =         0.00000000
  -V(xc)+E(xc)   XCENC  =        96.43696099
  PAW double counting   =      6389.16042292    -6401.10787179
  entropy T*S    EENTRO =        -0.00000000
  eigenvalues    EBANDS =      -334.20207772
  atomic energy  EATOM  =      1209.02182130
  Solvation  Ediel_sol  =         0.00000000
  ---------------------------------------------------
  free energy    TOTEN  =       -46.13311392 eV

  energy without entropy =      -46.13311392  energy(sigma->0) =      -46.13311392


--------------------------------------------------------------------------------------------------------




----------------------------------------- Iteration    1(  23)  ---------------------------------------


    POTLOK:  cpu time   30.8912: real time   30.9684
    SETDIJ:  cpu time    0.3670: real time    0.3679
     EDDAV:  cpu time   18.7015: real time   18.7490
       DOS:  cpu time    0.0000: real time    0.0000
    CHARGE:  cpu time    3.3179: real time    3.3263
    MIXING:  cpu time    1.4384: real time    1.4421
    --------------------------------------------
      LOOP:  cpu time   54.7176: real time   54.8573

 eigenvalue-minimisations  :    50
 total energy-change (2. order) :-0.5822312E-04  (-0.5808917E-07)
 number of electron      23.9999999 magnetization 
 augmentation part        3.0603643 magnetization 

 Broyden mixing:
  rms(total) = 0.89942E-04    rms(broyden)= 0.89942E-04
  rms(prec ) = 0.99169E-04
  weight for this iteration     100.00

 eigenvalues of (default mixing * dielectric matrix)
  average eigenvalue GAMMA=   2.0363
  8.8302  5.5577  3.2782  2.5203  2.0327  2.0327  1.5975  1.5975  1.0633  1.0633
  0.8677  0.8677  0.9953  0.9953  0.9072  0.9072  0.8131  0.7272

 Free energy of the ion-electron system (eV)
  ---------------------------------------------------
  alpha Z        PSCENC =         0.03925812
  Ewald energy   TEWEN  =      1513.56575091
  -Hartree energ DENC   =     -2519.04724839
  -exchange      EXHF   =         0.00000000
  -V(xc)+E(xc)   XCENC  =        96.43686928
  PAW double counting   =      6389.16799332    -6401.11543324
  entropy T*S    EENTRO =        -0.00000000
  eigenvalues    EBANDS =      -334.20218344
  atomic energy  EATOM  =      1209.02182130
  Solvation  Ediel_sol  =         0.00000000
  ---------------------------------------------------
  free energy    TOTEN  =       -46.13317214 eV

  energy without entropy =      -46.13317214  energy(sigma->0) =      -46.13317214


--------------------------------------------------------------------------------------------------------




----------------------------------------- Iteration    1(  24)  ---------------------------------------


    POTLOK:  cpu time   30.8130: real time   30.8900
    SETDIJ:  cpu time    0.3672: real time    0.3681
     EDDAV:  cpu time   12.5554: real time   12.5874
       DOS:  cpu time    0.0000: real time    0.0000
    CHARGE:  cpu time    3.3043: real time    3.3126
    MIXING:  cpu time    1.4955: real time    1.4992
    --------------------------------------------
      LOOP:  cpu time   48.5370: real time   48.6611

 eigenvalue-minimisations  :    28
 total energy-change (2. order) :-0.3969981E-04  (-0.1337296E-07)
 number of electron      23.9999999 magnetization 
 augmentation part        3.0603683 magnetization 

 Broyden mixing:
  rms(total) = 0.38949E-04    rms(broyden)= 0.38949E-04
  rms(prec ) = 0.46105E-04
  weight for this iteration     100.00

 eigenvalues of (default mixing * dielectric matrix)
  average eigenvalue GAMMA=   2.1122
  9.1419  6.1522  3.9568  2.6649  2.3323  2.1266  1.6560  1.6560  1.1020  1.1020
  0.8677  0.8677  1.0658  1.0658  0.9656  0.9656  0.8962  0.8194  0.7275

 Free energy of the ion-electron system (eV)
  ---------------------------------------------------
  alpha Z        PSCENC =         0.03925812
  Ewald energy   TEWEN  =      1513.56575091
  -Hartree energ DENC   =     -2519.04976809
  -exchange      EXHF   =         0.00000000
  -V(xc)+E(xc)   XCENC  =        96.43682017
  PAW double counting   =      6389.11072626    -6401.05814116
  entropy T*S    EENTRO =        -0.00000000
  eigenvalues    EBANDS =      -334.19967936
  atomic energy  EATOM  =      1209.02182130
  Solvation  Ediel_sol  =         0.00000000
  ---------------------------------------------------
  free energy    TOTEN  =       -46.13321184 eV

  energy without entropy =      -46.13321184  energy(sigma->0) =      -46.13321184


--------------------------------------------------------------------------------------------------------




----------------------------------------- Iteration    1(  25)  ---------------------------------------


    POTLOK:  cpu time   30.8039: real time   30.8810
    SETDIJ:  cpu time    0.3622: real time    0.3631
     EDDAV:  cpu time   14.0447: real time   14.0805
       DOS:  cpu time    0.0000: real time    0.0000
    CHARGE:  cpu time    3.3023: real time    3.3106
    MIXING:  cpu time    1.5548: real time    1.5587
    --------------------------------------------
      LOOP:  cpu time   50.0694: real time   50.1976

 eigenvalue-minimisations  :    34
 total energy-change (2. order) :-0.2311014E-04  (-0.1267494E-07)
 number of electron      23.9999999 magnetization 
 augmentation part        3.0603657 magnetization 

 Broyden mixing:
  rms(total) = 0.34036E-04    rms(broyden)= 0.34036E-04
  rms(prec ) = 0.36390E-04
  weight for this iteration     100.00

 eigenvalues of (default mixing * dielectric matrix)
  average eigenvalue GAMMA=   2.0658
  9.2207  6.1750  4.1264  2.5601  2.5601  2.3262  1.6628  1.6628  1.0898  1.0898
  0.8673  0.8673  1.0182  1.0182  0.9859  0.9859  0.8696  0.8242  0.7331  0.6724

 Free energy of the ion-electron system (eV)
  ---------------------------------------------------
  alpha Z        PSCENC =         0.03925812
  Ewald energy   TEWEN  =      1513.56575091
  -Hartree energ DENC   =     -2519.05236245
  -exchange      EXHF   =         0.00000000
  -V(xc)+E(xc)   XCENC  =        96.43683769
  PAW double counting   =      6389.08321596    -6401.03064930
  entropy T*S    EENTRO =        -0.00000000
  eigenvalues    EBANDS =      -334.19710717
  atomic energy  EATOM  =      1209.02182130
  Solvation  Ediel_sol  =         0.00000000
  ---------------------------------------------------
  free energy    TOTEN  =       -46.13323495 eV

  energy without entropy =      -46.13323495  energy(sigma->0) =      -46.13323495


--------------------------------------------------------------------------------------------------------




----------------------------------------- Iteration    1(  26)  ---------------------------------------


    POTLOK:  cpu time   30.8159: real time   30.8929
    SETDIJ:  cpu time    0.3616: real time    0.3625
     EDDAV:  cpu time   16.8508: real time   16.8937
       DOS:  cpu time    0.0000: real time    0.0000
    CHARGE:  cpu time    3.3118: real time    3.3202
    MIXING:  cpu time    1.5957: real time    1.5997
    --------------------------------------------
      LOOP:  cpu time   52.9374: real time   53.0727

 eigenvalue-minimisations  :    44
 total energy-change (2. order) :-0.4728113E-05  (-0.1426267E-08)
 number of electron      23.9999999 magnetization 
 augmentation part        3.0603680 magnetization 

 Broyden mixing:
  rms(total) = 0.24882E-04    rms(broyden)= 0.24882E-04
  rms(prec ) = 0.26907E-04
  weight for this iteration     100.00

 eigenvalues of (default mixing * dielectric matrix)
  average eigenvalue GAMMA=   2.0583
  9.1410  6.5163  4.1173  2.7008  2.5366  2.0221  2.0221  1.6575  1.6575  1.0721
  1.0721  0.8677  0.8677  0.9551  0.9551  1.0122  1.0122  0.9136  0.8221  0.7285
  0.5748

 Free energy of the ion-electron system (eV)
  ---------------------------------------------------
  alpha Z        PSCENC =         0.03925812
  Ewald energy   TEWEN  =      1513.56575091
  -Hartree energ DENC   =     -2519.05290482
  -exchange      EXHF   =         0.00000000
  -V(xc)+E(xc)   XCENC  =        96.43683924
  PAW double counting   =      6389.11821512    -6401.06564068
  entropy T*S    EENTRO =        -0.00000000
  eigenvalues    EBANDS =      -334.19657887
  atomic energy  EATOM  =      1209.02182130
  Solvation  Ediel_sol  =         0.00000000
  ---------------------------------------------------
  free energy    TOTEN  =       -46.13323968 eV

  energy without entropy =      -46.13323968  energy(sigma->0) =      -46.13323968


--------------------------------------------------------------------------------------------------------




----------------------------------------- Iteration    1(  27)  ---------------------------------------


    POTLOK:  cpu time   30.8232: real time   30.9004
    SETDIJ:  cpu time    0.3625: real time    0.3634
     EDDAV:  cpu time   11.8357: real time   11.8658
       DOS:  cpu time    0.0000: real time    0.0000
    CHARGE:  cpu time    3.2984: real time    3.3067
    MIXING:  cpu time    1.6583: real time    1.6625
    --------------------------------------------
      LOOP:  cpu time   47.9795: real time   48.1028

 eigenvalue-minimisations  :    26
 total energy-change (2. order) :-0.6180692E-05  (-0.1250831E-08)
 number of electron      23.9999999 magnetization 
 augmentation part        3.0603656 magnetization 

 Broyden mixing:
  rms(total) = 0.10960E-04    rms(broyden)= 0.10960E-04
  rms(prec ) = 0.12780E-04
  weight for this iteration     100.00

 eigenvalues of (default mixing * dielectric matrix)
  average eigenvalue GAMMA=   2.0933
  9.3702  6.6742  4.7126  3.1107  2.4459  2.4459  1.9044  1.6877  1.6877  1.0985
  1.0985  1.1611  1.1611  0.8677  0.8677  0.9677  0.9677  0.8828  0.8828  0.8184
  0.7275  0.5118

 Free energy of the ion-electron system (eV)
  ---------------------------------------------------
  alpha Z        PSCENC =         0.03925812
  Ewald energy   TEWEN  =      1513.56575091
  -Hartree energ DENC   =     -2519.05291710
  -exchange      EXHF   =         0.00000000
  -V(xc)+E(xc)   XCENC  =        96.43683549
  PAW double counting   =      6389.11642329    -6401.06385796
  entropy T*S    EENTRO =        -0.00000000
  eigenvalues    EBANDS =      -334.19655991
  atomic energy  EATOM  =      1209.02182130
  Solvation  Ediel_sol  =         0.00000000
  ---------------------------------------------------
  free energy    TOTEN  =       -46.13324586 eV

  energy without entropy =      -46.13324586  energy(sigma->0) =      -46.13324586


--------------------------------------------------------------------------------------------------------




----------------------------------------- Iteration    1(  28)  ---------------------------------------


    POTLOK:  cpu time   30.8334: real time   30.9104
    SETDIJ:  cpu time    0.3621: real time    0.3630
     EDDAV:  cpu time   11.8446: real time   11.8747
       DOS:  cpu time    0.0000: real time    0.0000
    CHARGE:  cpu time    3.3158: real time    3.3242
    MIXING:  cpu time    1.7020: real time    1.7063
    --------------------------------------------
      LOOP:  cpu time   48.0594: real time   48.1826

 eigenvalue-minimisations  :    26
 total energy-change (2. order) :-0.3784337E-05  (-0.1347885E-08)
 number of electron      23.9999999 magnetization 
 augmentation part        3.0603678 magnetization 

 Broyden mixing:
  rms(total) = 0.13171E-04    rms(broyden)= 0.13171E-04
  rms(prec ) = 0.13705E-04
  weight for this iteration     100.00

 eigenvalues of (default mixing * dielectric matrix)
  average eigenvalue GAMMA=   2.0890
  9.4706  6.8290  4.9571  3.2597  2.6151  2.2988  2.2988  1.6687  1.6687  1.0923
  1.0923  1.1594  1.1594  0.8678  0.8678  1.0068  1.0068  0.9072  0.9072  0.7274
  0.8191  0.8996  0.4685

 Free energy of the ion-electron system (eV)
  ---------------------------------------------------
  alpha Z        PSCENC =         0.03925812
  Ewald energy   TEWEN  =      1513.56575091
  -Hartree energ DENC   =     -2519.05361207
  -exchange      EXHF   =         0.00000000
  -V(xc)+E(xc)   XCENC  =        96.43683713
  PAW double counting   =      6389.11129813    -6401.05872474
  entropy T*S    EENTRO =        -0.00000000
  eigenvalues    EBANDS =      -334.19587843
  atomic energy  EATOM  =      1209.02182130
  Solvation  Ediel_sol  =         0.00000000
  ---------------------------------------------------
  free energy    TOTEN  =       -46.13324965 eV

  energy without entropy =      -46.13324965  energy(sigma->0) =      -46.13324965


--------------------------------------------------------------------------------------------------------




----------------------------------------- Iteration    1(  29)  ---------------------------------------


    POTLOK:  cpu time   30.8529: real time   30.9301
    SETDIJ:  cpu time    0.3653: real time    0.3662
     EDDAV:  cpu time   12.3895: real time   12.4210
       DOS:  cpu time    0.0000: real time    0.0000
    CHARGE:  cpu time    3.3018: real time    3.3102
    MIXING:  cpu time    1.7685: real time    1.7729
    --------------------------------------------
      LOOP:  cpu time   48.6795: real time   48.8044

 eigenvalue-minimisations  :    28
 total energy-change (2. order) :-0.1523819E-05  (-0.6924452E-09)
 number of electron      23.9999999 magnetization 
 augmentation part        3.0603662 magnetization 

 Broyden mixing:
  rms(total) = 0.58046E-05    rms(broyden)= 0.58046E-05
  rms(prec ) = 0.63316E-05
  weight for this iteration     100.00

 eigenvalues of (default mixing * dielectric matrix)
  average eigenvalue GAMMA=   2.1128
  9.5048  7.1673  5.2683  3.7016  2.5130  2.5130  2.0502  2.0502  1.6550  1.6550
  1.0832  1.0832  0.8677  0.8677  1.0842  1.0842  0.9698  0.9698  0.9061  0.9061
  0.7270  0.8156  0.7990  0.4643

 Free energy of the ion-electron system (eV)
  ---------------------------------------------------
  alpha Z        PSCENC =         0.03925812
  Ewald energy   TEWEN  =      1513.56575091
  -Hartree energ DENC   =     -2519.05377958
  -exchange      EXHF   =         0.00000000
  -V(xc)+E(xc)   XCENC  =        96.43683960
  PAW double counting   =      6389.11045638    -6401.05788473
  entropy T*S    EENTRO =        -0.00000000
  eigenvalues    EBANDS =      -334.19571316
  atomic energy  EATOM  =      1209.02182130
  Solvation  Ediel_sol  =         0.00000000
  ---------------------------------------------------
  free energy    TOTEN  =       -46.13325117 eV

  energy without entropy =      -46.13325117  energy(sigma->0) =      -46.13325117


--------------------------------------------------------------------------------------------------------




[...]
  entropy T*S    EENTRO =        -0.00000000
  eigenvalues    EBANDS =      -334.19575016
  atomic energy  EATOM  =      1209.02182130
  Solvation  Ediel_sol  =         0.00000000
  ---------------------------------------------------
  free energy    TOTEN  =       -46.13325217 eV

  energy without entropy =      -46.13325217  energy(sigma->0) =      -46.13325217


--------------------------------------------------------------------------------------------------------




----------------------------------------- Iteration    1(  31)  ---------------------------------------


    POTLOK:  cpu time   30.8600: real time   30.9372
    SETDIJ:  cpu time    0.3651: real time    0.3660
     EDDAV:  cpu time   16.2623: real time   16.3037
       DOS:  cpu time    0.0000: real time    0.0000
    CHARGE:  cpu time    3.3140: real time    3.3224
    MIXING:  cpu time    1.8866: real time    1.8914
    --------------------------------------------
      LOOP:  cpu time   52.6896: real time   52.8245

 eigenvalue-minimisations  :    42
 total energy-change (2. order) :-0.5018110E-06  (-0.4429168E-09)
 number of electron      23.9999999 magnetization 
 augmentation part        3.0603666 magnetization 

 Broyden mixing:
  rms(total) = 0.37637E-05    rms(broyden)= 0.37637E-05
  rms(prec ) = 0.38833E-05
  weight for this iteration     100.00

 eigenvalues of (default mixing * dielectric matrix)
  average eigenvalue GAMMA=   2.0973
  9.6158  7.3879  5.6213  3.9680  2.8755  2.6215  2.3685  1.7773  1.6812  1.6812
  1.6287  1.0848  1.0848  0.8677  0.8677  1.0856  1.0097  1.0097  0.9467  0.9467
  0.9069  0.8651  0.8193  0.7274  0.6248  0.4544

 Free energy of the ion-electron system (eV)
  ---------------------------------------------------
  alpha Z        PSCENC =         0.03925812
  Ewald energy   TEWEN  =      1513.56575091
  -Hartree energ DENC   =     -2519.05377203
  -exchange      EXHF   =         0.00000000
  -V(xc)+E(xc)   XCENC  =        96.43683597
  PAW double counting   =      6389.10891091    -6401.05633947
  entropy T*S    EENTRO =        -0.00000000
  eigenvalues    EBANDS =      -334.19571839
  atomic energy  EATOM  =      1209.02182130
  Solvation  Ediel_sol  =         0.00000000
  ---------------------------------------------------
  free energy    TOTEN  =       -46.13325267 eV

  energy without entropy =      -46.13325267  energy(sigma->0) =      -46.13325267


--------------------------------------------------------------------------------------------------------




----------------------------------------- Iteration    1(  32)  ---------------------------------------


    POTLOK:  cpu time   30.8188: real time   30.8964
    SETDIJ:  cpu time    0.3611: real time    0.3619
     EDDAV:  cpu time   12.3944: real time   12.4259
       DOS:  cpu time    0.0000: real time    0.0000
    CHARGE:  cpu time    3.3055: real time    3.3139
    MIXING:  cpu time    1.9456: real time    1.9505
    --------------------------------------------
      LOOP:  cpu time   48.8270: real time   48.9524

 eigenvalue-minimisations  :    28
 total energy-change (2. order) :-0.2673778E-06  (-0.3455849E-09)
 number of electron      23.9999999 magnetization 
 augmentation part        3.0603671 magnetization 

 Broyden mixing:
  rms(total) = 0.22337E-05    rms(broyden)= 0.22337E-05
  rms(prec ) = 0.23241E-05
  weight for this iteration     100.00

 eigenvalues of (default mixing * dielectric matrix)
  average eigenvalue GAMMA=   2.1127
  9.6127  7.5832  5.8472  4.3138  3.1244  2.6220  2.3401  1.9287  1.9287  1.6850
  1.6850  1.1027  1.1027  1.1651  1.1651  0.8677  0.8677  0.9572  0.9572  0.9491
  0.9491  0.8496  0.8496  0.8159  0.7273  0.5930  0.4532

 Free energy of the ion-electron system (eV)
  ---------------------------------------------------
  alpha Z        PSCENC =         0.03925812
  Ewald energy   TEWEN  =      1513.56575091
  -Hartree energ DENC   =     -2519.05373859
  -exchange      EXHF   =         0.00000000
  -V(xc)+E(xc)   XCENC  =        96.43683446
  PAW double counting   =      6389.10630989    -6401.05373898
  entropy T*S    EENTRO =        -0.00000000
  eigenvalues    EBANDS =      -334.19575004
  atomic energy  EATOM  =      1209.02182130
  Solvation  Ediel_sol  =         0.00000000
  ---------------------------------------------------
  free energy    TOTEN  =       -46.13325294 eV

  energy without entropy =      -46.13325294  energy(sigma->0) =      -46.13325294


--------------------------------------------------------------------------------------------------------




----------------------------------------- Iteration    1(  33)  ---------------------------------------


    POTLOK:  cpu time   30.7804: real time   30.8572
    SETDIJ:  cpu time    0.3617: real time    0.3626
     EDDAV:  cpu time   11.8316: real time   11.8617
       DOS:  cpu time    0.0000: real time    0.0000
    CHARGE:  cpu time    3.3057: real time    3.3141
    MIXING:  cpu time    2.0167: real time    2.0218
    --------------------------------------------
      LOOP:  cpu time   48.2977: real time   48.4215

 eigenvalue-minimisations  :    26
 total energy-change (2. order) :-0.1816006E-06  (-0.3013536E-09)
 number of electron      23.9999999 magnetization 
 augmentation part        3.0603668 magnetization 

 Broyden mixing:
  rms(total) = 0.33049E-05    rms(broyden)= 0.33049E-05
  rms(prec ) = 0.33288E-05
  weight for this iteration     100.00

 eigenvalues of (default mixing * dielectric matrix)
  average eigenvalue GAMMA=   2.1199
  9.6083  7.8506  6.0705  4.6300  3.1996  2.7780  2.4494  2.0139  2.0139  1.6832
  1.6832  1.2501  1.2501  1.0932  1.0932  0.8677  0.8677  0.9975  0.9975  0.8930
  0.8930  0.9273  0.9273  0.8150  0.7272  0.7739  0.5519  0.4512

 Free energy of the ion-electron system (eV)
  ---------------------------------------------------
  alpha Z        PSCENC =         0.03925812
  Ewald energy   TEWEN  =      1513.56575091
  -Hartree energ DENC   =     -2519.05372025
  -exchange      EXHF   =         0.00000000
  -V(xc)+E(xc)   XCENC  =        96.43683344
  PAW double counting   =      6389.10596093    -6401.05338967
  entropy T*S    EENTRO =        -0.00000000
  eigenvalues    EBANDS =      -334.19576790
  atomic energy  EATOM  =      1209.02182130
  Solvation  Ediel_sol  =         0.00000000
  ---------------------------------------------------
  free energy    TOTEN  =       -46.13325312 eV

  energy without entropy =      -46.13325312  energy(sigma->0) =      -46.13325312


--------------------------------------------------------------------------------------------------------




----------------------------------------- Iteration    1(  34)  ---------------------------------------


    POTLOK:  cpu time   30.7526: real time   30.8295
    SETDIJ:  cpu time    0.3627: real time    0.3636
     EDDAV:  cpu time   11.9233: real time   11.9539
       DOS:  cpu time    0.0000: real time    0.0000
    --------------------------------------------
      LOOP:  cpu time   43.0400: real time   43.1510

 eigenvalue-minimisations  :    26
 total energy-change (2. order) :-0.7632843E-07  (-0.2616591E-09)
 number of electron      23.9999999 magnetization 
 augmentation part        3.0603668 magnetization 

 Free energy of the ion-electron system (eV)
  ---------------------------------------------------
  alpha Z        PSCENC =         0.03925812
  Ewald energy   TEWEN  =      1513.56575091
  -Hartree energ DENC   =     -2519.05372605
  -exchange      EXHF   =         0.00000000
  -V(xc)+E(xc)   XCENC  =        96.43683364
  PAW double counting   =      6389.10683452    -6401.05426362
  entropy T*S    EENTRO =        -0.00000000
  eigenvalues    EBANDS =      -334.19576202
  atomic energy  EATOM  =      1209.02182130
  Solvation  Ediel_sol  =         0.00000000
  ---------------------------------------------------
  free energy    TOTEN  =       -46.13325320 eV

  energy without entropy =      -46.13325320  energy(sigma->0) =      -46.13325320


--------------------------------------------------------------------------------------------------------




 average (electrostatic) potential at core
  the test charge radii are     0.8471  0.8742  0.6256
  (the norm of the test charge is              1.0000)
       1 -86.8768       2 -83.7697       3 -90.2433       4 -92.3318       5 -42.0450
       6 -38.8076       7 -39.0064       8 -39.0059
 
 
 
 E-fermi :  -6.3380     XC(G=0):  -0.0374     alpha+bet : -0.0114


 k-point     1 :       0.0000    0.0000    0.0000
  band No.  band energies     occupation 
      1     -28.1878      2.00000
      2     -25.5596      2.00000
      3     -18.9800      2.00000
      4     -15.5919      2.00000
      5     -11.9987      2.00000
      6     -11.7586      2.00000
      7     -11.6528      2.00000
      8     -10.1319      2.00000
      9      -9.6805      2.00000
     10      -9.3171      2.00000
     11      -7.8423      2.00000
     12      -6.3967      2.00000
     13      -1.1849      0.00000
     14      -0.8343      0.00000
     15      -0.1945      0.00000
     16       0.0067      0.00000
     17       0.1059      0.00000


--------------------------------------------------------------------------------------------------------


 soft charge-density along one line, spin component           1
         0         1         2         3         4         5         6         7         8         9
 total charge-density along one line
 
 pseudopotential strength for first ion, spin component:           1
 20.117  23.679  -0.006  -0.001  -0.006  -0.008  -0.001  -0.011
 23.679  27.876  -0.007  -0.001  -0.007  -0.010  -0.002  -0.013
 -0.006  -0.007  -3.370  -0.025  -0.028  -4.172  -0.034  -0.038
 -0.001  -0.001  -0.025  -3.238  -0.005  -0.034  -3.993  -0.007
 -0.006  -0.007  -0.028  -0.005  -3.305  -0.038  -0.007  -4.084
 -0.008  -0.010  -4.172  -0.034  -0.038  -5.092  -0.046  -0.052
 -0.001  -0.002  -0.034  -3.993  -0.007  -0.046  -4.851  -0.009
 -0.011  -0.013  -0.038  -0.007  -4.084  -0.052  -0.009  -4.974
 total augmentation occupancy for first ion, spin component:           1
 23.767 -16.296   1.134   0.179   4.797  -0.881  -0.142  -3.327
-16.296  11.607  -0.726  -0.110  -3.800   0.617   0.098   2.585
  1.134  -0.726  18.034   2.416   1.609 -10.586  -1.543  -1.027
  0.179  -0.110   2.416   5.470   0.250  -1.543  -2.564  -0.161
  4.797  -3.800   1.609   0.250  12.635  -1.018  -0.160  -6.816
 -0.881   0.617 -10.586  -1.543  -1.018   6.313   0.979   0.670
 -0.142   0.098  -1.543  -2.564  -0.160   0.979   1.224   0.107
 -3.327   2.585  -1.027  -0.161  -6.816   0.670   0.107   3.770


------------------------ aborting loop because EDIFF is reached ----------------------------------------


    CHARGE:  cpu time    3.3033: real time    3.3117
    FORLOC:  cpu time    3.1820: real time    3.1900
    FORNL :  cpu time    1.0960: real time    1.0988
    STRESS:  cpu time    6.3881: real time    6.4042
    FORHAR:  cpu time   10.2539: real time   10.2795
    MIXING:  cpu time    2.0518: real time    2.0570
    OFIELD:  cpu time    0.0000: real time    0.0000

  FORCE on cell =-STRESS in cart. coord.  units (eV):
  Direction    XX          YY          ZZ          XY          YZ          ZX
  --------------------------------------------------------------------------------------
  Alpha Z     0.03926     0.03926     0.03926
  Ewald     746.38677   750.47232    16.70662     7.49862   141.46403    -3.57173
  Hartree   996.51417   981.68508   540.85449    -2.30630    84.91134    -3.52263
  E(xc)    -100.94133  -100.78411  -102.35837     0.12078     0.30336     0.01277
  Local   -2133.16287 -2114.12064  -973.65614    -0.30200  -219.81445     7.82844
  n-local    54.58739    51.72983    60.07572    -1.62595    -1.60133    -0.26075
  augment    95.00474    94.01561    96.95450    -0.56887    -0.56367    -0.09713
  Kinetic   344.00123   341.79963   362.09147    -2.31722    -3.90459    -0.30812
  Fock        0.00000     0.00000     0.00000     0.00000     0.00000     0.00000
  -------------------------------------------------------------------------------------
  Total       2.42936     4.83699     0.70755     0.49907     0.79468     0.08084
  in kB       0.09078     0.18075     0.02644     0.01865     0.02970     0.00302
  external pressure =        0.10 kB  Pullay stress =        0.00 kB


 VOLUME and BASIS-vectors are now :
 -----------------------------------------------------------------------------
  energy-cutoff  :     1000.00
  volume of cell :    42875.00
      direct lattice vectors                 reciprocal lattice vectors
    35.000000000  0.000000000  0.000000000     0.028571429  0.000000000  0.000000000
     0.000000000 35.000000000  0.000000000     0.000000000  0.028571429  0.000000000
     0.000000000  0.000000000 35.000000000     0.000000000  0.000000000  0.028571429

  length of vectors
    35.000000000 35.000000000 35.000000000     0.028571429  0.028571429  0.028571429


 FORCES acting on ions
    electron-ion (+dipol)            ewald-force                    non-local-force                 convergence-correction
 -----------------------------------------------------------------------------------------------
   0.692E+02 0.853E+01 0.111E+01   -.781E+02 -.236E+01 0.100E+00   0.690E+01 -.558E+01 -.109E+01   0.831E-06 -.897E-06 -.163E-06
   0.164E+03 -.485E+01 -.199E+01   -.167E+03 0.605E+01 0.223E+01   0.289E+01 -.135E+01 -.274E+00   -.820E-06 0.793E-06 0.212E-06
   -.167E+03 -.281E+03 -.512E+02   0.202E+03 0.343E+03 0.627E+02   -.343E+02 -.608E+02 -.111E+02   0.734E-06 0.673E-06 0.127E-06
   -.997E+02 0.269E+03 0.509E+02   0.706E+02 -.325E+03 -.611E+02   0.297E+02 0.533E+02 0.975E+01   0.311E-05 0.119E-05 0.176E-06
   -.106E+03 0.207E+02 0.456E+01   0.114E+03 -.203E+02 -.454E+01   -.724E+01 -.248E+00 0.130E-02   0.357E-07 0.102E-06 0.972E-08
   0.474E+02 -.580E+02 -.112E+02   -.496E+02 0.637E+02 0.123E+02   0.214E+01 -.536E+01 -.102E+01   -.381E-06 0.589E-06 0.122E-06
   0.446E+02 0.198E+02 0.580E+02   -.467E+02 -.219E+02 -.633E+02   0.189E+01 0.194E+01 0.501E+01   -.197E-06 0.257E-06 -.390E-06
   0.439E+02 0.395E+02 -.474E+02   -.460E+02 -.434E+02 0.517E+02   0.183E+01 0.362E+01 -.399E+01   -.193E-06 0.112E-06 0.466E-06
 -----------------------------------------------------------------------------------------------
   -.378E+01 0.144E+02 0.272E+01   0.213E-13 0.711E-14 0.000E+00   0.378E+01 -.144E+02 -.272E+01   0.312E-05 0.282E-05 0.559E-06
 
 
 POSITION                                       TOTAL-FORCE (eV/Angst)
 -----------------------------------------------------------------------------------
     33.88637      1.32702      0.27517        -2.039910      0.596718      0.124613
     32.38858      1.28619      0.27736         0.159520     -0.151478     -0.029084
     34.53292      2.34939      0.46154         1.454759      1.718794      0.311123
     34.42191      0.13692      0.04962         0.693375     -2.225532     -0.419410
      0.41332      0.20326      0.05549         0.254812      0.143276      0.024883
     31.99335      2.27689      0.46579        -0.111062      0.343041      0.065076
     32.03574      0.91526     34.31800        -0.207835     -0.153309     -0.353721
     32.04689      0.59180      1.04124        -0.203659     -0.271510      0.276518
 -----------------------------------------------------------------------------------
    total drift:                               -0.000129     -0.000146      0.000006


--------------------------------------------------------------------------------------------------------



  FREE ENERGIE OF THE ION-ELECTRON SYSTEM (eV)
  ---------------------------------------------------
  free  energy   TOTEN  =       -46.13325320 eV

  energy  without entropy=      -46.13325320  energy(sigma->0) =      -46.13325320
 


--------------------------------------------------------------------------------------------------------


    POTLOK:  cpu time   31.1879: real time   31.2639


--------------------------------------------------------------------------------------------------------


 writing wavefunctions
     LOOP+:  cpu time 1953.6835: real time 1958.6818
    4ORBIT:  cpu time    0.0000: real time    0.0000

 total amount of memory used by VASP on root node  5865032. kBytes
========================================================================

   base      :      30000. kBytes
   nonl-proj :      61569. kBytes
   fftplans  :    1964666. kBytes
   grid      :    3756461. kBytes
   one-center:          1. kBytes
   wavefun   :      52335. kBytes
 
  
  
 General timing and accounting informations for this job:
 ========================================================
  
                  Total CPU time used (sec):     2363.715
                            User time (sec):     2180.816
                          System time (sec):      182.899
                         Elapsed time (sec):     2369.706
  
                   Maximum memory used (kb):     9035668.
                   Average memory used (kb):           0.
  
                          Minor page faults:       290725
                          Major page faults:            6
                 Voluntary context switches:          774
 
 PROFILE, used timers:      14
 =============================
 
 index                 routine                    time                            calls level
----------------------------------------------------------------------------------------------
    1    total_time                         2369.707293                                1   1
    2      w1_copy                               4.272105                           6089   2
    3      fftwav_mpi                          238.518980                           2401   2
    4      fftext_mpi                            1.188559                             17   2
    5      overl                                 0.001595                           3471   2
    6      orth1                                 5.625501                           1139   2
    7      lincom                                0.355690                             35   2
    8      eccp                                  9.515156                            578   2
    9      hamiltmu                            283.125589                            379   2
   10        vhamil                               48.804330                         2024   3
   11        overl1                                0.001802                         2024   3
   12        kinhamil                            174.324876                         2024   3
   13          fftext_mpi                          173.052137                       2024   4
   14      pdssyex_zheevx                        0.033418                             34   2
 
 Flat profile
 ============
 
             routine name                   CPU           calls
 ---------------------------------------------------------------
 total_time                           1827.070700           1
 fftwav_mpi                            238.518980        2401
 fftext_mpi                            174.240696        2041
 hamiltmu                               59.994581         379
 vhamil                                 48.804330        2024
 eccp                                    9.515156         578
 orth1                                   5.625501        1139
 w1_copy                                 4.272105        6089
 kinhamil                                1.272739        2024
 lincom                                  0.355690          35
 pdssyex_zheevx                          0.033418          34
 overl1                                  0.001802        2024
 overl                                   0.001595        3471
 ---------------------------------------------------------------
  summed up times    2369.70729303360     
 
Profiling took   0.012022  0.006665  0.003260  0.003254 seconds
Profiling took   0.009030 seconds
