 vasp.5.4.1 24Jun15 (build Jan 02 2020 16:21:29) gamma-only                     
  
 executed on           IFC15_impi date 2020.04.16  13:10:41
 running on    8 total cores
 distrk:  each k-point on    8 cores,    1 groups
 distr:  one band on NCORES_PER_BAND=   4 cores,    2 groups


--------------------------------------------------------------------------------------------------------


 INCAR:
 POTCAR:    PAW_PBE N_s 07Sep2000                 
 POTCAR:    PAW_PBE O_s 07Sep2000                 
 POTCAR:    PAW_PBE H_s 15May2010                 
 POTCAR:    PAW_PBE C_s 06Sep2000                 
 POTCAR:    PAW_PBE N_s 07Sep2000                 
   VRHFIN =N: s2p3                                                              
   LEXCH  = PE                                                                  
   EATOM  =   264.5486 eV,   19.4438 Ry                                         
                                                                                
   TITEL  = PAW_PBE N_s 07Sep2000                                               
   LULTRA =        F    use ultrasoft PP ?                                      
   IUNSCR =        0    unscreen: 0-lin 1-nonlin 2-no                           
   RPACOR =    0.000    partial core radius                                     
   POMASS =   14.001; ZVAL   =    5.000    mass and valenz                      
   RCORE  =    1.850    outmost cutoff radius                                   
   RWIGS  =    1.850; RWIGS  =    0.979    wigner-seitz radius (au A)           
   ENMAX  =  279.692; ENMIN  =  209.769 eV                                      
   RCLOC  =    0.803    cutoff for local pot                                    
   LCOR   =        T    correct aug charges                                     
   LPAW   =        T    paw PP                                                  
   EAUG   =  384.743                                                            
   DEXC   =    0.000                                                            
   RMAX   =    1.893    core radius for proj-oper                               
   RAUG   =    1.300    factor for augmentation sphere                          
   RDEP   =    1.933    radius for radial grids                                 
   RDEPT  =    1.632    core radius for aug-charge                              
                                                                                
   Atomic configuration                                                         
    4 entries                                                                   
     n  l   j            E        occ.                                          
     1  0  0.50      -384.7179   2.0000                                         
     2  0  0.50       -18.5828   2.0000                                         
     2  1  0.50        -7.0898   3.0000                                         
     3  2  1.50        -1.3606   0.0000                                         
   Description                                                                  
     l       E           TYP  RCUT    TYP  RCUT                                 
     0    -18.5828119     23  1.500                                             
     0    -19.9433945     23  1.500                                             
     1     -7.0897853     23  1.850                                             
     1     -4.8150613     23  1.850                                             
  local pseudopotential read in
  atomic valenz-charges read in
  non local Contribution for L=           0  read in
    real space projection operators read in
  non local Contribution for L=           0  read in
    real space projection operators read in
  non local Contribution for L=           1  read in
    real space projection operators read in
  non local Contribution for L=           1  read in
    real space projection operators read in
    PAW grid and wavefunctions read in
 
   number of l-projection  operators is LMAX  =           4
   number of lm-projection operators is LMMAX =           8
 
 POTCAR:    PAW_PBE O_s 07Sep2000                 
   VRHFIN =O: s2p4                                                              
   LEXCH  = PE                                                                  
   EATOM  =   432.3788 eV,   31.7789 Ry                                         
                                                                                
   TITEL  = PAW_PBE O_s 07Sep2000                                               
   LULTRA =        F    use ultrasoft PP ?                                      
   IUNSCR =        0    unscreen: 0-lin 1-nonlin 2-no                           
   RPACOR =    0.000    partial core radius                                     
   POMASS =   16.000; ZVAL   =    6.000    mass and valenz                      
   RCORE  =    1.850    outmost cutoff radius                                   
   RWIGS  =    1.700; RWIGS  =    0.900    wigner-seitz radius (au A)           
   ENMAX  =  282.853; ENMIN  =  212.140 eV                                      
   RCLOC  =    0.804    cutoff for local pot                                    
   LCOR   =        T    correct aug charges                                     
   LPAW   =        T    paw PP                                                  
   EAUG   =  412.352                                                            
   RMAX   =    1.897    core radius for proj-oper                               
   RAUG   =    1.300    factor for augmentation sphere                          
   RDEP   =    1.878    radius for radial grids                                 
   RDEPT  =    1.572    core radius for aug-charge                              
                                                                                
   Atomic configuration                                                         
    4 entries                                                                   
     n  l   j            E        occ.                                          
     1  0  0.50      -514.6923   2.0000                                         
     2  0  0.50       -23.9615   2.0000                                         
     2  1  0.50        -9.0305   4.0000                                         
     3  2  1.50        -1.3606   0.0000                                         
   Description                                                                  
     l       E           TYP  RCUT    TYP  RCUT                                 
     0    -23.9615315     23  1.500                                             
     0    -25.3221141     23  1.500                                             
     1     -9.0304908     23  1.850                                             
     1     -7.3935399     23  1.850                                             
  local pseudopotential read in
  atomic valenz-charges read in
  non local Contribution for L=           0  read in
    real space projection operators read in
  non local Contribution for L=           0  read in
    real space projection operators read in
  non local Contribution for L=           1  read in
    real space projection operators read in
  non local Contribution for L=           1  read in
    real space projection operators read in
    PAW grid and wavefunctions read in
 
   number of l-projection  operators is LMAX  =           4
   number of lm-projection operators is LMMAX =           8
 
 POTCAR:    PAW_PBE H_s 15May2010                 
   VRHFIN =H: ultrasoft test                                                    
   LEXCH  = PE                                                                  
   EATOM  =    12.4884 eV,    0.9179 Ry                                         
                                                                                
   TITEL  = PAW_PBE H_s 15May2010                                               
   LULTRA =        F    use ultrasoft PP ?                                      
   IUNSCR =        0    unscreen: 0-lin 1-nonlin 2-no                           
   RPACOR =    0.000    partial core radius                                     
   POMASS =    1.000; ZVAL   =    1.000    mass and valenz                      
   RCORE  =    1.300    outmost cutoff radius                                   
   RWIGS  =    0.700; RWIGS  =    0.370    wigner-seitz radius (au A)           
   ENMAX  =  200.000; ENMIN  =  150.000 eV                                      
   RCLOC  =    0.701    cutoff for local pot                                    
   LCOR   =        T    correct aug charges                                     
   LPAW   =        T    paw PP                                                  
   EAUG   =  300.000                                                            
   RMAX   =    1.330    core radius for proj-oper                               
   RAUG   =    1.200    factor for augmentation sphere                          
   RDEP   =    1.337    radius for radial grids                                 
   RDEPT  =    1.114    core radius for aug-charge                              
                                                                                
   Atomic configuration                                                         
    2 entries                                                                   
     n  l   j            E        occ.                                          
     1  0  0.50        -6.4927   1.0000                                         
     2  1  0.50        -3.4015   0.0000                                         
   Description                                                                  
     l       E           TYP  RCUT    TYP  RCUT                                 
     0     -6.4927494     23  1.300                                             
     0      6.8029130     23  1.300                                             
     1     -4.0817478     23  1.300                                             
  local pseudopotential read in
  atomic valenz-charges read in
  non local Contribution for L=           0  read in
    real space projection operators read in
  non local Contribution for L=           0  read in
    real space projection operators read in
  non local Contribution for L=           1  read in
    real space projection operators read in
    PAW grid and wavefunctions read in
 
   number of l-projection  operators is LMAX  =           3
   number of lm-projection operators is LMMAX =           5
 
 POTCAR:    PAW_PBE C_s 06Sep2000                 
   VRHFIN =C: s2p2                                                              
   LEXCH  = PE                                                                  
   EATOM  =   147.1560 eV,   10.8157 Ry                                         
                                                                                
   TITEL  = PAW_PBE C_s 06Sep2000                                               
   LULTRA =        F    use ultrasoft PP ?                                      
   IUNSCR =        0    unscreen: 0-lin 1-nonlin 2-no                           
   RPACOR =    0.000    partial core radius                                     
   POMASS =   12.011; ZVAL   =    4.000    mass and valenz                      
   RCORE  =    1.850    outmost cutoff radius                                   
   RWIGS  =    1.890; RWIGS  =    1.000    wigner-seitz radius (au A)           
   ENMAX  =  273.911; ENMIN  =  205.433 eV                                      
   RCLOC  =    0.804    cutoff for local pot                                    
   LCOR   =        T    correct aug charges                                     
   LPAW   =        T    paw PP                                                  
   EAUG   =  439.243                                                            
   DEXC   =    0.000                                                            
   RMAX   =    1.897    core radius for proj-oper                               
   RAUG   =    1.300    factor for augmentation sphere                          
   RDEP   =    1.940    radius for radial grids                                 
   RDEPT  =    1.573    core radius for aug-charge                              
                                                                                
   Atomic configuration                                                         
    4 entries                                                                   
     n  l   j            E        occ.                                          
     1  0  0.50      -273.3789   2.0000                                         
     2  0  0.50       -13.7508   2.0000                                         
     2  1  0.50        -5.2854   2.0000                                         
     3  2  1.50        -1.3606   0.0000                                         
   Description                                                                  
     l       E           TYP  RCUT    TYP  RCUT                                 
     0    -13.7508457     23  1.500                                             
     0    -11.0934578     23  1.500                                             
     1     -5.2854381     23  1.850                                             
     1     -1.3099858     23  1.850                                             
  local pseudopotential read in
  atomic valenz-charges read in
  non local Contribution for L=           0  read in
    real space projection operators read in
  non local Contribution for L=           0  read in
    real space projection operators read in
  non local Contribution for L=           1  read in
    real space projection operators read in
  non local Contribution for L=           1  read in
    real space projection operators read in
    PAW grid and wavefunctions read in
 
   number of l-projection  operators is LMAX  =           4
   number of lm-projection operators is LMMAX =           8
 
  PAW_PBE N_s 07Sep2000                 :
 energy of atom  1       EATOM= -264.5486
 kinetic energy error for atom=    0.0003 (will be added to EATOM!!)
  PAW_PBE O_s 07Sep2000                 :
 energy of atom  2       EATOM= -432.3788
 kinetic energy error for atom=    0.0004 (will be added to EATOM!!)
  PAW_PBE H_s 15May2010                 :
 energy of atom  3       EATOM=  -12.4884
 kinetic energy error for atom=    0.0000 (will be added to EATOM!!)
  PAW_PBE C_s 06Sep2000                 :
 energy of atom  4       EATOM= -147.1560
 kinetic energy error for atom=    0.0002 (will be added to EATOM!!)
 
 
 POSCAR: N O H C                                 
  positions in cartesian coordinates
  No initial velocities read in
 exchange correlation table for  LEXCH =        8
   RHO(1)=    0.500       N(1)  =     2000
   RHO(2)=  100.500       N(2)  =     4000
 


--------------------------------------------------------------------------------------------------------


 ion  position               nearest neighbor table
   1  0.999  0.972  0.001-   5 1.01  12 1.38   9 1.40   2 2.30
   2  0.032  0.028  0.003-   8 1.01  11 1.37  12 1.38   1 2.30
   3  0.934  0.970  1.000-   9 1.22
   4  0.064  0.971  0.006-  12 1.22
   5  0.998  0.943  0.001-   1 1.01
   6  0.938  0.047  0.998-  10 1.08
   7  0.002  0.079  0.001-  11 1.08
   8  0.058  0.042  0.004-   2 1.01
   9  0.963  0.990  0.000-   3 1.22   1 1.40  10 1.45
  10  0.965  0.031  1.000-   6 1.08  11 1.35   9 1.45
  11  0.999  0.049  0.001-   7 1.08  10 1.35   2 1.37
  12  0.034  0.989  0.003-   4 1.22   1 1.38   2 1.38
 
  LATTYP: Found a simple cubic cell.
 ALAT       =    35.0000000000
  
  Lattice vectors:
  
 A1 = (  35.0000000000,   0.0000000000,   0.0000000000)
 A2 = (   0.0000000000,  35.0000000000,   0.0000000000)
 A3 = (   0.0000000000,   0.0000000000,  35.0000000000)


Analysis of symmetry for initial positions (statically):
=====================================================================
 Subroutine PRICEL returns:
 Original cell was already a primitive cell.
 

 Routine SETGRP: Setting up the symmetry group for a 
 simple cubic supercell.


 Subroutine GETGRP returns: Found  1 space group operations
 (whereof  1 operations were pure point group operations)
 out of a pool of 48 trial point group operations.


The static configuration has the point symmetry C_1 .


Analysis of symmetry for dynamics (positions and initial velocities):
=====================================================================
 Subroutine PRICEL returns:
 Original cell was already a primitive cell.
 

 Routine SETGRP: Setting up the symmetry group for a 
 simple cubic supercell.


 Subroutine GETGRP returns: Found  1 space group operations
 (whereof  1 operations were pure point group operations)
 out of a pool of 48 trial point group operations.


The dynamic configuration has the point symmetry C_1 .
 
 
 KPOINTS: automatic mesh                          

Automatic generation of k-mesh.
Space group operators:
 irot       det(A)        alpha          n_x          n_y          n_z        tau_x        tau_y        tau_z
    1     1.000000     0.000000     1.000000     0.000000     0.000000     0.000000     0.000000     0.000000
 
 Subroutine IBZKPT returns following result:
 ===========================================
 
 Found      1 irreducible k-points:
 
 Following reciprocal coordinates:
            Coordinates               Weight
  0.000000  0.000000  0.000000      1.000000
 
 Following cartesian coordinates:
            Coordinates               Weight
  0.000000  0.000000  0.000000      1.000000
 


--------------------------------------------------------------------------------------------------------




 Dimension of arrays:
   k-points           NKPTS =      1   k-points in BZ     NKDIM =      1   number of bands    NBANDS=     28
   number of dos      NEDOS =    301   number of ions     NIONS =     12
   non local maximal  LDIM  =      4   non local SUM 2l+1 LMDIM =      8
   total plane-waves  NPLWV = ******
   max r-space proj   IRMAX =      1   max aug-charges    IRDMAX=  32454
   dimension x,y,z NGX =   378 NGY =  378 NGZ =  378
   dimension x,y,z NGXF=   756 NGYF=  756 NGZF=  756
   support grid    NGXF=   756 NGYF=  756 NGZF=  756
   ions per type =               2   2   4   4
 NGX,Y,Z   is equivalent  to a cutoff of  17.95, 17.95, 17.95 a.u.
 NGXF,Y,Z  is equivalent  to a cutoff of  35.91, 35.91, 35.91 a.u.


 I would recommend the setting:
   dimension x,y,z NGX =   361 NGY =  361 NGZ =  361
 SYSTEM =  C                                       
 POSCAR =  N O H C                                 

 Startparameter for this run:
   NWRITE =      2    write-flag & timer
   PREC   = acc       normal or accurate (medium, high low for compatibility)
   ISTART =      0    job   : 0-new  1-cont  2-samecut
   ICHARG =      2    charge: 1-file 2-atom 10-const
   ISPIN  =      1    spin polarized calculation?
   LNONCOLLINEAR =      F non collinear calculations
   LSORBIT =      F    spin-orbit coupling
   INIWAV =      1    electr: 0-lowe 1-rand  2-diag
   LASPH  =      T    aspherical Exc in radial PAW
   METAGGA=      F    non-selfconsistent MetaGGA calc.

 Electronic Relaxation 1
   ENCUT  = 1000.0 eV  73.50 Ry    8.57 a.u.  90.25 90.25 90.25*2*pi/ulx,y,z
   ENINI  = 1000.0     initial cutoff
   ENAUG  =  439.2 eV  augmentation charge cutoff
   NELM   =     60;   NELMIN=  2; NELMDL= -5     # of ELM steps 
   EDIFF  = 0.1E-06   stopping-criterion for ELM
   LREAL  =      F    real-space projection
   NLSPLINE    = F    spline interpolate recip. space projectors
   LCOMPAT=      F    compatible to vasp.4.4
   GGA_COMPAT  = T    GGA compatible to vasp.4.4-vasp.4.6
   LMAXPAW     = -100 max onsite density
   LMAXMIX     =    2 max onsite mixed and CHGCAR
   VOSKOWN=      0    Vosko Wilk Nusair interpolation
   ROPT   =    0.00000   0.00000   0.00000   0.00000
 Ionic relaxation
   EDIFFG = 0.1E-05   stopping-criterion for IOM
   NSW    =      0    number of steps for IOM
   NBLOCK =      1;   KBLOCK =      1    inner block; outer block 
   IBRION =     -1    ionic relax: 0-MD 1-quasi-New 2-CG
   NFREE  =      0    steps in history (QN), initial steepest desc. (CG)
   ISIF   =      2    stress and relaxation
   IWAVPR =     10    prediction:  0-non 1-charg 2-wave 3-comb
   ISYM   =      2    0-nonsym 1-usesym 2-fastsym
   LCORR  =      T    Harris-Foulkes like correction to forces

   POTIM  = 0.5000    time-step for ionic-motion
   TEIN   =    0.0    initial temperature
   TEBEG  =    0.0;   TEEND  =   0.0 temperature during run
   SMASS  =  -3.00    Nose mass-parameter (am)
   estimated Nose-frequenzy (Omega)   =  0.10E-29 period in steps =****** mass=  -0.280E-25a.u.
   SCALEE = 1.0000    scale energy and forces
   NPACO  =    256;   APACO  = 16.0  distance and # of slots for P.C.
   PSTRESS=    0.0 pullay stress

  Mass of Ions in am
   POMASS =  14.00 16.00  1.00 12.01
  Ionic Valenz
   ZVAL   =   5.00  6.00  1.00  4.00
  Atomic Wigner-Seitz radii
   RWIGS  =  -1.00 -1.00 -1.00 -1.00
  virtual crystal weights 
   VCA    =   1.00  1.00  1.00  1.00
   NELECT =      42.0000    total number of electrons
   NUPDOWN=      -1.0000    fix difference up-down

 DOS related values:
   EMIN   =  10.00;   EMAX   =-10.00  energy-range for DOS
   EFERMI =   0.00
   ISMEAR =     0;   SIGMA  =   0.01  broadening in eV -4-tet -1-fermi 0-gaus

 Electronic relaxation 2 (details)
   IALGO  =     38    algorithm
   LDIAG  =      T    sub-space diagonalisation (order eigenvalues)
   LSUBROT=      F    optimize rotation matrix (better conditioning)
   TURBO    =      0    0=normal 1=particle mesh
   IRESTART =      0    0=no restart 2=restart with 2 vectors
   NREBOOT  =      0    no. of reboots
   NMIN     =      0    reboot dimension
   EREF     =   0.00    reference energy to select bands
   IMIX   =      4    mixing-type and parameters
     AMIX     =   0.40;   BMIX     =  1.00
     AMIX_MAG =   1.60;   BMIX_MAG =  1.00
     AMIN     =   0.10
     WC   =   100.;   INIMIX=   1;  MIXPRE=   1;  MAXMIX= -45

 Intra band minimization:
   WEIMIN = 0.0000     energy-eigenvalue tresh-hold
   EBREAK =  0.89E-09  absolut break condition
   DEPER  =   0.30     relativ break condition  

   TIME   =   0.40     timestep for ELM

  volume/ion in A,a.u.               =    3572.92     24111.23
  Fermi-wavevector in a.u.,A,eV,Ry     =   0.162589  0.307248  0.359670  0.026435
  Thomas-Fermi vector in A             =   0.859803
 
 Write flags
   LWAVE  =      T    write WAVECAR
   LCHARG =      T    write CHGCAR
   LVTOT  =      F    write LOCPOT, total local potential
   LVHAR  =      F    write LOCPOT, Hartree potential only
   LELF   =      F    write electronic localiz. function (ELF)
   LORBIT =      0    0 simple, 1 ext, 2 COOP (PROOUT)


 Dipole corrections
   LMONO  =      F    monopole corrections only (constant potential shift)
   LDIPOL =      F    correct potential (dipole corrections)
   IDIPOL =      0    1-x, 2-y, 3-z, 4-all directions 
   EPSILON=  1.0000000 bulk dielectric constant

 Exchange correlation treatment:
   GGA     =    --    GGA type
   LEXCH   =     8    internal setting for exchange type
   VOSKOWN=      0    Vosko Wilk Nusair interpolation
   LHFCALC =     F    Hartree Fock is set to
   LHFONE  =     F    Hartree Fock one center treatment
   AEXX    =    0.0000 exact exchange contribution

 Linear response parameters
   LEPSILON=     F    determine dielectric tensor
   LRPA    =     F    only Hartree local field effects (RPA)
   LNABLA  =     F    use nabla operator in PAW spheres
   LVEL    =     F    velocity operator in full k-point grid
   LINTERFAST=   F  fast interpolation
   KINTER  =     0    interpolate to denser k-point grid
   CSHIFT  =0.1000    complex shift for real part using Kramers Kronig
   OMEGAMAX=  -1.0    maximum frequency
   DEG_THRESHOLD= 0.2000000E-02 threshold for treating states as degnerate
   RTIME   =    0.100 relaxation time in fs

 Orbital magnetization related:
   ORBITALMAG=     F  switch on orbital magnetization
   LCHIMAG   =     F  perturbation theory with respect to B field
   DQ        =  0.001000  dq finite difference perturbation B field



--------------------------------------------------------------------------------------------------------


 Static calculation
 charge density and potential will be updated during run
 non-spin polarized calculation
 Variant of blocked Davidson
 Davidson routine will perform the subspace rotation
 perform sub-space diagonalisation
    after iterative eigenvector-optimisation
 modified Broyden-mixing scheme, WC =      100.0
 initial mixing is a Kerker type mixing with AMIX =  0.4000 and BMIX =      1.0000
 Hartree-type preconditioning will be used
 using additional bands            7
 reciprocal scheme for non local part
 calculate Harris-corrections to forces 
   (improved forces if not selfconsistent)
 use gradient corrections 
 use of overlap-Matrix (Vanderbilt PP)
 Gauss-broadening in eV      SIGMA  =   0.01


--------------------------------------------------------------------------------------------------------


  energy-cutoff  :     1000.00
  volume of cell :    42875.00
      direct lattice vectors                 reciprocal lattice vectors
    35.000000000  0.000000000  0.000000000     0.028571429  0.000000000  0.000000000
     0.000000000 35.000000000  0.000000000     0.000000000  0.028571429  0.000000000
     0.000000000  0.000000000 35.000000000     0.000000000  0.000000000  0.028571429

  length of vectors
    35.000000000 35.000000000 35.000000000     0.028571429  0.028571429  0.028571429


 
 k-points in units of 2pi/SCALE and weight: automatic mesh                          
   0.00000000  0.00000000  0.00000000       1.000
 
 k-points in reciprocal lattice and weights: automatic mesh                          
   0.00000000  0.00000000  0.00000000       1.000
 
 position of ions in fractional coordinates (direct lattice) 
   0.99854647  0.97199768  0.00097035
   0.03241512  0.02829379  0.00262413
   0.93350800  0.97049843  0.99983346
   0.06389708  0.97110891  0.00554816
   0.99847937  0.94312304  0.00142348
   0.93849317  0.04718458  0.99843502
   0.00201047  0.07921359  0.00091092
   0.05782058  0.04162206  0.00444836
   0.96260534  0.98966067  0.00011503
   0.96466233  0.03108709  0.99965073
   0.99899445  0.04850960  0.00096300
   0.03409103  0.98880478  0.00330786
 
 position of ions in cartesian coordinates  (Angst):
  34.94912634 34.01991873  0.03396219
   1.13452913  0.99028251  0.09184461
  32.67278000 33.96744508 34.99417114
   2.23639797 33.98881174  0.19418562
  34.94677795 33.00930626  0.04982167
  32.84726103  1.65146044 34.94522557
   0.07036636  2.77247575  0.03188224
   2.02372032  1.45677218  0.15569277
  33.69118684 34.63812362  0.00402596
  33.76318151  1.08804829 34.98777560
  34.96480567  1.69783584  0.03370483
   1.19318599 34.60816713  0.11577512
 


--------------------------------------------------------------------------------------------------------


 use parallel FFT for wavefunctions z direction half grid
 k-point  1 :   0.0000 0.0000 0.0000  plane waves: 1539209

 maximum and minimum number of plane-waves per node :    384809   384798

 maximum number of plane-waves:   1539209
 maximum index in each direction: 
   IXMAX=   90   IYMAX=   90   IZMAX=   90
   IXMIN=  -90   IYMIN=  -90   IZMIN=    0

 NGX is ok and might be reduce to 362
 NGY is ok and might be reduce to 362
 NGZ is ok and might be reduce to 362

 parallel 3D FFT for wavefunctions:
    minimum data exchange during FFTs selected (reduces bandwidth)
 parallel 3D FFT for charge:
    minimum data exchange during FFTs selected (reduces bandwidth)


 total amount of memory used by VASP on root node  6853720. kBytes
========================================================================

   base      :      30000. kBytes
   nonl-proj :     172394. kBytes
   fftplans  :    2104240. kBytes
   grid      :    4460883. kBytes
   one-center:          4. kBytes
   wavefun   :      86199. kBytes
 
     INWAV:  cpu time    0.0001: real time    0.0002
 Broyden mixing: mesh for mixing (old mesh)
   NGX =181   NGY =181   NGZ =181
  (NGX  =756   NGY  =756   NGZ  =756)
  gives a total of ****** points

 initial charge density was supplied:
 charge density of overlapping atoms calculated
 number of electron      42.0000000 magnetization 
 keeping initial charge density in first step


--------------------------------------------------------------------------------------------------------


 Maximum index for augmentation-charges         4501 (set IRDMAX)


--------------------------------------------------------------------------------------------------------


 First call to EWALD:  gamma=   0.051
 Maximum number of real-space cells 3x 3x 3
 Maximum number of reciprocal cells 3x 3x 3

 FEWALD executed in parallel
    FEWALD:  cpu time    0.0012: real time    0.0012


----------------------------------------- Iteration    1(   1)  ---------------------------------------


    POTLOK:  cpu time   26.9203: real time   26.9917
    SETDIJ:  cpu time    0.0967: real time    0.0970
     EDDAV:  cpu time   27.4963: real time   27.5696
       DOS:  cpu time    0.0001: real time    0.0001
    --------------------------------------------
      LOOP:  cpu time   54.5156: real time   54.6617

 eigenvalue-minimisations  :    72
 total energy-change (2. order) : 0.4218553E+03  (-0.7740853E+03)
 number of electron      42.0000000 magnetization 
 augmentation part       42.0000000 magnetization 

 Free energy of the ion-electron system (eV)
  ---------------------------------------------------
  alpha Z        PSCENC =         0.12087005
  Ewald energy   TEWEN  =      4016.12496866
  -Hartree energ DENC   =     -5520.83468996
  -exchange      EXHF   =         0.00000000
  -V(xc)+E(xc)   XCENC  =       159.58674978
  PAW double counting   =      1544.09744484    -1557.89416453
  entropy T*S    EENTRO =        -0.00000020
  eigenvalues    EBANDS =      -251.77581801
  atomic energy  EATOM  =      2032.42997382
  Solvation  Ediel_sol  =         0.00000000
  ---------------------------------------------------
  free energy    TOTEN  =       421.85533445 eV

  energy without entropy =      421.85533465  energy(sigma->0) =      421.85533455


--------------------------------------------------------------------------------------------------------




----------------------------------------- Iteration    1(   2)  ---------------------------------------


     EDDAV:  cpu time   41.5399: real time   41.6503
       DOS:  cpu time    0.0009: real time    0.0009
    --------------------------------------------
      LOOP:  cpu time   41.5483: real time   41.6608

 eigenvalue-minimisations  :   104
 total energy-change (2. order) :-0.2191601E+03  (-0.2174209E+03)
 number of electron      42.0000000 magnetization 
 augmentation part       42.0000000 magnetization 

 Free energy of the ion-electron system (eV)
  ---------------------------------------------------
  alpha Z        PSCENC =         0.12087005
  Ewald energy   TEWEN  =      4016.12496866
  -Hartree energ DENC   =     -5520.83468996
  -exchange      EXHF   =         0.00000000
  -V(xc)+E(xc)   XCENC  =       159.58674978
  PAW double counting   =      1544.09744484    -1557.89416453
  entropy T*S    EENTRO =        -0.00001962
  eigenvalues    EBANDS =      -470.93589659
  atomic energy  EATOM  =      2032.42997382
  Solvation  Ediel_sol  =         0.00000000
  ---------------------------------------------------
  free energy    TOTEN  =       202.69523645 eV

  energy without entropy =      202.69525607  energy(sigma->0) =      202.69524626


--------------------------------------------------------------------------------------------------------




----------------------------------------- Iteration    1(   3)  ---------------------------------------


     EDDAV:  cpu time   37.2556: real time   37.3545
       DOS:  cpu time    0.0001: real time    0.0001
    --------------------------------------------
      LOOP:  cpu time   37.2576: real time   37.3586

 eigenvalue-minimisations  :    88
 total energy-change (2. order) :-0.2116751E+03  (-0.2095150E+03)
 number of electron      42.0000000 magnetization 
 augmentation part       42.0000000 magnetization 

 Free energy of the ion-electron system (eV)
  ---------------------------------------------------
  alpha Z        PSCENC =         0.12087005
  Ewald energy   TEWEN  =      4016.12496866
  -Hartree energ DENC   =     -5520.83468996
  -exchange      EXHF   =         0.00000000
  -V(xc)+E(xc)   XCENC  =       159.58674978
  PAW double counting   =      1544.09744484    -1557.89416453
  entropy T*S    EENTRO =        -0.00000000
  eigenvalues    EBANDS =      -682.61099149
  atomic energy  EATOM  =      2032.42997382
  Solvation  Ediel_sol  =         0.00000000
  ---------------------------------------------------
  free energy    TOTEN  =        -8.97983884 eV

  energy without entropy =       -8.97983884  energy(sigma->0) =       -8.97983884


--------------------------------------------------------------------------------------------------------




----------------------------------------- Iteration    1(   4)  ---------------------------------------


     EDDAV:  cpu time   32.0370: real time   32.1222
       DOS:  cpu time    0.0001: real time    0.0001
    --------------------------------------------
      LOOP:  cpu time   32.0391: real time   32.1257

 eigenvalue-minimisations  :    72
 total energy-change (2. order) :-0.7294679E+02  (-0.7291117E+02)
 number of electron      42.0000000 magnetization 
 augmentation part       42.0000000 magnetization 

 Free energy of the ion-electron system (eV)
  ---------------------------------------------------
  alpha Z        PSCENC =         0.12087005
  Ewald energy   TEWEN  =      4016.12496866
  -Hartree energ DENC   =     -5520.83468996
  -exchange      EXHF   =         0.00000000
  -V(xc)+E(xc)   XCENC  =       159.58674978
  PAW double counting   =      1544.09744484    -1557.89416453
  entropy T*S    EENTRO =        -0.00000000
  eigenvalues    EBANDS =      -755.55777774
  atomic energy  EATOM  =      2032.42997382
  Solvation  Ediel_sol  =         0.00000000
  ---------------------------------------------------
  free energy    TOTEN  =       -81.92662508 eV

  energy without entropy =      -81.92662508  energy(sigma->0) =      -81.92662508


--------------------------------------------------------------------------------------------------------




----------------------------------------- Iteration    1(   5)  ---------------------------------------


     EDDAV:  cpu time   31.8100: real time   31.8944
       DOS:  cpu time    0.0001: real time    0.0001
    CHARGE:  cpu time    4.6811: real time    4.6936
    MIXING:  cpu time    0.8198: real time    0.8220
    --------------------------------------------
      LOOP:  cpu time   37.3130: real time   37.4140

 eigenvalue-minimisations  :    72
 total energy-change (2. order) :-0.6261816E+01  (-0.6258257E+01)
 number of electron      42.0000000 magnetization 
 augmentation part        5.3227475 magnetization 

 Broyden mixing:
  rms(total) = 0.63726E+01    rms(broyden)= 0.63726E+01
  rms(prec ) = 0.63834E+01
  weight for this iteration     100.00

 Free energy of the ion-electron system (eV)
  ---------------------------------------------------
  alpha Z        PSCENC =         0.12087005
  Ewald energy   TEWEN  =      4016.12496866
  -Hartree energ DENC   =     -5520.83468996
  -exchange      EXHF   =         0.00000000
  -V(xc)+E(xc)   XCENC  =       159.58674978
  PAW double counting   =      1544.09744484    -1557.89416453
  entropy T*S    EENTRO =        -0.00000000
  eigenvalues    EBANDS =      -761.81959361
  atomic energy  EATOM  =      2032.42997382
  Solvation  Ediel_sol  =         0.00000000
  ---------------------------------------------------
  free energy    TOTEN  =       -88.18844095 eV

  energy without entropy =      -88.18844095  energy(sigma->0) =      -88.18844095


--------------------------------------------------------------------------------------------------------




----------------------------------------- Iteration    1(   6)  ---------------------------------------


    POTLOK:  cpu time   31.7060: real time   31.7899
    SETDIJ:  cpu time    0.4163: real time    0.4176
     EDDAV:  cpu time   31.4880: real time   31.5713
       DOS:  cpu time    0.0001: real time    0.0001
    CHARGE:  cpu time    4.6120: real time    4.6244
    MIXING:  cpu time    0.8511: real time    0.8534
    --------------------------------------------
      LOOP:  cpu time   69.0757: real time   69.2612

 eigenvalue-minimisations  :    72
 total energy-change (2. order) : 0.6458174E+01  (-0.2454604E+01)
 number of electron      42.0000000 magnetization 
 augmentation part        4.6698360 magnetization 

 Broyden mixing:
  rms(total) = 0.63409E+01    rms(broyden)= 0.63409E+01
  rms(prec ) = 0.63426E+01
  weight for this iteration     100.00

 eigenvalues of (default mixing * dielectric matrix)
  average eigenvalue GAMMA=   0.5251
  0.5251

 Free energy of the ion-electron system (eV)
  ---------------------------------------------------
  alpha Z        PSCENC =         0.12087005
  Ewald energy   TEWEN  =      4016.12496866
  -Hartree energ DENC   =     -5597.53607095
  -exchange      EXHF   =         0.00000000
  -V(xc)+E(xc)   XCENC  =       163.74774480
  PAW double counting   =      4186.23940838    -4203.49675865
  entropy T*S    EENTRO =        -0.00000000
  eigenvalues    EBANDS =      -679.36040310
  atomic energy  EATOM  =      2032.42997382
  Solvation  Ediel_sol  =         0.00000000
  ---------------------------------------------------
  free energy    TOTEN  =       -81.73026700 eV

  energy without entropy =      -81.73026700  energy(sigma->0) =      -81.73026700


--------------------------------------------------------------------------------------------------------




----------------------------------------- Iteration    1(   7)  ---------------------------------------


    POTLOK:  cpu time   31.6906: real time   31.7746
    SETDIJ:  cpu time    0.4152: real time    0.4162
     EDDAV:  cpu time   39.2211: real time   39.3250
       DOS:  cpu time    0.0001: real time    0.0001
    CHARGE:  cpu time    4.6044: real time    4.6167
    MIXING:  cpu time    0.8884: real time    0.8908
    --------------------------------------------
      LOOP:  cpu time   76.8219: real time   77.0272

 eigenvalue-minimisations  :    96
 total energy-change (2. order) : 0.4279739E+00  (-0.2256554E+00)
 number of electron      42.0000000 magnetization 
 augmentation part        4.6686285 magnetization 

 Broyden mixing:
  rms(total) = 0.44865E+01    rms(broyden)= 0.44865E+01
  rms(prec ) = 0.44879E+01
  weight for this iteration     100.00

 eigenvalues of (default mixing * dielectric matrix)
  average eigenvalue GAMMA=   1.4724
  0.7922  2.1526

 Free energy of the ion-electron system (eV)
  ---------------------------------------------------
  alpha Z        PSCENC =         0.12087005
  Ewald energy   TEWEN  =      4016.12496866
  -Hartree energ DENC   =     -5612.63904990
  -exchange      EXHF   =         0.00000000
  -V(xc)+E(xc)   XCENC  =       164.39700729
  PAW double counting   =      5837.88676622    -5855.35266184
  entropy T*S    EENTRO =        -0.00000000
  eigenvalues    EBANDS =      -664.27016739
  atomic energy  EATOM  =      2032.42997382
  Solvation  Ediel_sol  =         0.00000000
  ---------------------------------------------------
  free energy    TOTEN  =       -81.30229310 eV

  energy without entropy =      -81.30229310  energy(sigma->0) =      -81.30229310


--------------------------------------------------------------------------------------------------------




----------------------------------------- Iteration    1(   8)  ---------------------------------------


    POTLOK:  cpu time   31.6853: real time   31.7693
    SETDIJ:  cpu time    0.4122: real time    0.4132
     EDDAV:  cpu time   39.1670: real time   39.2709
       DOS:  cpu time    0.0001: real time    0.0001
    CHARGE:  cpu time    4.6039: real time    4.6163
    MIXING:  cpu time    0.9011: real time    0.9035
    --------------------------------------------
      LOOP:  cpu time   76.7717: real time   76.9773

 eigenvalue-minimisations  :    96
 total energy-change (2. order) : 0.6839300E+00  (-0.3193588E+00)
 number of electron      42.0000000 magnetization 
 augmentation part        4.6449303 magnetization 

 Broyden mixing:
  rms(total) = 0.75342E+00    rms(broyden)= 0.75342E+00
  rms(prec ) = 0.75583E+00
  weight for this iteration     100.00

 eigenvalues of (default mixing * dielectric matrix)
  average eigenvalue GAMMA=   1.4727
  2.7627  0.8276  0.8276

 Free energy of the ion-electron system (eV)
  ---------------------------------------------------
  alpha Z        PSCENC =         0.12087005
  Ewald energy   TEWEN  =      4016.12496866
  -Hartree energ DENC   =     -5658.51498684
  -exchange      EXHF   =         0.00000000
  -V(xc)+E(xc)   XCENC  =       166.46258967
  PAW double counting   =     12618.06149813   -12636.67275673
  entropy T*S    EENTRO =        -0.00000000
  eigenvalues    EBANDS =      -618.63051988
  atomic energy  EATOM  =      2032.42997382
  Solvation  Ediel_sol  =         0.00000000
  ---------------------------------------------------
  free energy    TOTEN  =       -80.61836312 eV

  energy without entropy =      -80.61836312  energy(sigma->0) =      -80.61836312


--------------------------------------------------------------------------------------------------------




----------------------------------------- Iteration    1(   9)  ---------------------------------------


    POTLOK:  cpu time   31.6678: real time   31.7517
    SETDIJ:  cpu time    0.4116: real time    0.4126
     EDDAV:  cpu time   34.0096: real time   34.0999
       DOS:  cpu time    0.0001: real time    0.0001
    CHARGE:  cpu time    4.6037: real time    4.6160
    MIXING:  cpu time    0.9240: real time    0.9265
    --------------------------------------------
      LOOP:  cpu time   71.6189: real time   71.8113

 eigenvalue-minimisations  :    80
 total energy-change (2. order) : 0.1224304E+00  (-0.6575449E-01)
 number of electron      42.0000000 magnetization 
 augmentation part        4.5678464 magnetization 

 Broyden mixing:
  rms(total) = 0.20298E+00    rms(broyden)= 0.20298E+00
  rms(prec ) = 0.20479E+00
  weight for this iteration     100.00

 eigenvalues of (default mixing * dielectric matrix)
  average eigenvalue GAMMA=   1.3656
  2.6266  0.8263  0.8263  1.1834

 Free energy of the ion-electron system (eV)
  ---------------------------------------------------
  alpha Z        PSCENC =         0.12087005
  Ewald energy   TEWEN  =      4016.12496866
  -Hartree energ DENC   =     -5669.15266352
  -exchange      EXHF   =         0.00000000
  -V(xc)+E(xc)   XCENC  =       167.04811630
  PAW double counting   =     14841.27846204   -14860.26910164
  entropy T*S    EENTRO =        -0.00000000
  eigenvalues    EBANDS =      -608.07655840
  atomic energy  EATOM  =      2032.42997382
  Solvation  Ediel_sol  =         0.00000000
  ---------------------------------------------------
  free energy    TOTEN  =       -80.49593270 eV

  energy without entropy =      -80.49593270  energy(sigma->0) =      -80.49593270


--------------------------------------------------------------------------------------------------------




----------------------------------------- Iteration    1(  10)  ---------------------------------------


    POTLOK:  cpu time   31.7017: real time   31.7855
    SETDIJ:  cpu time    0.4111: real time    0.4124
     EDDAV:  cpu time   39.2188: real time   39.3229
       DOS:  cpu time    0.0001: real time    0.0001
    CHARGE:  cpu time    4.6127: real time    4.6248
    MIXING:  cpu time    0.9344: real time    0.9369
    --------------------------------------------
      LOOP:  cpu time   76.8809: real time   77.0868

 eigenvalue-minimisations  :    96
 total energy-change (2. order) : 0.6707028E-02  (-0.1086353E-01)
 number of electron      42.0000000 magnetization 
 augmentation part        4.5845754 magnetization 

 Broyden mixing:
  rms(total) = 0.87291E-01    rms(broyden)= 0.87291E-01
  rms(prec ) = 0.88935E-01
  weight for this iteration     100.00

 eigenvalues of (default mixing * dielectric matrix)
  average eigenvalue GAMMA=   1.3501
  2.5371  1.6600  0.8119  0.8119  0.9299

 Free energy of the ion-electron system (eV)
  ---------------------------------------------------
  alpha Z        PSCENC =         0.12087005
  Ewald energy   TEWEN  =      4016.12496866
  -Hartree energ DENC   =     -5665.91123537
  -exchange      EXHF   =         0.00000000
  -V(xc)+E(xc)   XCENC  =       166.79674081
  PAW double counting   =     14607.82085621   -14626.52250064
  entropy T*S    EENTRO =        -0.00000000
  eigenvalues    EBANDS =      -611.34889920
  atomic energy  EATOM  =      2032.42997382
  Solvation  Ediel_sol  =         0.00000000
  ---------------------------------------------------
  free energy    TOTEN  =       -80.48922567 eV

  energy without entropy =      -80.48922567  energy(sigma->0) =      -80.48922567


--------------------------------------------------------------------------------------------------------




----------------------------------------- Iteration    1(  11)  ---------------------------------------


    POTLOK:  cpu time   31.2576: real time   31.3407
    SETDIJ:  cpu time    0.4105: real time    0.4115
     EDDAV:  cpu time   36.8583: real time   36.9561
       DOS:  cpu time    0.0001: real time    0.0001
    CHARGE:  cpu time    4.6027: real time    4.6150
    MIXING:  cpu time    0.9697: real time    0.9723
    --------------------------------------------
      LOOP:  cpu time   74.1010: real time   74.7292

 eigenvalue-minimisations  :    88
 total energy-change (2. order) :-0.3228682E-02  (-0.8714876E-03)
 number of electron      42.0000000 magnetization 
 augmentation part        4.5930323 magnetization 

 Broyden mixing:
  rms(total) = 0.48884E-01    rms(broyden)= 0.48884E-01
  rms(prec ) = 0.50667E-01
  weight for this iteration     100.00

 eigenvalues of (default mixing * dielectric matrix)
  average eigenvalue GAMMA=   1.3998
  2.5697  1.6607  1.6607  0.8216  0.8216  0.8643

 Free energy of the ion-electron system (eV)
  ---------------------------------------------------
  alpha Z        PSCENC =         0.12087005
  Ewald energy   TEWEN  =      4016.12496866
  -Hartree energ DENC   =     -5666.29795561
  -exchange      EXHF   =         0.00000000
  -V(xc)+E(xc)   XCENC  =       166.72286630
  PAW double counting   =     14561.68165995   -14580.25582499
  entropy T*S    EENTRO =        -0.00000000
  eigenvalues    EBANDS =      -611.01901252
  atomic energy  EATOM  =      2032.42997382
  Solvation  Ediel_sol  =         0.00000000
  ---------------------------------------------------
  free energy    TOTEN  =       -80.49245435 eV

  energy without entropy =      -80.49245435  energy(sigma->0) =      -80.49245435


--------------------------------------------------------------------------------------------------------




----------------------------------------- Iteration    1(  12)  ---------------------------------------


    POTLOK:  cpu time   31.6920: real time   31.7758
    SETDIJ:  cpu time    0.4106: real time    0.4118
     EDDAV:  cpu time   29.0910: real time   29.1682
       DOS:  cpu time    0.0001: real time    0.0001
    CHARGE:  cpu time    4.6200: real time    4.6324
    MIXING:  cpu time    0.9918: real time    0.9942
    --------------------------------------------
      LOOP:  cpu time   66.8075: real time   66.9868

 eigenvalue-minimisations  :    64
 total energy-change (2. order) :-0.4420537E-02  (-0.2907096E-03)
 number of electron      42.0000000 magnetization 
 augmentation part        4.5891060 magnetization 

 Broyden mixing:
  rms(total) = 0.17855E-01    rms(broyden)= 0.17855E-01
  rms(prec ) = 0.20581E-01
  weight for this iteration     100.00

 eigenvalues of (default mixing * dielectric matrix)
  average eigenvalue GAMMA=   1.4483
  2.5153  2.5153  0.8144  0.8144  1.2979  1.2979  0.8828

 Free energy of the ion-electron system (eV)
  ---------------------------------------------------
  alpha Z        PSCENC =         0.12087005
  Ewald energy   TEWEN  =      4016.12496866
  -Hartree energ DENC   =     -5668.65062569
  -exchange      EXHF   =         0.00000000
  -V(xc)+E(xc)   XCENC  =       166.75587149
  PAW double counting   =     14546.44654250   -14565.00111134
  entropy T*S    EENTRO =        -0.00000000
  eigenvalues    EBANDS =      -608.72336438
  atomic energy  EATOM  =      2032.42997382
  Solvation  Ediel_sol  =         0.00000000
  ---------------------------------------------------
  free energy    TOTEN  =       -80.49687489 eV

  energy without entropy =      -80.49687489  energy(sigma->0) =      -80.49687489


--------------------------------------------------------------------------------------------------------




----------------------------------------- Iteration    1(  13)  ---------------------------------------


    POTLOK:  cpu time   31.7088: real time   31.7928
    SETDIJ:  cpu time    0.4108: real time    0.4120
     EDDAV:  cpu time   31.4979: real time   31.5815
       DOS:  cpu time    0.0001: real time    0.0001
    CHARGE:  cpu time    4.6021: real time    4.6145
    MIXING:  cpu time    1.0284: real time    1.0312
    --------------------------------------------
      LOOP:  cpu time   69.2504: real time   69.4362

 eigenvalue-minimisations  :    72
 total energy-change (2. order) :-0.5596280E-02  (-0.1609805E-03)
 number of electron      42.0000000 magnetization 
 augmentation part        4.5909487 magnetization 

 Broyden mixing:
  rms(total) = 0.15609E-01    rms(broyden)= 0.15609E-01
  rms(prec ) = 0.17336E-01
  weight for this iteration     100.00

 eigenvalues of (default mixing * dielectric matrix)
  average eigenvalue GAMMA=   1.4216
  2.6369  2.6369  1.3951  1.3951  0.8056  0.8056  0.9525  0.7453

 Free energy of the ion-electron system (eV)
  ---------------------------------------------------
  alpha Z        PSCENC =         0.12087005
  Ewald energy   TEWEN  =      4016.12496866
  -Hartree energ DENC   =     -5670.32214129
  -exchange      EXHF   =         0.00000000
  -V(xc)+E(xc)   XCENC  =       166.75723698
  PAW double counting   =     14508.44269010   -14526.96424416
  entropy T*S    EENTRO =        -0.00000000
  eigenvalues    EBANDS =      -607.09182533
  atomic energy  EATOM  =      2032.42997382
  Solvation  Ediel_sol  =         0.00000000
  ---------------------------------------------------
  free energy    TOTEN  =       -80.50247117 eV

  energy without entropy =      -80.50247117  energy(sigma->0) =      -80.50247117


--------------------------------------------------------------------------------------------------------




----------------------------------------- Iteration    1(  14)  ---------------------------------------


    POTLOK:  cpu time   31.6978: real time   31.7819
    SETDIJ:  cpu time    0.4103: real time    0.4113
     EDDAV:  cpu time   31.4690: real time   31.5527
       DOS:  cpu time    0.0001: real time    0.0001
    CHARGE:  cpu time    4.6094: real time    4.6215
    MIXING:  cpu time    1.0557: real time    1.0584
    --------------------------------------------
      LOOP:  cpu time   69.2444: real time   69.4299

 eigenvalue-minimisations  :    72
 total energy-change (2. order) :-0.4842241E-02  (-0.9702930E-04)
 number of electron      42.0000000 magnetization 
 augmentation part        4.5894374 magnetization 

 Broyden mixing:
  rms(total) = 0.88915E-02    rms(broyden)= 0.88915E-02
  rms(prec ) = 0.10490E-01
  weight for this iteration     100.00

 eigenvalues of (default mixing * dielectric matrix)
  average eigenvalue GAMMA=   1.4743
  2.8064  2.8064  1.5868  1.5868  0.8081  0.8081  0.8622  1.0018  1.0018

 Free energy of the ion-electron system (eV)
  ---------------------------------------------------
  alpha Z        PSCENC =         0.12087005
  Ewald energy   TEWEN  =      4016.12496866
  -Hartree energ DENC   =     -5671.78568348
  -exchange      EXHF   =         0.00000000
  -V(xc)+E(xc)   XCENC  =       166.77414761
  PAW double counting   =     14512.23390169   -14530.75574771
  entropy T*S    EENTRO =        -0.00000000
  eigenvalues    EBANDS =      -605.64974405
  atomic energy  EATOM  =      2032.42997382
  Solvation  Ediel_sol  =         0.00000000
  ---------------------------------------------------
  free energy    TOTEN  =       -80.50731341 eV

  energy without entropy =      -80.50731341  energy(sigma->0) =      -80.50731341


--------------------------------------------------------------------------------------------------------




----------------------------------------- Iteration    1(  15)  ---------------------------------------


    POTLOK:  cpu time   31.7148: real time   31.7989
    SETDIJ:  cpu time    0.4094: real time    0.4106
     EDDAV:  cpu time   28.9138: real time   28.9903
       DOS:  cpu time    0.0001: real time    0.0001
    CHARGE:  cpu time    4.6130: real time    4.6251
    MIXING:  cpu time    1.0854: real time    1.0883
    --------------------------------------------
      LOOP:  cpu time   66.7385: real time   66.9175

 eigenvalue-minimisations  :    64
 total energy-change (2. order) :-0.4921397E-02  (-0.5468067E-04)
 number of electron      42.0000000 magnetization 
 augmentation part        4.5894622 magnetization 

 Broyden mixing:
  rms(total) = 0.53532E-02    rms(broyden)= 0.53532E-02
  rms(prec ) = 0.66536E-02
  weight for this iteration     100.00

 eigenvalues of (default mixing * dielectric matrix)
  average eigenvalue GAMMA=   1.5892
  4.0722  2.6028  1.9581  1.6322  0.8083  0.8083  1.2237  1.0024  1.0024  0.7818

 Free energy of the ion-electron system (eV)
  ---------------------------------------------------
  alpha Z        PSCENC =         0.12087005
  Ewald energy   TEWEN  =      4016.12496866
  -Hartree energ DENC   =     -5672.86278465
  -exchange      EXHF   =         0.00000000
  -V(xc)+E(xc)   XCENC  =       166.77938139
  PAW double counting   =     14498.26747851   -14516.78790382
  entropy T*S    EENTRO =        -0.00000000
  eigenvalues    EBANDS =      -604.58421876
  atomic energy  EATOM  =      2032.42997382
  Solvation  Ediel_sol  =         0.00000000
  ---------------------------------------------------
  free energy    TOTEN  =       -80.51223481 eV

  energy without entropy =      -80.51223481  energy(sigma->0) =      -80.51223481


--------------------------------------------------------------------------------------------------------




----------------------------------------- Iteration    1(  16)  ---------------------------------------


    POTLOK:  cpu time   31.7028: real time   31.7869
    SETDIJ:  cpu time    0.4099: real time    0.4109
     EDDAV:  cpu time   28.8882: real time   28.9649
       DOS:  cpu time    0.0001: real time    0.0001
    CHARGE:  cpu time    4.6013: real time    4.6137
    MIXING:  cpu time    1.1283: real time    1.1313
    --------------------------------------------
      LOOP:  cpu time   66.7327: real time   66.9118

 eigenvalue-minimisations  :    64
 total energy-change (2. order) :-0.5496477E-02  (-0.8571348E-04)
 number of electron      42.0000000 magnetization 
 augmentation part        4.5886950 magnetization 

 Broyden mixing:
  rms(total) = 0.23090E-02    rms(broyden)= 0.23090E-02
  rms(prec ) = 0.31456E-02
  weight for this iteration     100.00

 eigenvalues of (default mixing * dielectric matrix)
  average eigenvalue GAMMA=   1.6576
  5.0612  2.4970  2.4970  1.4744  1.4744  0.8079  0.8079  0.9836  0.9836  0.8730
  0.7734

 Free energy of the ion-electron system (eV)
  ---------------------------------------------------
  alpha Z        PSCENC =         0.12087005
  Ewald energy   TEWEN  =      4016.12496866
  -Hartree energ DENC   =     -5674.21148188
  -exchange      EXHF   =         0.00000000
  -V(xc)+E(xc)   XCENC  =       166.78954865
  PAW double counting   =     14494.39286660   -14512.91539033
  entropy T*S    EENTRO =        -0.00000000
  eigenvalues    EBANDS =      -603.24908685
  atomic energy  EATOM  =      2032.42997382
  Solvation  Ediel_sol  =         0.00000000
  ---------------------------------------------------
  free energy    TOTEN  =       -80.51773128 eV

  energy without entropy =      -80.51773128  energy(sigma->0) =      -80.51773128


--------------------------------------------------------------------------------------------------------




----------------------------------------- Iteration    1(  17)  ---------------------------------------


    POTLOK:  cpu time   31.6862: real time   31.7702
    SETDIJ:  cpu time    0.4122: real time    0.4132
     EDDAV:  cpu time   34.2734: real time   34.3645
       DOS:  cpu time    0.0001: real time    0.0001
    CHARGE:  cpu time    4.6044: real time    4.6165
    MIXING:  cpu time    1.1696: real time    1.1729
    --------------------------------------------
      LOOP:  cpu time   72.1480: real time   72.3414

 eigenvalue-minimisations  :    80
 total energy-change (2. order) :-0.2908150E-02  (-0.3203687E-04)
 number of electron      42.0000000 magnetization 
 augmentation part        4.5883969 magnetization 

 Broyden mixing:
  rms(total) = 0.22739E-02    rms(broyden)= 0.22739E-02
  rms(prec ) = 0.26496E-02
  weight for this iteration     100.00

 eigenvalues of (default mixing * dielectric matrix)
  average eigenvalue GAMMA=   1.6430
  5.5655  2.4946  2.4946  1.8604  1.2716  1.0846  1.0846  0.8095  0.8095  0.9164
  0.7240  0.6004

 Free energy of the ion-electron system (eV)
  ---------------------------------------------------
  alpha Z        PSCENC =         0.12087005
  Ewald energy   TEWEN  =      4016.12496866
  -Hartree energ DENC   =     -5674.74926936
  -exchange      EXHF   =         0.00000000
  -V(xc)+E(xc)   XCENC  =       166.79120220
  PAW double counting   =     14495.39847742   -14513.92183708
  entropy T*S    EENTRO =        -0.00000000
  eigenvalues    EBANDS =      -602.71502513
  atomic energy  EATOM  =      2032.42997382
  Solvation  Ediel_sol  =         0.00000000
  ---------------------------------------------------
  free energy    TOTEN  =       -80.52063943 eV

  energy without entropy =      -80.52063943  energy(sigma->0) =      -80.52063943


--------------------------------------------------------------------------------------------------------




----------------------------------------- Iteration    1(  18)  ---------------------------------------


    POTLOK:  cpu time   31.7012: real time   31.7851
    SETDIJ:  cpu time    0.4100: real time    0.4112
     EDDAV:  cpu time   29.1178: real time   29.1951
       DOS:  cpu time    0.0001: real time    0.0001
    CHARGE:  cpu time    4.6154: real time    4.6277
    MIXING:  cpu time    1.1974: real time    1.2006
    --------------------------------------------
      LOOP:  cpu time   67.0440: real time   67.2239

 eigenvalue-minimisations  :    64
 total energy-change (2. order) :-0.1733682E-02  (-0.6755651E-05)
 number of electron      42.0000000 magnetization 
 augmentation part        4.5885474 magnetization 

 Broyden mixing:
  rms(total) = 0.15343E-02    rms(broyden)= 0.15343E-02
  rms(prec ) = 0.18013E-02
  weight for this iteration     100.00

 eigenvalues of (default mixing * dielectric matrix)
  average eigenvalue GAMMA=   1.6655
  5.9584  2.5741  2.5741  2.0672  1.4729  1.0824  1.0824  0.8079  0.8079  0.9360
  0.7905  0.7487  0.7487

 Free energy of the ion-electron system (eV)
  ---------------------------------------------------
  alpha Z        PSCENC =         0.12087005
  Ewald energy   TEWEN  =      4016.12496866
  -Hartree energ DENC   =     -5674.93486974
  -exchange      EXHF   =         0.00000000
  -V(xc)+E(xc)   XCENC  =       166.78822064
  PAW double counting   =     14492.53625233   -14511.05798123
  entropy T*S    EENTRO =        -0.00000000
  eigenvalues    EBANDS =      -602.52980764
  atomic energy  EATOM  =      2032.42997382
  Solvation  Ediel_sol  =         0.00000000
  ---------------------------------------------------
  free energy    TOTEN  =       -80.52237311 eV

  energy without entropy =      -80.52237311  energy(sigma->0) =      -80.52237311


--------------------------------------------------------------------------------------------------------




----------------------------------------- Iteration    1(  19)  ---------------------------------------


    POTLOK:  cpu time   31.7828: real time   31.8671
    SETDIJ:  cpu time    0.4140: real time    0.4150
     EDDAV:  cpu time   26.5721: real time   26.6428
       DOS:  cpu time    0.0001: real time    0.0001
    CHARGE:  cpu time    4.6123: real time    4.6244
    MIXING:  cpu time    1.2496: real time    1.2531
    --------------------------------------------
      LOOP:  cpu time   64.6331: real time   64.8066

 eigenvalue-minimisations  :    56
 total energy-change (2. order) :-0.1414016E-02  (-0.4608367E-05)
 number of electron      42.0000000 magnetization 
 augmentation part        4.5884870 magnetization 

 Broyden mixing:
  rms(total) = 0.11004E-02    rms(broyden)= 0.11004E-02
  rms(prec ) = 0.12691E-02
  weight for this iteration     100.00

 eigenvalues of (default mixing * dielectric matrix)
  average eigenvalue GAMMA=   1.7547
  6.7076  3.0748  2.4378  2.4378  1.6994  1.1988  0.8113  0.8113  1.0186  1.0186
  0.9387  0.9387  0.7781  0.6941

 Free energy of the ion-electron system (eV)
  ---------------------------------------------------
  alpha Z        PSCENC =         0.12087005
  Ewald energy   TEWEN  =      4016.12496866
  -Hartree energ DENC   =     -5675.04560758
  -exchange      EXHF   =         0.00000000
  -V(xc)+E(xc)   XCENC  =       166.78648154
  PAW double counting   =     14493.07889162   -14511.60038601
  entropy T*S    EENTRO =        -0.00000000
  eigenvalues    EBANDS =      -602.41897923
  atomic energy  EATOM  =      2032.42997382
  Solvation  Ediel_sol  =         0.00000000
  ---------------------------------------------------
  free energy    TOTEN  =       -80.52378713 eV

  energy without entropy =      -80.52378713  energy(sigma->0) =      -80.52378713


--------------------------------------------------------------------------------------------------------




----------------------------------------- Iteration    1(  20)  ---------------------------------------


    POTLOK:  cpu time   31.6760: real time   31.7598
    SETDIJ:  cpu time    0.4127: real time    0.4139
     EDDAV:  cpu time   31.4830: real time   31.5663
       DOS:  cpu time    0.0001: real time    0.0001
    CHARGE:  cpu time    4.6074: real time    4.6198
    MIXING:  cpu time    1.2861: real time    1.2895
    --------------------------------------------
      LOOP:  cpu time   69.4674: real time   69.6537

 eigenvalue-minimisations  :    72
 total energy-change (2. order) :-0.1108602E-02  (-0.4387151E-05)
 number of electron      42.0000000 magnetization 
 augmentation part        4.5884769 magnetization 

 Broyden mixing:
  rms(total) = 0.51826E-03    rms(broyden)= 0.51826E-03
  rms(prec ) = 0.63828E-03
  weight for this iteration     100.00

 eigenvalues of (default mixing * dielectric matrix)
  average eigenvalue GAMMA=   1.7813
  7.4895  3.2428  2.4796  2.4796  1.7806  1.1402  1.1402  1.1123  1.1123  0.8112
  0.8112  0.8225  0.8225  0.7374  0.7374

 Free energy of the ion-electron system (eV)
  ---------------------------------------------------
  alpha Z        PSCENC =         0.12087005
  Ewald energy   TEWEN  =      4016.12496866
  -Hartree energ DENC   =     -5675.11269560
  -exchange      EXHF   =         0.00000000
  -V(xc)+E(xc)   XCENC  =       166.78458531
  PAW double counting   =     14492.83282343   -14511.35384111
  entropy T*S    EENTRO =        -0.00000000
  eigenvalues    EBANDS =      -602.35158030
  atomic energy  EATOM  =      2032.42997382
  Solvation  Ediel_sol  =         0.00000000
  ---------------------------------------------------
  free energy    TOTEN  =       -80.52489573 eV

  energy without entropy =      -80.52489573  energy(sigma->0) =      -80.52489573


--------------------------------------------------------------------------------------------------------




----------------------------------------- Iteration    1(  21)  ---------------------------------------


    POTLOK:  cpu time   31.6500: real time   31.7339
    SETDIJ:  cpu time    0.4121: real time    0.4131
     EDDAV:  cpu time   34.0317: real time   34.1218
       DOS:  cpu time    0.0001: real time    0.0001
    CHARGE:  cpu time    4.6123: real time    4.6247
    MIXING:  cpu time    1.3282: real time    1.3317
    --------------------------------------------
      LOOP:  cpu time   72.0364: real time   72.2298

 eigenvalue-minimisations  :    80
 total energy-change (2. order) :-0.3844331E-03  (-0.6803050E-06)
 number of electron      42.0000000 magnetization 
 augmentation part        4.5884849 magnetization 

 Broyden mixing:
  rms(total) = 0.39164E-03    rms(broyden)= 0.39164E-03
  rms(prec ) = 0.47849E-03
  weight for this iteration     100.00

 eigenvalues of (default mixing * dielectric matrix)
  average eigenvalue GAMMA=   1.8358
  7.8496  3.6967  2.6287  2.2229  2.2229  1.4842  1.4842  1.0440  0.9765  0.9765
  0.8123  0.8123  0.8720  0.7801  0.7801  0.7294

 Free energy of the ion-electron system (eV)
  ---------------------------------------------------
  alpha Z        PSCENC =         0.12087005
  Ewald energy   TEWEN  =      4016.12496866
  -Hartree energ DENC   =     -5675.14011181
  -exchange      EXHF   =         0.00000000
  -V(xc)+E(xc)   XCENC  =       166.78382654
  PAW double counting   =     14492.54438464   -14511.06516806
  entropy T*S    EENTRO =        -0.00000000
  eigenvalues    EBANDS =      -602.32402400
  atomic energy  EATOM  =      2032.42997382
  Solvation  Ediel_sol  =         0.00000000
  ---------------------------------------------------
  free energy    TOTEN  =       -80.52528017 eV

  energy without entropy =      -80.52528017  energy(sigma->0) =      -80.52528017


--------------------------------------------------------------------------------------------------------




----------------------------------------- Iteration    1(  22)  ---------------------------------------


    POTLOK:  cpu time   31.6593: real time   31.7433
    SETDIJ:  cpu time    0.4159: real time    0.4172
     EDDAV:  cpu time   26.3022: real time   26.3720
       DOS:  cpu time    0.0001: real time    0.0001
    CHARGE:  cpu time    4.6084: real time    4.6207
    MIXING:  cpu time    1.3849: real time    1.3885
    --------------------------------------------
      LOOP:  cpu time   64.3730: real time   64.5461

 eigenvalue-minimisations  :    56
 total energy-change (2. order) :-0.5097250E-03  (-0.1447231E-05)
 number of electron      42.0000000 magnetization 
 augmentation part        4.5885010 magnetization 

 Broyden mixing:
  rms(total) = 0.20848E-03    rms(broyden)= 0.20848E-03
  rms(prec ) = 0.25137E-03
  weight for this iteration     100.00

 eigenvalues of (default mixing * dielectric matrix)
  average eigenvalue GAMMA=   1.9146
  8.4668  4.5992  2.8501  2.3968  2.3968  1.5536  1.5536  1.0522  1.0522  0.8122
  0.8122  0.9516  0.9516  0.7777  0.7777  0.7723  0.7723

 Free energy of the ion-electron system (eV)
  ---------------------------------------------------
  alpha Z        PSCENC =         0.12087005
  Ewald energy   TEWEN  =      4016.12496866
  -Hartree energ DENC   =     -5675.12867122
  -exchange      EXHF   =         0.00000000
  -V(xc)+E(xc)   XCENC  =       166.78236900
  PAW double counting   =     14492.28454467   -14510.80532893
  entropy T*S    EENTRO =        -0.00000000
  eigenvalues    EBANDS =      -602.33451593
  atomic energy  EATOM  =      2032.42997382
  Solvation  Ediel_sol  =         0.00000000
  ---------------------------------------------------
  free energy    TOTEN  =       -80.52578989 eV

  energy without entropy =      -80.52578989  energy(sigma->0) =      -80.52578989


--------------------------------------------------------------------------------------------------------




----------------------------------------- Iteration    1(  23)  ---------------------------------------


    POTLOK:  cpu time   31.6042: real time   31.6880
    SETDIJ:  cpu time    0.4118: real time    0.4128
     EDDAV:  cpu time   31.4514: real time   31.5348
       DOS:  cpu time    0.0001: real time    0.0001
    CHARGE:  cpu time    4.6047: real time    4.6168
    MIXING:  cpu time    1.4362: real time    1.4401
    --------------------------------------------
      LOOP:  cpu time   69.5104: real time   69.6967

 eigenvalue-minimisations  :    72
 total energy-change (2. order) :-0.1965834E-03  (-0.5017968E-06)
 number of electron      42.0000000 magnetization 
 augmentation part        4.5884932 magnetization 

 Broyden mixing:
  rms(total) = 0.20406E-03    rms(broyden)= 0.20406E-03
  rms(prec ) = 0.21964E-03
  weight for this iteration     100.00

 eigenvalues of (default mixing * dielectric matrix)
  average eigenvalue GAMMA=   1.9140
  8.7505  5.0504  2.6069  2.6069  2.3429  1.8229  1.2997  1.2997  1.0853  1.0853
  0.9076  0.9076  0.8108  0.8108  0.8477  0.7611  0.7276  0.7276

 Free energy of the ion-electron system (eV)
  ---------------------------------------------------
  alpha Z        PSCENC =         0.12087005
  Ewald energy   TEWEN  =      4016.12496866
  -Hartree energ DENC   =     -5675.12393699
  -exchange      EXHF   =         0.00000000
  -V(xc)+E(xc)   XCENC  =       166.78176963
  PAW double counting   =     14492.26227967   -14510.78300382
  entropy T*S    EENTRO =        -0.00000000
  eigenvalues    EBANDS =      -602.33890749
  atomic energy  EATOM  =      2032.42997382
  Solvation  Ediel_sol  =         0.00000000
  ---------------------------------------------------
  free energy    TOTEN  =       -80.52598647 eV

  energy without entropy =      -80.52598647  energy(sigma->0) =      -80.52598647


--------------------------------------------------------------------------------------------------------




----------------------------------------- Iteration    1(  24)  ---------------------------------------


    POTLOK:  cpu time   31.6002: real time   31.6838
    SETDIJ:  cpu time    0.4116: real time    0.4128
     EDDAV:  cpu time   26.3419: real time   26.4118
       DOS:  cpu time    0.0001: real time    0.0001
    CHARGE:  cpu time    4.5977: real time    4.6100
    MIXING:  cpu time    1.4830: real time    1.4868
    --------------------------------------------
      LOOP:  cpu time   64.4366: real time   64.6095

 eigenvalue-minimisations  :    56
 total energy-change (2. order) :-0.6728254E-04  (-0.5070135E-07)
 number of electron      42.0000000 magnetization 
 augmentation part        4.5884962 magnetization 

 Broyden mixing:
  rms(total) = 0.14928E-03    rms(broyden)= 0.14928E-03
  rms(prec ) = 0.16073E-03
  weight for this iteration     100.00

 eigenvalues of (default mixing * dielectric matrix)
  average eigenvalue GAMMA=   1.9395
  8.7523  5.4252  2.8373  2.8373  2.1309  2.1309  1.5272  1.5272  1.0040  1.0040
  0.8113  0.8113  1.0128  1.0128  0.9611  0.7585  0.7585  0.7740  0.7740

 Free energy of the ion-electron system (eV)
  ---------------------------------------------------
  alpha Z        PSCENC =         0.12087005
  Ewald energy   TEWEN  =      4016.12496866
  -Hartree energ DENC   =     -5675.12087978
  -exchange      EXHF   =         0.00000000
  -V(xc)+E(xc)   XCENC  =       166.78152856
  PAW double counting   =     14492.20200729   -14510.72269196
  entropy T*S    EENTRO =        -0.00000000
  eigenvalues    EBANDS =      -602.34183038
  atomic energy  EATOM  =      2032.42997382
  Solvation  Ediel_sol  =         0.00000000
  ---------------------------------------------------
  free energy    TOTEN  =       -80.52605376 eV

  energy without entropy =      -80.52605376  energy(sigma->0) =      -80.52605376


--------------------------------------------------------------------------------------------------------




----------------------------------------- Iteration    1(  25)  ---------------------------------------


    POTLOK:  cpu time   31.5512: real time   31.6347
    SETDIJ:  cpu time    0.4150: real time    0.4160
     EDDAV:  cpu time   26.3298: real time   26.4001
       DOS:  cpu time    0.0001: real time    0.0001
    CHARGE:  cpu time    4.6030: real time    4.6151
    MIXING:  cpu time    1.5390: real time    1.5432
    --------------------------------------------
      LOOP:  cpu time   64.4402: real time   64.6132

 eigenvalue-minimisations  :    56
 total energy-change (2. order) :-0.6961813E-04  (-0.4871867E-07)
 number of electron      42.0000000 magnetization 
 augmentation part        4.5884891 magnetization 

 Broyden mixing:
  rms(total) = 0.73167E-04    rms(broyden)= 0.73167E-04
  rms(prec ) = 0.80499E-04
  weight for this iteration     100.00

 eigenvalues of (default mixing * dielectric matrix)
  average eigenvalue GAMMA=   1.9704
  8.9391  5.9103  3.5948  2.4302  2.4302  2.1900  1.6702  1.6702  1.0442  1.0442
  1.0663  0.8113  0.8113  0.9202  0.9202  0.8786  0.7507  0.7507  0.7879  0.7879

 Free energy of the ion-electron system (eV)
  ---------------------------------------------------
  alpha Z        PSCENC =         0.12087005
  Ewald energy   TEWEN  =      4016.12496866
  -Hartree energ DENC   =     -5675.12174883
  -exchange      EXHF   =         0.00000000
  -V(xc)+E(xc)   XCENC  =       166.78146966
  PAW double counting   =     14492.14906361   -14510.66977980
  entropy T*S    EENTRO =        -0.00000000
  eigenvalues    EBANDS =      -602.34094055
  atomic energy  EATOM  =      2032.42997382
  Solvation  Ediel_sol  =         0.00000000
  ---------------------------------------------------
  free energy    TOTEN  =       -80.52612337 eV

  energy without entropy =      -80.52612337  energy(sigma->0) =      -80.52612337


--------------------------------------------------------------------------------------------------------




----------------------------------------- Iteration    1(  26)  ---------------------------------------


    POTLOK:  cpu time   31.5454: real time   31.6291
    SETDIJ:  cpu time    0.4152: real time    0.4163
     EDDAV:  cpu time   23.8030: real time   23.8661
       DOS:  cpu time    0.0001: real time    0.0001
    CHARGE:  cpu time    4.6106: real time    4.6228
    MIXING:  cpu time    1.5944: real time    1.5987
    --------------------------------------------
      LOOP:  cpu time   61.9708: real time   62.1371

 eigenvalue-minimisations  :    48
 total energy-change (2. order) :-0.2925670E-04  (-0.2122015E-07)
 number of electron      42.0000000 magnetization 
 augmentation part        4.5884848 magnetization 

 Broyden mixing:
  rms(total) = 0.49954E-04    rms(broyden)= 0.49954E-04
  rms(prec ) = 0.53761E-04
  weight for this iteration     100.00

 eigenvalues of (default mixing * dielectric matrix)
  average eigenvalue GAMMA=   1.9238
  8.9414  6.0710  3.7864  2.4500  2.3451  2.3451  1.7620  1.5507  1.1205  1.0547
  1.0547  0.9097  0.9097  0.8112  0.8112  0.8912  0.7799  0.7799  0.7487  0.7487
  0.5269

 Free energy of the ion-electron system (eV)
  ---------------------------------------------------
  alpha Z        PSCENC =         0.12087005
  Ewald energy   TEWEN  =      4016.12496866
  -Hartree energ DENC   =     -5675.12571648
  -exchange      EXHF   =         0.00000000
  -V(xc)+E(xc)   XCENC  =       166.78153731
  PAW double counting   =     14492.30719389   -14510.82792386
  entropy T*S    EENTRO =        -0.00000000
  eigenvalues    EBANDS =      -602.33705602
  atomic energy  EATOM  =      2032.42997382
  Solvation  Ediel_sol  =         0.00000000
  ---------------------------------------------------
  free energy    TOTEN  =       -80.52615263 eV

  energy without entropy =      -80.52615263  energy(sigma->0) =      -80.52615263


--------------------------------------------------------------------------------------------------------




----------------------------------------- Iteration    1(  27)  ---------------------------------------


    POTLOK:  cpu time   31.5169: real time   31.6005
    SETDIJ:  cpu time    0.4105: real time    0.4115
     EDDAV:  cpu time   26.5542: real time   26.6248
       DOS:  cpu time    0.0001: real time    0.0001
    CHARGE:  cpu time    4.6070: real time    4.6191
    MIXING:  cpu time    1.6521: real time    1.6566
    --------------------------------------------
      LOOP:  cpu time   64.7429: real time   64.9167

 eigenvalue-minimisations  :    56
 total energy-change (2. order) :-0.6779363E-05  (-0.2595160E-08)
 number of electron      42.0000000 magnetization 
 augmentation part        4.5884830 magnetization 

 Broyden mixing:
  rms(total) = 0.42912E-04    rms(broyden)= 0.42912E-04
  rms(prec ) = 0.45956E-04
  weight for this iteration     100.00

 eigenvalues of (default mixing * dielectric matrix)
  average eigenvalue GAMMA=   1.9202
  8.9930  6.3159  3.8323  2.4642  2.3645  2.3645  1.9917  1.4696  1.4696  1.0090
  1.0090  1.0431  1.0431  0.8116  0.8116  0.8455  0.8455  0.8201  0.8201  0.7603
  0.7603  0.3995

 Free energy of the ion-electron system (eV)
  ---------------------------------------------------
  alpha Z        PSCENC =         0.12087005
  Ewald energy   TEWEN  =      4016.12496866
  -Hartree energ DENC   =     -5675.12672538
  -exchange      EXHF   =         0.00000000
  -V(xc)+E(xc)   XCENC  =       166.78155670
  PAW double counting   =     14492.30461612   -14510.82534663
  entropy T*S    EENTRO =        -0.00000000
  eigenvalues    EBANDS =      -602.33607275
  atomic energy  EATOM  =      2032.42997382
  Solvation  Ediel_sol  =         0.00000000
  ---------------------------------------------------
  free energy    TOTEN  =       -80.52615941 eV

  energy without entropy =      -80.52615941  energy(sigma->0) =      -80.52615941


--------------------------------------------------------------------------------------------------------




----------------------------------------- Iteration    1(  28)  ---------------------------------------


    POTLOK:  cpu time   31.5174: real time   31.6010
    SETDIJ:  cpu time    0.4116: real time    0.4126
     EDDAV:  cpu time   23.9511: real time   24.0145
       DOS:  cpu time    0.0001: real time    0.0001
    CHARGE:  cpu time    4.6073: real time    4.6196
    MIXING:  cpu time    1.7117: real time    1.7161
    --------------------------------------------
      LOOP:  cpu time   62.2013: real time   62.3680

 eigenvalue-minimisations  :    48
 total energy-change (2. order) :-0.8795641E-05  (-0.1856755E-08)
 number of electron      42.0000000 magnetization 
 augmentation part        4.5884818 magnetization 

 Broyden mixing:
  rms(total) = 0.26725E-04    rms(broyden)= 0.26725E-04
  rms(prec ) = 0.29220E-04
  weight for this iteration     100.00

 eigenvalues of (default mixing * dielectric matrix)
  average eigenvalue GAMMA=   1.9702
  9.2381  6.5148  4.4216  2.8772  2.4018  2.4018  1.9371  1.9371  1.2934  1.2934
  1.1059  1.1059  0.8113  0.8113  0.9222  0.9222  0.9483  0.9483  0.7503  0.7503
  0.7775  0.7775  0.3675

 Free energy of the ion-electron system (eV)
  ---------------------------------------------------
  alpha Z        PSCENC =         0.12087005
  Ewald energy   TEWEN  =      4016.12496866
  -Hartree energ DENC   =     -5675.12797345
  -exchange      EXHF   =         0.00000000
[...]

 eigenvalues of (default mixing * dielectric matrix)
  average eigenvalue GAMMA=   2.0004
  9.5208  7.7513  5.6879  3.9847  2.9687  2.4155  2.4155  2.4114  2.3403  1.8720
  1.3332  1.3332  1.0482  1.0482  0.9563  0.9563  0.8114  0.8114  0.9163  0.9163
  0.9493  0.9493  0.7548  0.7548  0.7960  0.7960  0.6716  0.4905  0.3500

 Free energy of the ion-electron system (eV)
  ---------------------------------------------------
  alpha Z        PSCENC =         0.12087005
  Ewald energy   TEWEN  =      4016.12496866
  -Hartree energ DENC   =     -5675.12926955
  -exchange      EXHF   =         0.00000000
  -V(xc)+E(xc)   XCENC  =       166.78156132
  PAW double counting   =     14492.27186260   -14510.79261144
  entropy T*S    EENTRO =        -0.00000000
  eigenvalues    EBANDS =      -602.33353816
  atomic energy  EATOM  =      2032.42997382
  Solvation  Ediel_sol  =         0.00000000
  ---------------------------------------------------
  free energy    TOTEN  =       -80.52618270 eV

  energy without entropy =      -80.52618270  energy(sigma->0) =      -80.52618270


--------------------------------------------------------------------------------------------------------




----------------------------------------- Iteration    1(  35)  ---------------------------------------


    POTLOK:  cpu time   31.7258: real time   31.8099
    SETDIJ:  cpu time    0.4126: real time    0.4136
     EDDAV:  cpu time   21.4417: real time   21.4987
       DOS:  cpu time    0.0001: real time    0.0001
    CHARGE:  cpu time    4.5978: real time    4.6099
    MIXING:  cpu time    2.1806: real time    2.1863
    --------------------------------------------
      LOOP:  cpu time   60.3606: real time   60.5229

 eigenvalue-minimisations  :    40
 total energy-change (2. order) :-0.2054057E-06  ( 0.6390444E-10)
 number of electron      42.0000000 magnetization 
 augmentation part        4.5884844 magnetization 

 Broyden mixing:
  rms(total) = 0.26073E-05    rms(broyden)= 0.26073E-05
  rms(prec ) = 0.26737E-05
  weight for this iteration     100.00

 eigenvalues of (default mixing * dielectric matrix)
  average eigenvalue GAMMA=   1.9985
  9.5367  7.8583  5.8136  4.1252  2.9036  2.9036  2.5888  2.5888  2.1459  2.0121
  1.3225  1.3225  1.0415  1.0415  0.9784  0.9784  1.0553  1.0553  0.8114  0.8114
  0.8502  0.8502  0.7537  0.7537  0.8529  0.7830  0.7830  0.6174  0.3499  0.4646

 Free energy of the ion-electron system (eV)
  ---------------------------------------------------
  alpha Z        PSCENC =         0.12087005
  Ewald energy   TEWEN  =      4016.12496866
  -Hartree energ DENC   =     -5675.12933501
  -exchange      EXHF   =         0.00000000
  -V(xc)+E(xc)   XCENC  =       166.78156282
  PAW double counting   =     14492.27532114   -14510.79606972
  entropy T*S    EENTRO =        -0.00000000
  eigenvalues    EBANDS =      -602.33347467
  atomic energy  EATOM  =      2032.42997382
  Solvation  Ediel_sol  =         0.00000000
  ---------------------------------------------------
  free energy    TOTEN  =       -80.52618290 eV

  energy without entropy =      -80.52618290  energy(sigma->0) =      -80.52618290


--------------------------------------------------------------------------------------------------------




----------------------------------------- Iteration    1(  36)  ---------------------------------------


    POTLOK:  cpu time   31.7602: real time   31.8445
    SETDIJ:  cpu time    0.4142: real time    0.4154
     EDDAV:  cpu time   26.3767: real time   26.4465
       DOS:  cpu time    0.0001: real time    0.0001
    CHARGE:  cpu time    4.5993: real time    4.6116
    MIXING:  cpu time    2.2526: real time    2.2585
    --------------------------------------------
      LOOP:  cpu time   65.4052: real time   65.5811

 eigenvalue-minimisations  :    56
 total energy-change (2. order) :-0.1030585E-06  ( 0.1400391E-09)
 number of electron      42.0000000 magnetization 
 augmentation part        4.5884841 magnetization 

 Broyden mixing:
  rms(total) = 0.15813E-05    rms(broyden)= 0.15813E-05
  rms(prec ) = 0.16338E-05
  weight for this iteration     100.00

 eigenvalues of (default mixing * dielectric matrix)
  average eigenvalue GAMMA=   2.0062
  9.5669  8.0976  6.0585  4.4987  2.9947  2.9947  2.5037  2.5037  1.9809  1.9809
  1.5339  1.5339  1.2016  1.2016  1.0320  1.0320  0.9769  0.9769  0.8114  0.8114
  0.8943  0.8943  0.8947  0.7528  0.7528  0.8165  0.7705  0.7705  0.5615  0.3499
  0.4424

 Free energy of the ion-electron system (eV)
  ---------------------------------------------------
  alpha Z        PSCENC =         0.12087005
  Ewald energy   TEWEN  =      4016.12496866
  -Hartree energ DENC   =     -5675.12936827
  -exchange      EXHF   =         0.00000000
  -V(xc)+E(xc)   XCENC  =       166.78156401
  PAW double counting   =     14492.27768390   -14510.79843259
  entropy T*S    EENTRO =        -0.00000000
  eigenvalues    EBANDS =      -602.33344258
  atomic energy  EATOM  =      2032.42997382
  Solvation  Ediel_sol  =         0.00000000
  ---------------------------------------------------
  free energy    TOTEN  =       -80.52618300 eV

  energy without entropy =      -80.52618300  energy(sigma->0) =      -80.52618300


--------------------------------------------------------------------------------------------------------




----------------------------------------- Iteration    1(  37)  ---------------------------------------


    POTLOK:  cpu time   31.7543: real time   31.8386
    SETDIJ:  cpu time    0.4095: real time    0.4105
     EDDAV:  cpu time   23.9629: real time   24.0265
       DOS:  cpu time    0.0001: real time    0.0001
    --------------------------------------------
      LOOP:  cpu time   56.1287: real time   56.2798

 eigenvalue-minimisations  :    48
 total energy-change (2. order) :-0.6609480E-07  ( 0.1902922E-09)
 number of electron      42.0000000 magnetization 
 augmentation part        4.5884841 magnetization 

 Free energy of the ion-electron system (eV)
  ---------------------------------------------------
  alpha Z        PSCENC =         0.12087005
  Ewald energy   TEWEN  =      4016.12496866
  -Hartree energ DENC   =     -5675.12935675
  -exchange      EXHF   =         0.00000000
  -V(xc)+E(xc)   XCENC  =       166.78156363
  PAW double counting   =     14492.27836092   -14510.79910926
  entropy T*S    EENTRO =        -0.00000000
  eigenvalues    EBANDS =      -602.33345414
  atomic energy  EATOM  =      2032.42997382
  Solvation  Ediel_sol  =         0.00000000
  ---------------------------------------------------
  free energy    TOTEN  =       -80.52618307 eV

  energy without entropy =      -80.52618307  energy(sigma->0) =      -80.52618307


--------------------------------------------------------------------------------------------------------




 average (electrostatic) potential at core
  the test charge radii are     0.9051  0.8742  0.6256  0.8471
  (the norm of the test charge is              1.0000)
       1 -87.3655       2 -87.8833       3 -90.0869       4 -90.3450       5 -41.4805
       6 -39.3787       7 -40.2157       8 -42.0986       9 -86.5278      10 -84.2694
      11 -85.7211      12 -87.4617
 
 
 
 E-fermi :  -6.1981     XC(G=0):  -0.0508     alpha+bet : -0.0209


 k-point     1 :       0.0000    0.0000    0.0000
  band No.  band energies     occupation 
      1     -27.4525      2.00000
      2     -26.4946      2.00000
      3     -24.9238      2.00000
      4     -23.4914      2.00000
      5     -20.1451      2.00000
      6     -17.5369      2.00000
      7     -16.8194      2.00000
      8     -15.1705      2.00000
      9     -14.1490      2.00000
     10     -13.1255      2.00000
     11     -12.1836      2.00000
     12     -11.7026      2.00000
     13     -11.0412      2.00000
     14     -10.3783      2.00000
     15     -10.2221      2.00000
     16     -10.0891      2.00000
     17      -9.3391      2.00000
     18      -7.1635      2.00000
     19      -7.0766      2.00000
     20      -6.4172      2.00000
     21      -6.2447      2.00000
     22      -2.4333      0.00000
     23      -1.1929      0.00000
     24      -1.0564      0.00000
     25      -0.2587      0.00000
     26      -0.1807      0.00000
     27       0.0115      0.00000
     28       0.0376      0.00000


--------------------------------------------------------------------------------------------------------


 soft charge-density along one line, spin component           1
         0         1         2         3         4         5         6         7         8         9
 total charge-density along one line
 
 pseudopotential strength for first ion, spin component:           1
 26.297  26.855  -0.002  -0.007  -0.012  -0.003  -0.008  -0.015
 26.855  27.426  -0.003  -0.007  -0.013  -0.003  -0.008  -0.015
 -0.002  -0.003  -5.875  -0.001  -0.006  -6.618  -0.001  -0.007
 -0.007  -0.007  -0.001  -5.637  -0.012  -0.001  -6.337  -0.014
 -0.012  -0.013  -0.006  -0.012  -5.897  -0.007  -0.014  -6.644
 -0.003  -0.003  -6.618  -0.001  -0.007  -7.422  -0.001  -0.009
 -0.008  -0.008  -0.001  -6.337  -0.014  -0.001  -7.091  -0.017
 -0.015  -0.015  -0.007  -0.014  -6.644  -0.009  -0.017  -7.453
 total augmentation occupancy for first ion, spin component:           1
 28.154 -31.207  -3.349  -0.657  -0.946   2.909   0.427   0.535
-31.207  35.659   3.179   0.685   1.001  -2.768  -0.460  -0.601
 -3.349   3.179  22.750   0.078   0.337 -14.881  -0.061  -0.245
 -0.657   0.685   0.078   8.869   0.852  -0.062  -4.667  -0.643
 -0.946   1.001   0.337   0.852  27.432  -0.246  -0.643 -18.681
  2.909  -2.768 -14.881  -0.062  -0.246   9.796   0.047   0.168
  0.427  -0.460  -0.061  -4.667  -0.643   0.047   2.604   0.471
  0.535  -0.601  -0.245  -0.643 -18.681   0.168   0.471  12.862


------------------------ aborting loop because EDIFF is reached ----------------------------------------


    CHARGE:  cpu time    4.6030: real time    4.6153
    FORLOC:  cpu time    4.4266: real time    4.4383
    FORNL :  cpu time    2.9578: real time    2.9657
    STRESS:  cpu time   15.1759: real time   15.2163
    FORHAR:  cpu time   11.6474: real time   11.6790
    MIXING:  cpu time    2.3159: real time    2.3222
    OFIELD:  cpu time    0.0000: real time    0.0000

  FORCE on cell =-STRESS in cart. coord.  units (eV):
  Direction    XX          YY          ZZ          XY          YZ          ZX
  --------------------------------------------------------------------------------------
  Alpha Z     0.12087     0.12087     0.12087
  Ewald    2535.12448  1819.21595  -338.21610    -1.03358   -27.07419   129.01080
  Hartree  2695.95357  2165.17846   813.99733    -6.18754   -17.62819    83.35720
  E(xc)    -172.38195  -173.15860  -177.24653     0.00756    -0.04969     0.22401
  Local   -5886.78081 -4673.16097 -1248.28845     8.47593    43.62954  -206.68222
  n-local   113.77404   118.87501   127.22377     0.17754     0.18986    -0.62076
  augment   135.40578   141.39256   142.41160     0.12188     0.08279    -0.37557
  Kinetic   588.31382   607.59845   680.01865    -1.32559     0.72664    -4.47631
  Fock        0.00000     0.00000     0.00000     0.00000     0.00000     0.00000
  -------------------------------------------------------------------------------------
  Total       9.52980     6.06173     0.02114     0.23620    -0.12324     0.43715
  in kB       0.35611     0.22652     0.00079     0.00883    -0.00461     0.01634
  external pressure =        0.19 kB  Pullay stress =        0.00 kB


 VOLUME and BASIS-vectors are now :
 -----------------------------------------------------------------------------
  energy-cutoff  :     1000.00
  volume of cell :    42875.00
      direct lattice vectors                 reciprocal lattice vectors
    35.000000000  0.000000000  0.000000000     0.028571429  0.000000000  0.000000000
     0.000000000 35.000000000  0.000000000     0.000000000  0.028571429  0.000000000
     0.000000000  0.000000000 35.000000000     0.000000000  0.000000000  0.028571429

  length of vectors
    35.000000000 35.000000000 35.000000000     0.028571429  0.028571429  0.028571429


 FORCES acting on ions
    electron-ion (+dipol)            ewald-force                    non-local-force                 convergence-correction
 -----------------------------------------------------------------------------------------------
   0.110E+02 0.212E+03 0.102E+02   -.147E+02 -.213E+03 -.121E+02   0.367E+01 0.124E+01 0.186E+01   -.144E-05 0.941E-06 -.450E-07
   -.178E+03 -.188E+03 -.331E+01   0.181E+03 0.188E+03 0.233E+01   -.290E+01 0.210E+00 0.979E+00   -.359E-05 -.711E-06 -.266E-06
   0.352E+03 0.195E+03 0.581E+01   -.415E+03 -.234E+03 -.636E+01   0.609E+02 0.377E+02 0.496E+00   0.496E-05 0.639E-06 0.239E-06
   -.361E+03 0.203E+03 -.256E+02   0.427E+03 -.243E+03 0.306E+02   -.628E+02 0.378E+02 -.480E+01   -.361E-05 -.608E-06 -.892E-07
   0.843E+00 0.113E+03 -.373E+00   -.912E+00 -.121E+03 0.496E+00   0.582E-01 0.745E+01 -.105E+00   -.176E-06 -.415E-06 -.939E-08
   0.729E+02 -.550E+02 0.370E+01   -.784E+02 0.583E+02 -.395E+01   0.516E+01 -.311E+01 0.240E+00   0.227E-06 -.922E-07 0.121E-07
   -.392E+01 -.920E+02 0.562E+00   0.443E+01 0.984E+02 -.583E+00   -.452E+00 -.605E+01 0.167E-01   0.517E-07 -.185E-06 0.518E-08
   -.928E+02 -.632E+02 -.585E+01   0.100E+03 0.670E+02 0.636E+01   -.671E+01 -.340E+01 -.478E+00   -.289E-06 0.684E-07 0.815E-09
   0.636E+02 -.238E+02 0.477E+01   -.673E+02 0.305E+02 -.487E+01   0.568E+01 -.496E+01 0.934E-01   0.863E-06 -.113E-05 0.700E-07
   0.167E+03 -.144E+03 0.975E+01   -.170E+03 0.146E+03 -.991E+01   0.284E+01 -.133E+01 0.153E+00   0.206E-05 -.185E-05 0.769E-07
   0.132E+02 -.238E+03 0.372E+01   -.230E+02 0.243E+03 -.419E+01   0.969E+01 -.427E+01 0.478E+00   0.549E-07 -.212E-05 -.198E-07
   -.543E+02 0.164E+02 -.180E+01   0.572E+02 -.190E+02 0.213E+01   -.506E+01 0.371E+01 -.539E+00   -.194E-05 -.570E-06 -.119E-06
 -----------------------------------------------------------------------------------------------
   -.101E+02 -.650E+02 0.160E+01   -.284E-13 -.533E-13 0.222E-14   0.101E+02 0.650E+02 -.160E+01   -.282E-05 -.603E-05 -.144E-06
 
 
 POSITION                                       TOTAL-FORCE (eV/Angst)
 -----------------------------------------------------------------------------------
     34.94913     34.01992      0.03396        -0.006145      0.135317      0.020574
      1.13453      0.99028      0.09184        -0.232077      0.158896     -0.002096
     32.67278     33.96745     34.99417        -2.680065     -1.780548     -0.047982
      2.23640     33.98881      0.19419         2.859582     -1.645511      0.209272
     34.94678     33.00931      0.04982        -0.010783     -0.759847      0.017734
     32.84726      1.65146     34.94523        -0.346438      0.167180     -0.010940
      0.07037      2.77248      0.03188         0.059224      0.392873     -0.004841
      2.02372      1.45677      0.15569         0.708040      0.364241      0.035660
     33.69119     34.63812      0.00403         1.963560      1.796232     -0.001907
     33.76318      1.08805     34.98778        -0.103697     -0.159766     -0.010253
     34.96481      1.69784      0.03370        -0.049791      0.228477      0.002876
      1.19319     34.60817      0.11578        -2.161408      1.102456     -0.208098
 -----------------------------------------------------------------------------------
    total drift:                                0.000031     -0.000082      0.000008


--------------------------------------------------------------------------------------------------------



  FREE ENERGIE OF THE ION-ELECTRON SYSTEM (eV)
  ---------------------------------------------------
  free  energy   TOTEN  =       -80.52618307 eV

  energy  without entropy=      -80.52618307  energy(sigma->0) =      -80.52618307
 


--------------------------------------------------------------------------------------------------------


    POTLOK:  cpu time   32.2018: real time   32.2872


--------------------------------------------------------------------------------------------------------


 writing wavefunctions
     LOOP+:  cpu time 2697.9674: real time 2705.7295
    4ORBIT:  cpu time    0.0000: real time    0.0000

 total amount of memory used by VASP on root node  6853720. kBytes
========================================================================

   base      :      30000. kBytes
   nonl-proj :     172394. kBytes
   fftplans  :    2104240. kBytes
   grid      :    4460883. kBytes
   one-center:          4. kBytes
   wavefun   :      86199. kBytes
 
  
  
 General timing and accounting informations for this job:
 ========================================================
  
                  Total CPU time used (sec):     3118.666
                            User time (sec):     2910.403
                          System time (sec):      208.263
                         Elapsed time (sec):     3127.698
  
                   Maximum memory used (kb):     9829536.
                   Average memory used (kb):           0.
  
                          Minor page faults:       333804
                          Major page faults:            6
                 Voluntary context switches:          779
 
 PROFILE, used timers:      14
 =============================
 
 index                 routine                    time                            calls level
----------------------------------------------------------------------------------------------
    1    total_time                         3127.699162                                1   1
    2      w1_copy                               7.186790                           5252   2
    3      fftwav_mpi                          404.803192                           2123   2
    4      fftext_mpi                            1.897305                             14   2
    5      overl                                 0.002288                           2975   2
    6      orth1                                10.935213                           1552   2
    7      lincom                                0.721329                             38   2
    8      eccp                                 16.498263                            518   2
    9      hamiltmu                            457.589325                            517   2
   10        vhamil                               84.350757                         1746   3
   11        overl1                                0.001724                         1746   3
   12        kinhamil                            239.968798                         1746   3
   13          fftext_mpi                          237.659844                       1746   4
   14      pdssyex_zheevx                        0.053672                             37   2
 
 Flat profile
 ============
 
             routine name                   CPU           calls
 ---------------------------------------------------------------
 total_time                           2228.011784           1
 fftwav_mpi                            404.803192        2123
 fftext_mpi                            239.557148        1760
 hamiltmu                              133.268046         517
 vhamil                                 84.350757        1746
 eccp                                   16.498263         518
 orth1                                  10.935213        1552
 w1_copy                                 7.186790        5252
 kinhamil                                2.308954        1746
 lincom                                  0.721329          38
 pdssyex_zheevx                          0.053672          37
 overl                                   0.002288        2975
 overl1                                  0.001724        1746
 ---------------------------------------------------------------
  summed up times    3127.69916200638     
 
Profiling took   0.013422  0.006618  0.003402  0.003398 seconds
Profiling took   0.009288 seconds
