 vasp.5.4.1 24Jun15 (build Jan 02 2020 16:21:29) gamma-only                     
  
 executed on           IFC15_impi date 2020.04.12  18:58:23
 running on    8 total cores
 distrk:  each k-point on    8 cores,    1 groups
 distr:  one band on NCORES_PER_BAND=   8 cores,    1 groups


--------------------------------------------------------------------------------------------------------


 INCAR:
 POTCAR:    PAW_PBE N_s 07Sep2000                 
 POTCAR:    PAW_PBE C_s 06Sep2000                 
 POTCAR:    PAW_PBE H_s 15May2010                 

 ----------------------------------------------------------------------------- 
|                                                                             |
|           W    W    AA    RRRRR   N    N  II  N    N   GGGG   !!!           |
|           W    W   A  A   R    R  NN   N  II  NN   N  G    G  !!!           |
|           W    W  A    A  R    R  N N  N  II  N N  N  G       !!!           |
|           W WW W  AAAAAA  RRRRR   N  N N  II  N  N N  G  GGG   !            |
|           WW  WW  A    A  R   R   N   NN  II  N   NN  G    G                |
|           W    W  A    A  R    R  N    N  II  N    N   GGGG   !!!           |
|                                                                             |
|      For optimal performance we recommend to set                            |
|        NCORE= 4 - approx SQRT( number of cores)                             |
|      NCORE specifies how many cores store one orbital (NPAR=cpu/NCORE).     |
|      This setting can  greatly improve the performance of VASP for DFT.     |
|      The default, NPAR=number of cores might be grossly inefficient         |
|      on modern multi-core architectures or massively parallel machines.     |
|      Do your own testing !!!!                                               |
|      Unfortunately you need to use the default for GW and RPA calculations. |
|      (for HF NCORE is supported but not extensively tested yet)             |
|                                                                             |
 ----------------------------------------------------------------------------- 

 POTCAR:    PAW_PBE N_s 07Sep2000                 
   VRHFIN =N: s2p3                                                              
   LEXCH  = PE                                                                  
   EATOM  =   264.5486 eV,   19.4438 Ry                                         
                                                                                
   TITEL  = PAW_PBE N_s 07Sep2000                                               
   LULTRA =        F    use ultrasoft PP ?                                      
   IUNSCR =        0    unscreen: 0-lin 1-nonlin 2-no                           
   RPACOR =    0.000    partial core radius                                     
   POMASS =   14.001; ZVAL   =    5.000    mass and valenz                      
   RCORE  =    1.850    outmost cutoff radius                                   
   RWIGS  =    1.850; RWIGS  =    0.979    wigner-seitz radius (au A)           
   ENMAX  =  279.692; ENMIN  =  209.769 eV                                      
   RCLOC  =    0.803    cutoff for local pot                                    
   LCOR   =        T    correct aug charges                                     
   LPAW   =        T    paw PP                                                  
   EAUG   =  384.743                                                            
   DEXC   =    0.000                                                            
   RMAX   =    1.893    core radius for proj-oper                               
   RAUG   =    1.300    factor for augmentation sphere                          
   RDEP   =    1.933    radius for radial grids                                 
   RDEPT  =    1.632    core radius for aug-charge                              
                                                                                
   Atomic configuration                                                         
    4 entries                                                                   
     n  l   j            E        occ.                                          
     1  0  0.50      -384.7179   2.0000                                         
     2  0  0.50       -18.5828   2.0000                                         
     2  1  0.50        -7.0898   3.0000                                         
     3  2  1.50        -1.3606   0.0000                                         
   Description                                                                  
     l       E           TYP  RCUT    TYP  RCUT                                 
     0    -18.5828119     23  1.500                                             
     0    -19.9433945     23  1.500                                             
     1     -7.0897853     23  1.850                                             
     1     -4.8150613     23  1.850                                             
  local pseudopotential read in
  atomic valenz-charges read in
  non local Contribution for L=           0  read in
    real space projection operators read in
  non local Contribution for L=           0  read in
    real space projection operators read in
  non local Contribution for L=           1  read in
    real space projection operators read in
  non local Contribution for L=           1  read in
    real space projection operators read in
    PAW grid and wavefunctions read in
 
   number of l-projection  operators is LMAX  =           4
   number of lm-projection operators is LMMAX =           8
 
 POTCAR:    PAW_PBE C_s 06Sep2000                 
   VRHFIN =C: s2p2                                                              
   LEXCH  = PE                                                                  
   EATOM  =   147.1560 eV,   10.8157 Ry                                         
                                                                                
   TITEL  = PAW_PBE C_s 06Sep2000                                               
   LULTRA =        F    use ultrasoft PP ?                                      
   IUNSCR =        0    unscreen: 0-lin 1-nonlin 2-no                           
   RPACOR =    0.000    partial core radius                                     
   POMASS =   12.011; ZVAL   =    4.000    mass and valenz                      
   RCORE  =    1.850    outmost cutoff radius                                   
   RWIGS  =    1.890; RWIGS  =    1.000    wigner-seitz radius (au A)           
   ENMAX  =  273.911; ENMIN  =  205.433 eV                                      
   RCLOC  =    0.804    cutoff for local pot                                    
   LCOR   =        T    correct aug charges                                     
   LPAW   =        T    paw PP                                                  
   EAUG   =  439.243                                                            
   DEXC   =    0.000                                                            
   RMAX   =    1.897    core radius for proj-oper                               
   RAUG   =    1.300    factor for augmentation sphere                          
   RDEP   =    1.940    radius for radial grids                                 
   RDEPT  =    1.573    core radius for aug-charge                              
                                                                                
   Atomic configuration                                                         
    4 entries                                                                   
     n  l   j            E        occ.                                          
     1  0  0.50      -273.3789   2.0000                                         
     2  0  0.50       -13.7508   2.0000                                         
     2  1  0.50        -5.2854   2.0000                                         
     3  2  1.50        -1.3606   0.0000                                         
   Description                                                                  
     l       E           TYP  RCUT    TYP  RCUT                                 
     0    -13.7508457     23  1.500                                             
     0    -11.0934578     23  1.500                                             
     1     -5.2854381     23  1.850                                             
     1     -1.3099858     23  1.850                                             
  local pseudopotential read in
  atomic valenz-charges read in
  non local Contribution for L=           0  read in
    real space projection operators read in
  non local Contribution for L=           0  read in
    real space projection operators read in
  non local Contribution for L=           1  read in
    real space projection operators read in
  non local Contribution for L=           1  read in
    real space projection operators read in
    PAW grid and wavefunctions read in
 
   number of l-projection  operators is LMAX  =           4
   number of lm-projection operators is LMMAX =           8
 
 POTCAR:    PAW_PBE H_s 15May2010                 
   VRHFIN =H: ultrasoft test                                                    
   LEXCH  = PE                                                                  
   EATOM  =    12.4884 eV,    0.9179 Ry                                         
                                                                                
   TITEL  = PAW_PBE H_s 15May2010                                               
   LULTRA =        F    use ultrasoft PP ?                                      
   IUNSCR =        0    unscreen: 0-lin 1-nonlin 2-no                           
   RPACOR =    0.000    partial core radius                                     
   POMASS =    1.000; ZVAL   =    1.000    mass and valenz                      
   RCORE  =    1.300    outmost cutoff radius                                   
   RWIGS  =    0.700; RWIGS  =    0.370    wigner-seitz radius (au A)           
   ENMAX  =  200.000; ENMIN  =  150.000 eV                                      
   RCLOC  =    0.701    cutoff for local pot                                    
   LCOR   =        T    correct aug charges                                     
   LPAW   =        T    paw PP                                                  
   EAUG   =  300.000                                                            
   RMAX   =    1.330    core radius for proj-oper                               
   RAUG   =    1.200    factor for augmentation sphere                          
   RDEP   =    1.337    radius for radial grids                                 
   RDEPT  =    1.114    core radius for aug-charge                              
                                                                                
   Atomic configuration                                                         
    2 entries                                                                   
     n  l   j            E        occ.                                          
     1  0  0.50        -6.4927   1.0000                                         
     2  1  0.50        -3.4015   0.0000                                         
   Description                                                                  
     l       E           TYP  RCUT    TYP  RCUT                                 
     0     -6.4927494     23  1.300                                             
     0      6.8029130     23  1.300                                             
     1     -4.0817478     23  1.300                                             
  local pseudopotential read in
  atomic valenz-charges read in
  non local Contribution for L=           0  read in
    real space projection operators read in
  non local Contribution for L=           0  read in
    real space projection operators read in
  non local Contribution for L=           1  read in
    real space projection operators read in
    PAW grid and wavefunctions read in
 
   number of l-projection  operators is LMAX  =           3
   number of lm-projection operators is LMMAX =           5
 
  PAW_PBE N_s 07Sep2000                 :
 energy of atom  1       EATOM= -264.5486
 kinetic energy error for atom=    0.0003 (will be added to EATOM!!)
  PAW_PBE C_s 06Sep2000                 :
 energy of atom  2       EATOM= -147.1560
 kinetic energy error for atom=    0.0002 (will be added to EATOM!!)
  PAW_PBE H_s 15May2010                 :
 energy of atom  3       EATOM=  -12.4884
 kinetic energy error for atom=    0.0000 (will be added to EATOM!!)
 
 
 POSCAR: N C H                                   
  positions in cartesian coordinates
  No initial velocities read in
 exchange correlation table for  LEXCH =        8
   RHO(1)=    0.500       N(1)  =     2000
   RHO(2)=  100.500       N(2)  =     4000
 


--------------------------------------------------------------------------------------------------------


 ion  position               nearest neighbor table
   1  0.039  1.000  0.004-   2 1.34   6 1.34
   2  0.019  0.967  0.003-   7 1.08   1 1.34   3 1.39   6 2.28   4 2.39
   3  0.980  0.966  0.000-   8 1.08   4 1.39   2 1.39   5 2.39
   4  0.959  0.000  0.999-   9 1.08   5 1.39   3 1.39   6 2.39   2 2.39
   5  0.980  0.034  0.000-  10 1.08   4 1.39   6 1.39   3 2.39
   6  0.019  0.033  0.003-  11 1.08   1 1.34   5 1.39   2 2.28   4 2.39
   7  0.036  0.941  0.004-   2 1.08
   8  0.965  0.939  0.999-   3 1.08
   9  0.929  0.000  0.997-   4 1.08
  10  0.965  0.061  0.999-   5 1.08
  11  0.036  0.059  0.004-   6 1.08
 
  LATTYP: Found a simple cubic cell.
 ALAT       =    35.0000000000
  
  Lattice vectors:
  
 A1 = (  35.0000000000,   0.0000000000,   0.0000000000)
 A2 = (   0.0000000000,  35.0000000000,   0.0000000000)
 A3 = (   0.0000000000,   0.0000000000,  35.0000000000)


Analysis of symmetry for initial positions (statically):
=====================================================================
 Subroutine PRICEL returns:
 Original cell was already a primitive cell.
 

 Routine SETGRP: Setting up the symmetry group for a 
 simple cubic supercell.


 Subroutine GETGRP returns: Found  1 space group operations
 (whereof  1 operations were pure point group operations)
 out of a pool of 48 trial point group operations.


The static configuration has the point symmetry C_1 .


Analysis of symmetry for dynamics (positions and initial velocities):
=====================================================================
 Subroutine PRICEL returns:
 Original cell was already a primitive cell.
 

 Routine SETGRP: Setting up the symmetry group for a 
 simple cubic supercell.


 Subroutine GETGRP returns: Found  1 space group operations
 (whereof  1 operations were pure point group operations)
 out of a pool of 48 trial point group operations.


The dynamic configuration has the point symmetry C_1 .
 
 
 KPOINTS: automatic mesh                          

Automatic generation of k-mesh.
Space group operators:
 irot       det(A)        alpha          n_x          n_y          n_z        tau_x        tau_y        tau_z
    1     1.000000     0.000000     1.000000     0.000000     0.000000     0.000000     0.000000     0.000000
 
 Subroutine IBZKPT returns following result:
 ===========================================
 
 Found      1 irreducible k-points:
 
 Following reciprocal coordinates:
            Coordinates               Weight
  0.000000  0.000000  0.000000      1.000000
 
 Following cartesian coordinates:
            Coordinates               Weight
  0.000000  0.000000  0.000000      1.000000
 


--------------------------------------------------------------------------------------------------------




 Dimension of arrays:
   k-points           NKPTS =      1   k-points in BZ     NKDIM =      1   number of bands    NBANDS=     21
   number of dos      NEDOS =    301   number of ions     NIONS =     11
   non local maximal  LDIM  =      4   non local SUM 2l+1 LMDIM =      8
   total plane-waves  NPLWV = ******
   max r-space proj   IRMAX =      1   max aug-charges    IRDMAX=  32454
   dimension x,y,z NGX =   378 NGY =  378 NGZ =  378
   dimension x,y,z NGXF=   756 NGYF=  756 NGZF=  756
   support grid    NGXF=   756 NGYF=  756 NGZF=  756
   ions per type =               1   5   5
 NGX,Y,Z   is equivalent  to a cutoff of  17.95, 17.95, 17.95 a.u.
 NGXF,Y,Z  is equivalent  to a cutoff of  35.91, 35.91, 35.91 a.u.


 I would recommend the setting:
   dimension x,y,z NGX =   361 NGY =  361 NGZ =  361
 SYSTEM =  C                                       
 POSCAR =  N C H                                   

 Startparameter for this run:
   NWRITE =      2    write-flag & timer
   PREC   = acc       normal or accurate (medium, high low for compatibility)
   ISTART =      0    job   : 0-new  1-cont  2-samecut
   ICHARG =      2    charge: 1-file 2-atom 10-const
   ISPIN  =      1    spin polarized calculation?
   LNONCOLLINEAR =      F non collinear calculations
   LSORBIT =      F    spin-orbit coupling
   INIWAV =      1    electr: 0-lowe 1-rand  2-diag
   LASPH  =      T    aspherical Exc in radial PAW
   METAGGA=      F    non-selfconsistent MetaGGA calc.

 Electronic Relaxation 1
   ENCUT  = 1000.0 eV  73.50 Ry    8.57 a.u.  90.25 90.25 90.25*2*pi/ulx,y,z
   ENINI  = 1000.0     initial cutoff
   ENAUG  =  439.2 eV  augmentation charge cutoff
   NELM   =     60;   NELMIN=  2; NELMDL= -5     # of ELM steps 
   EDIFF  = 0.1E-06   stopping-criterion for ELM
   LREAL  =      F    real-space projection
   NLSPLINE    = F    spline interpolate recip. space projectors
   LCOMPAT=      F    compatible to vasp.4.4
   GGA_COMPAT  = T    GGA compatible to vasp.4.4-vasp.4.6
   LMAXPAW     = -100 max onsite density
   LMAXMIX     =    2 max onsite mixed and CHGCAR
   VOSKOWN=      0    Vosko Wilk Nusair interpolation
   ROPT   =    0.00000   0.00000   0.00000
 Ionic relaxation
   EDIFFG = 0.1E-05   stopping-criterion for IOM
   NSW    =      0    number of steps for IOM
   NBLOCK =      1;   KBLOCK =      1    inner block; outer block 
   IBRION =     -1    ionic relax: 0-MD 1-quasi-New 2-CG
   NFREE  =      0    steps in history (QN), initial steepest desc. (CG)
   ISIF   =      2    stress and relaxation
   IWAVPR =     10    prediction:  0-non 1-charg 2-wave 3-comb
   ISYM   =      2    0-nonsym 1-usesym 2-fastsym
   LCORR  =      T    Harris-Foulkes like correction to forces

   POTIM  = 0.5000    time-step for ionic-motion
   TEIN   =    0.0    initial temperature
   TEBEG  =    0.0;   TEEND  =   0.0 temperature during run
   SMASS  =  -3.00    Nose mass-parameter (am)
   estimated Nose-frequenzy (Omega)   =  0.10E-29 period in steps =****** mass=  -0.280E-25a.u.
   SCALEE = 1.0000    scale energy and forces
   NPACO  =    256;   APACO  = 16.0  distance and # of slots for P.C.
   PSTRESS=    0.0 pullay stress

  Mass of Ions in am
   POMASS =  14.00 12.01  1.00
  Ionic Valenz
   ZVAL   =   5.00  4.00  1.00
  Atomic Wigner-Seitz radii
   RWIGS  =  -1.00 -1.00 -1.00
  virtual crystal weights 
   VCA    =   1.00  1.00  1.00
   NELECT =      30.0000    total number of electrons
   NUPDOWN=      -1.0000    fix difference up-down

 DOS related values:
   EMIN   =  10.00;   EMAX   =-10.00  energy-range for DOS
   EFERMI =   0.00
   ISMEAR =     0;   SIGMA  =   0.01  broadening in eV -4-tet -1-fermi 0-gaus

 Electronic relaxation 2 (details)
   IALGO  =     38    algorithm
   LDIAG  =      T    sub-space diagonalisation (order eigenvalues)
   LSUBROT=      F    optimize rotation matrix (better conditioning)
   TURBO    =      0    0=normal 1=particle mesh
   IRESTART =      0    0=no restart 2=restart with 2 vectors
   NREBOOT  =      0    no. of reboots
   NMIN     =      0    reboot dimension
   EREF     =   0.00    reference energy to select bands
   IMIX   =      4    mixing-type and parameters
     AMIX     =   0.40;   BMIX     =  1.00
     AMIX_MAG =   1.60;   BMIX_MAG =  1.00
     AMIN     =   0.10
     WC   =   100.;   INIMIX=   1;  MIXPRE=   1;  MAXMIX= -45

 Intra band minimization:
   WEIMIN = 0.0000     energy-eigenvalue tresh-hold
   EBREAK =  0.12E-08  absolut break condition
   DEPER  =   0.30     relativ break condition  

   TIME   =   0.40     timestep for ELM

  volume/ion in A,a.u.               =    3897.73     26303.16
  Fermi-wavevector in a.u.,A,eV,Ry     =   0.145338  0.274650  0.287399  0.021123
  Thomas-Fermi vector in A             =   0.812913
 
 Write flags
   LWAVE  =      T    write WAVECAR
   LCHARG =      T    write CHGCAR
   LVTOT  =      F    write LOCPOT, total local potential
   LVHAR  =      F    write LOCPOT, Hartree potential only
   LELF   =      F    write electronic localiz. function (ELF)
   LORBIT =      0    0 simple, 1 ext, 2 COOP (PROOUT)


 Dipole corrections
   LMONO  =      F    monopole corrections only (constant potential shift)
   LDIPOL =      F    correct potential (dipole corrections)
   IDIPOL =      0    1-x, 2-y, 3-z, 4-all directions 
   EPSILON=  1.0000000 bulk dielectric constant

 Exchange correlation treatment:
   GGA     =    --    GGA type
   LEXCH   =     8    internal setting for exchange type
   VOSKOWN=      0    Vosko Wilk Nusair interpolation
   LHFCALC =     F    Hartree Fock is set to
   LHFONE  =     F    Hartree Fock one center treatment
   AEXX    =    0.0000 exact exchange contribution

 Linear response parameters
   LEPSILON=     F    determine dielectric tensor
   LRPA    =     F    only Hartree local field effects (RPA)
   LNABLA  =     F    use nabla operator in PAW spheres
   LVEL    =     F    velocity operator in full k-point grid
   LINTERFAST=   F  fast interpolation
   KINTER  =     0    interpolate to denser k-point grid
   CSHIFT  =0.1000    complex shift for real part using Kramers Kronig
   OMEGAMAX=  -1.0    maximum frequency
   DEG_THRESHOLD= 0.2000000E-02 threshold for treating states as degnerate
   RTIME   =    0.100 relaxation time in fs

 Orbital magnetization related:
   ORBITALMAG=     F  switch on orbital magnetization
   LCHIMAG   =     F  perturbation theory with respect to B field
   DQ        =  0.001000  dq finite difference perturbation B field



--------------------------------------------------------------------------------------------------------


 Static calculation
 charge density and potential will be updated during run
 non-spin polarized calculation
 Variant of blocked Davidson
 Davidson routine will perform the subspace rotation
 perform sub-space diagonalisation
    after iterative eigenvector-optimisation
 modified Broyden-mixing scheme, WC =      100.0
 initial mixing is a Kerker type mixing with AMIX =  0.4000 and BMIX =      1.0000
 Hartree-type preconditioning will be used
 using additional bands            6
 reciprocal scheme for non local part
 calculate Harris-corrections to forces 
   (improved forces if not selfconsistent)
 use gradient corrections 
 use of overlap-Matrix (Vanderbilt PP)
 Gauss-broadening in eV      SIGMA  =   0.01


--------------------------------------------------------------------------------------------------------


  energy-cutoff  :     1000.00
  volume of cell :    42875.00
      direct lattice vectors                 reciprocal lattice vectors
    35.000000000  0.000000000  0.000000000     0.028571429  0.000000000  0.000000000
     0.000000000 35.000000000  0.000000000     0.000000000  0.028571429  0.000000000
     0.000000000  0.000000000 35.000000000     0.000000000  0.000000000  0.028571429

  length of vectors
    35.000000000 35.000000000 35.000000000     0.028571429  0.028571429  0.028571429


 
 k-points in units of 2pi/SCALE and weight: automatic mesh                          
   0.00000000  0.00000000  0.00000000       1.000
 
 k-points in reciprocal lattice and weights: automatic mesh                          
   0.00000000  0.00000000  0.00000000       1.000
 
 position of ions in fractional coordinates (direct lattice) 
   0.03946806  0.99999333  0.00375611
   0.01941002  0.96742173  0.00263085
   0.97972222  0.96591103  0.00019041
   0.95938247  0.00000381  0.99883380
   0.97973139  0.03409073  0.00018634
   0.01941862  0.03257018  0.00262552
   0.03596342  0.94128679  0.00359667
   0.96531178  0.93861252  0.99927690
   0.92855154  0.00000736  0.99688086
   0.96532824  0.06139280  0.99927062
   0.03597888  0.05870031  0.00358579
 
 position of ions in cartesian coordinates  (Angst):
   1.38138219 34.99976652  0.13146374
   0.67935079 33.85976054  0.09207966
  34.29027768 33.80688593  0.00666427
  33.57838643  0.00013343 34.95918310
  34.29059880  1.19317538  0.00652198
   0.67965167  1.13995623  0.09189303
   1.25871960 32.94503777  0.12588361
  33.78591232 32.85143837 34.97469149
  32.49930385  0.00025757 34.89083027
  33.78648837  2.14874784 34.97447169
   1.25926073  2.05451090  0.12550248
 


--------------------------------------------------------------------------------------------------------


 use parallel FFT for wavefunctions z direction half grid
 k-point  1 :   0.0000 0.0000 0.0000  plane waves: 1539209

 maximum and minimum number of plane-waves per node :    192406   192397

 maximum number of plane-waves:   1539209
 maximum index in each direction: 
   IXMAX=   90   IYMAX=   90   IZMAX=   90
   IXMIN=  -90   IYMIN=  -90   IZMIN=    0

 NGX is ok and might be reduce to 362
 NGY is ok and might be reduce to 362
 NGZ is ok and might be reduce to 362

 parallel 3D FFT for wavefunctions:
    minimum data exchange during FFTs selected (reduces bandwidth)
 parallel 3D FFT for charge:
    minimum data exchange during FFTs selected (reduces bandwidth)


 total amount of memory used by VASP on root node  5886585. kBytes
========================================================================

   base      :      30000. kBytes
   nonl-proj :      70805. kBytes
   fftplans  :    1964666. kBytes
   grid      :    3756461. kBytes
   one-center:          3. kBytes
   wavefun   :      64650. kBytes
 
     INWAV:  cpu time    0.0000: real time    0.0000
 Broyden mixing: mesh for mixing (old mesh)
   NGX =181   NGY =181   NGZ =181
  (NGX  =756   NGY  =756   NGZ  =756)
  gives a total of ****** points

 initial charge density was supplied:
 charge density of overlapping atoms calculated
 number of electron      30.0000000 magnetization 
 keeping initial charge density in first step


--------------------------------------------------------------------------------------------------------


 Maximum index for augmentation-charges         3927 (set IRDMAX)


--------------------------------------------------------------------------------------------------------


 First call to EWALD:  gamma=   0.051
 Maximum number of real-space cells 3x 3x 3
 Maximum number of reciprocal cells 3x 3x 3

 FEWALD executed in parallel
    FEWALD:  cpu time    0.0012: real time    0.0012


----------------------------------------- Iteration    1(   1)  ---------------------------------------


    POTLOK:  cpu time   26.1883: real time   26.2520
    SETDIJ:  cpu time    0.0942: real time    0.0945
     EDDAV:  cpu time   21.0105: real time   21.0618
       DOS:  cpu time    0.0001: real time    0.0001
    --------------------------------------------
      LOOP:  cpu time   47.2947: real time   47.4112

 eigenvalue-minimisations  :    58
 total energy-change (2. order) : 0.2658652E+03  (-0.5057839E+03)
 number of electron      30.0000000 magnetization 
 augmentation part       30.0000000 magnetization 

 Free energy of the ion-electron system (eV)
  ---------------------------------------------------
  alpha Z        PSCENC =         0.06079025
  Ewald energy   TEWEN  =      2322.05012885
  -Hartree energ DENC   =     -3034.54230439
  -exchange      EXHF   =         0.00000000
  -V(xc)+E(xc)   XCENC  =        99.19847824
  PAW double counting   =       762.31245869     -767.31176797
  entropy T*S    EENTRO =        -0.00000049
  eigenvalues    EBANDS =      -178.67169414
  atomic energy  EATOM  =      1062.76909484
  Solvation  Ediel_sol  =         0.00000000
  ---------------------------------------------------
  free energy    TOTEN  =       265.86518388 eV

  energy without entropy =      265.86518438  energy(sigma->0) =      265.86518413


--------------------------------------------------------------------------------------------------------




----------------------------------------- Iteration    1(   2)  ---------------------------------------


     EDDAV:  cpu time   27.7947: real time   27.8625
       DOS:  cpu time    0.0000: real time    0.0000
    --------------------------------------------
      LOOP:  cpu time   27.7961: real time   27.8660

 eigenvalue-minimisations  :    84
 total energy-change (2. order) :-0.1757638E+03  (-0.1703814E+03)
 number of electron      30.0000000 magnetization 
 augmentation part       30.0000000 magnetization 

 Free energy of the ion-electron system (eV)
  ---------------------------------------------------
  alpha Z        PSCENC =         0.06079025
  Ewald energy   TEWEN  =      2322.05012885
  -Hartree energ DENC   =     -3034.54230439
  -exchange      EXHF   =         0.00000000
  -V(xc)+E(xc)   XCENC  =        99.19847824
  PAW double counting   =       762.31245869     -767.31176797
  entropy T*S    EENTRO =        -0.00000000
  eigenvalues    EBANDS =      -354.43552371
  atomic energy  EATOM  =      1062.76909484
  Solvation  Ediel_sol  =         0.00000000
  ---------------------------------------------------
  free energy    TOTEN  =        90.10135481 eV

  energy without entropy =       90.10135481  energy(sigma->0) =       90.10135481


--------------------------------------------------------------------------------------------------------




----------------------------------------- Iteration    1(   3)  ---------------------------------------


     EDDAV:  cpu time   25.4700: real time   25.5320
       DOS:  cpu time    0.0000: real time    0.0000
    --------------------------------------------
      LOOP:  cpu time   25.4714: real time   25.5354

 eigenvalue-minimisations  :    76
 total energy-change (2. order) :-0.1393765E+03  (-0.1389669E+03)
 number of electron      30.0000000 magnetization 
 augmentation part       30.0000000 magnetization 

 Free energy of the ion-electron system (eV)
  ---------------------------------------------------
  alpha Z        PSCENC =         0.06079025
  Ewald energy   TEWEN  =      2322.05012885
  -Hartree energ DENC   =     -3034.54230439
  -exchange      EXHF   =         0.00000000
  -V(xc)+E(xc)   XCENC  =        99.19847824
  PAW double counting   =       762.31245869     -767.31176797
  entropy T*S    EENTRO =        -0.00000000
  eigenvalues    EBANDS =      -493.81205615
  atomic energy  EATOM  =      1062.76909484
  Solvation  Ediel_sol  =         0.00000000
  ---------------------------------------------------
  free energy    TOTEN  =       -49.27517763 eV

  energy without entropy =      -49.27517763  energy(sigma->0) =      -49.27517763


--------------------------------------------------------------------------------------------------------




----------------------------------------- Iteration    1(   4)  ---------------------------------------


     EDDAV:  cpu time   19.1014: real time   19.1479
       DOS:  cpu time    0.0000: real time    0.0000
    --------------------------------------------
      LOOP:  cpu time   19.1041: real time   19.1529

 eigenvalue-minimisations  :    52
 total energy-change (2. order) :-0.2768691E+02  (-0.2767371E+02)
 number of electron      30.0000000 magnetization 
 augmentation part       30.0000000 magnetization 

 Free energy of the ion-electron system (eV)
  ---------------------------------------------------
  alpha Z        PSCENC =         0.06079025
  Ewald energy   TEWEN  =      2322.05012885
  -Hartree energ DENC   =     -3034.54230439
  -exchange      EXHF   =         0.00000000
  -V(xc)+E(xc)   XCENC  =        99.19847824
  PAW double counting   =       762.31245869     -767.31176797
  entropy T*S    EENTRO =        -0.00000000
  eigenvalues    EBANDS =      -521.49896181
  atomic energy  EATOM  =      1062.76909484
  Solvation  Ediel_sol  =         0.00000000
  ---------------------------------------------------
  free energy    TOTEN  =       -76.96208330 eV

  energy without entropy =      -76.96208330  energy(sigma->0) =      -76.96208330


--------------------------------------------------------------------------------------------------------




----------------------------------------- Iteration    1(   5)  ---------------------------------------


     EDDAV:  cpu time   23.3563: real time   23.4131
       DOS:  cpu time    0.0000: real time    0.0000
    CHARGE:  cpu time    3.7271: real time    3.7362
    MIXING:  cpu time    0.6848: real time    0.6864
    --------------------------------------------
      LOOP:  cpu time   27.7715: real time   27.8411

 eigenvalue-minimisations  :    68
 total energy-change (2. order) :-0.1304415E+01  (-0.1302756E+01)
 number of electron      30.0000000 magnetization 
 augmentation part        1.9032184 magnetization 

 Broyden mixing:
  rms(total) = 0.41017E+01    rms(broyden)= 0.41017E+01
  rms(prec ) = 0.41158E+01
  weight for this iteration     100.00

 Free energy of the ion-electron system (eV)
  ---------------------------------------------------
  alpha Z        PSCENC =         0.06079025
  Ewald energy   TEWEN  =      2322.05012885
  -Hartree energ DENC   =     -3034.54230439
  -exchange      EXHF   =         0.00000000
  -V(xc)+E(xc)   XCENC  =        99.19847824
  PAW double counting   =       762.31245869     -767.31176797
  entropy T*S    EENTRO =        -0.00000000
  eigenvalues    EBANDS =      -522.80337711
  atomic energy  EATOM  =      1062.76909484
  Solvation  Ediel_sol  =         0.00000000
  ---------------------------------------------------
  free energy    TOTEN  =       -78.26649859 eV

  energy without entropy =      -78.26649859  energy(sigma->0) =      -78.26649859


--------------------------------------------------------------------------------------------------------




----------------------------------------- Iteration    1(   6)  ---------------------------------------


    POTLOK:  cpu time   29.9517: real time   30.0246
    SETDIJ:  cpu time    0.4100: real time    0.4110
     EDDAV:  cpu time   26.0634: real time   26.1269
       DOS:  cpu time    0.0000: real time    0.0000
    CHARGE:  cpu time    3.6598: real time    3.6687
    MIXING:  cpu time    0.8909: real time    0.8931
    --------------------------------------------
      LOOP:  cpu time   60.9774: real time   61.1280

 eigenvalue-minimisations  :    68
 total energy-change (2. order) : 0.5476833E+01  (-0.8281024E+00)
 number of electron      30.0000000 magnetization 
 augmentation part        1.7071642 magnetization 

 Broyden mixing:
  rms(total) = 0.30753E+01    rms(broyden)= 0.30753E+01
  rms(prec ) = 0.30799E+01
  weight for this iteration     100.00

 eigenvalues of (default mixing * dielectric matrix)
  average eigenvalue GAMMA=   2.8745
  2.8745

 Free energy of the ion-electron system (eV)
  ---------------------------------------------------
  alpha Z        PSCENC =         0.06079025
  Ewald energy   TEWEN  =      2322.05012885
  -Hartree energ DENC   =     -3093.79323186
  -exchange      EXHF   =         0.00000000
  -V(xc)+E(xc)   XCENC  =       102.00814110
  PAW double counting   =      2624.04229304    -2630.18548761
  entropy T*S    EENTRO =        -0.00000000
  eigenvalues    EBANDS =      -459.74139465
  atomic energy  EATOM  =      1062.76909484
  Solvation  Ediel_sol  =         0.00000000
  ---------------------------------------------------
  free energy    TOTEN  =       -72.78966606 eV

  energy without entropy =      -72.78966606  energy(sigma->0) =      -72.78966606


--------------------------------------------------------------------------------------------------------




----------------------------------------- Iteration    1(   7)  ---------------------------------------


    POTLOK:  cpu time   31.0481: real time   31.1235
    SETDIJ:  cpu time    0.4096: real time    0.4106
     EDDAV:  cpu time   24.5944: real time   24.6542
       DOS:  cpu time    0.0000: real time    0.0000
    CHARGE:  cpu time    3.6622: real time    3.6711
    MIXING:  cpu time    0.9087: real time    0.9109
    --------------------------------------------
      LOOP:  cpu time   60.6246: real time   60.7737

 eigenvalue-minimisations  :    63
 total energy-change (2. order) : 0.1382944E+01  (-0.1246582E+01)
 number of electron      30.0000000 magnetization 
 augmentation part        1.5200601 magnetization 

 Broyden mixing:
  rms(total) = 0.52088E+00    rms(broyden)= 0.52088E+00
  rms(prec ) = 0.52895E+00
  weight for this iteration     100.00

 eigenvalues of (default mixing * dielectric matrix)
  average eigenvalue GAMMA=   1.8664
  1.2110  2.5217

 Free energy of the ion-electron system (eV)
  ---------------------------------------------------
  alpha Z        PSCENC =         0.06079025
  Ewald energy   TEWEN  =      2322.05012885
  -Hartree energ DENC   =     -3180.19369879
  -exchange      EXHF   =         0.00000000
  -V(xc)+E(xc)   XCENC  =       106.52450066
  PAW double counting   =     10455.78845065   -10463.73108027
  entropy T*S    EENTRO =        -0.00000000
  eigenvalues    EBANDS =      -374.67490792
  atomic energy  EATOM  =      1062.76909484
  Solvation  Ediel_sol  =         0.00000000
  ---------------------------------------------------
  free energy    TOTEN  =       -71.40672173 eV

  energy without entropy =      -71.40672173  energy(sigma->0) =      -71.40672173


--------------------------------------------------------------------------------------------------------




----------------------------------------- Iteration    1(   8)  ---------------------------------------


    POTLOK:  cpu time   31.0837: real time   31.1593
    SETDIJ:  cpu time    0.4104: real time    0.4114
     EDDAV:  cpu time   26.0568: real time   26.1202
       DOS:  cpu time    0.0000: real time    0.0000
    CHARGE:  cpu time    3.6646: real time    3.6736
    MIXING:  cpu time    0.9292: real time    0.9314
    --------------------------------------------
      LOOP:  cpu time   62.1463: real time   62.2993

 eigenvalue-minimisations  :    68
 total energy-change (2. order) : 0.3773373E+00  (-0.1462588E+00)
 number of electron      30.0000000 magnetization 
 augmentation part        1.5762109 magnetization 

 Broyden mixing:
  rms(total) = 0.21265E+00    rms(broyden)= 0.21265E+00
  rms(prec ) = 0.21443E+00
  weight for this iteration     100.00

 eigenvalues of (default mixing * dielectric matrix)
  average eigenvalue GAMMA=   1.6411
  2.5214  1.5233  0.8785

 Free energy of the ion-electron system (eV)
  ---------------------------------------------------
  alpha Z        PSCENC =         0.06079025
  Ewald energy   TEWEN  =      2322.05012885
  -Hartree energ DENC   =     -3161.88738867
  -exchange      EXHF   =         0.00000000
  -V(xc)+E(xc)   XCENC  =       105.53029126
  PAW double counting   =      9904.65482532    -9912.25179753
  entropy T*S    EENTRO =        -0.00000000
  eigenvalues    EBANDS =      -391.95532873
  atomic energy  EATOM  =      1062.76909484
  Solvation  Ediel_sol  =         0.00000000
  ---------------------------------------------------
  free energy    TOTEN  =       -71.02938441 eV

  energy without entropy =      -71.02938441  energy(sigma->0) =      -71.02938441


--------------------------------------------------------------------------------------------------------




----------------------------------------- Iteration    1(   9)  ---------------------------------------


    POTLOK:  cpu time   31.1896: real time   31.2653
    SETDIJ:  cpu time    0.4121: real time    0.4131
     EDDAV:  cpu time   25.7147: real time   25.7773
       DOS:  cpu time    0.0000: real time    0.0000
    CHARGE:  cpu time    3.6602: real time    3.6691
    MIXING:  cpu time    0.9619: real time    0.9642
    --------------------------------------------
      LOOP:  cpu time   61.9402: real time   62.0923

 eigenvalue-minimisations  :    66
 total energy-change (2. order) : 0.1411958E-01  (-0.1278392E-01)
 number of electron      30.0000000 magnetization 
 augmentation part        1.5885547 magnetization 

 Broyden mixing:
  rms(total) = 0.64341E-01    rms(broyden)= 0.64341E-01
  rms(prec ) = 0.66962E-01
  weight for this iteration     100.00

 eigenvalues of (default mixing * dielectric matrix)
  average eigenvalue GAMMA=   1.4722
  2.2540  1.7154  0.9598  0.9598

 Free energy of the ion-electron system (eV)
  ---------------------------------------------------
  alpha Z        PSCENC =         0.06079025
  Ewald energy   TEWEN  =      2322.05012885
  -Hartree energ DENC   =     -3161.30717832
  -exchange      EXHF   =         0.00000000
  -V(xc)+E(xc)   XCENC  =       105.43453561
  PAW double counting   =     10109.14286668   -10116.68020965
  entropy T*S    EENTRO =        -0.00000000
  eigenvalues    EBANDS =      -392.48529308
  atomic energy  EATOM  =      1062.76909484
  Solvation  Ediel_sol  =         0.00000000
  ---------------------------------------------------
  free energy    TOTEN  =       -71.01526483 eV

  energy without entropy =      -71.01526483  energy(sigma->0) =      -71.01526483


--------------------------------------------------------------------------------------------------------




----------------------------------------- Iteration    1(  10)  ---------------------------------------


    POTLOK:  cpu time   31.1204: real time   31.1961
    SETDIJ:  cpu time    0.4142: real time    0.4152
     EDDAV:  cpu time   26.0917: real time   26.1553
       DOS:  cpu time    0.0000: real time    0.0000
    CHARGE:  cpu time    3.6711: real time    3.6801
    MIXING:  cpu time    0.9716: real time    0.9739
    --------------------------------------------
      LOOP:  cpu time   62.2706: real time   62.4238

 eigenvalue-minimisations  :    68
 total energy-change (2. order) : 0.5770812E-03  (-0.3616512E-03)
 number of electron      30.0000000 magnetization 
 augmentation part        1.5888595 magnetization 

 Broyden mixing:
  rms(total) = 0.29003E-01    rms(broyden)= 0.29003E-01
  rms(prec ) = 0.33138E-01
  weight for this iteration     100.00

 eigenvalues of (default mixing * dielectric matrix)
  average eigenvalue GAMMA=   1.5997
  2.3772  2.3772  1.2122  1.0160  1.0160

 Free energy of the ion-electron system (eV)
  ---------------------------------------------------
  alpha Z        PSCENC =         0.06079025
  Ewald energy   TEWEN  =      2322.05012885
  -Hartree energ DENC   =     -3162.84427416
  -exchange      EXHF   =         0.00000000
  -V(xc)+E(xc)   XCENC  =       105.43291826
  PAW double counting   =      9922.93209769    -9930.43757583
  entropy T*S    EENTRO =        -0.00000000
  eigenvalues    EBANDS =      -390.97786765
  atomic energy  EATOM  =      1062.76909484
  Solvation  Ediel_sol  =         0.00000000
  ---------------------------------------------------
  free energy    TOTEN  =       -71.01468775 eV

  energy without entropy =      -71.01468775  energy(sigma->0) =      -71.01468775


--------------------------------------------------------------------------------------------------------




----------------------------------------- Iteration    1(  11)  ---------------------------------------


    POTLOK:  cpu time   31.2096: real time   31.2854
    SETDIJ:  cpu time    0.4123: real time    0.4133
     EDDAV:  cpu time   23.1556: real time   23.2120
       DOS:  cpu time    0.0000: real time    0.0000
    CHARGE:  cpu time    3.6540: real time    3.6629
    MIXING:  cpu time    1.0052: real time    1.0076
    --------------------------------------------
      LOOP:  cpu time   59.4382: real time   59.5848

 eigenvalue-minimisations  :    58
 total energy-change (2. order) : 0.4232416E-02  (-0.4716486E-03)
 number of electron      30.0000000 magnetization 
 augmentation part        1.5876423 magnetization 

 Broyden mixing:
  rms(total) = 0.10636E-01    rms(broyden)= 0.10636E-01
  rms(prec ) = 0.15012E-01
  weight for this iteration     100.00

 eigenvalues of (default mixing * dielectric matrix)
  average eigenvalue GAMMA=   1.6242
  2.5918  2.5918  1.4706  1.0830  1.0041  1.0041

 Free energy of the ion-electron system (eV)
  ---------------------------------------------------
  alpha Z        PSCENC =         0.06079025
  Ewald energy   TEWEN  =      2322.05012885
  -Hartree energ DENC   =     -3167.20342396
  -exchange      EXHF   =         0.00000000
  -V(xc)+E(xc)   XCENC  =       105.52128515
  PAW double counting   =      9947.40838459    -9954.90577150
  entropy T*S    EENTRO =        -0.00000000
  eigenvalues    EBANDS =      -386.71094354
  atomic energy  EATOM  =      1062.76909484
  Solvation  Ediel_sol  =         0.00000000
  ---------------------------------------------------
  free energy    TOTEN  =       -71.01045533 eV

  energy without entropy =      -71.01045533  energy(sigma->0) =      -71.01045533


--------------------------------------------------------------------------------------------------------




----------------------------------------- Iteration    1(  12)  ---------------------------------------


    POTLOK:  cpu time   31.0746: real time   31.1501
    SETDIJ:  cpu time    0.4107: real time    0.4117
     EDDAV:  cpu time   19.8277: real time   19.8760
       DOS:  cpu time    0.0000: real time    0.0000
    CHARGE:  cpu time    3.6638: real time    3.6727
    MIXING:  cpu time    1.0366: real time    1.0391
    --------------------------------------------
      LOOP:  cpu time   56.0149: real time   56.2301

 eigenvalue-minimisations  :    47
 total energy-change (2. order) :-0.2369520E-02  (-0.2664110E-03)
 number of electron      30.0000000 magnetization 
 augmentation part        1.5863938 magnetization 

 Broyden mixing:
  rms(total) = 0.73053E-02    rms(broyden)= 0.73053E-02
  rms(prec ) = 0.10153E-01
  weight for this iteration     100.00

 eigenvalues of (default mixing * dielectric matrix)
  average eigenvalue GAMMA=   1.7579
  3.0004  2.8701  2.0694  1.4264  1.0012  1.0012  0.9364

 Free energy of the ion-electron system (eV)
  ---------------------------------------------------
  alpha Z        PSCENC =         0.06079025
  Ewald energy   TEWEN  =      2322.05012885
  -Hartree energ DENC   =     -3170.33158367
  -exchange      EXHF   =         0.00000000
  -V(xc)+E(xc)   XCENC  =       105.58086646
  PAW double counting   =      9950.09809344    -9957.59619765
  entropy T*S    EENTRO =        -0.00000000
  eigenvalues    EBANDS =      -383.64401737
  atomic energy  EATOM  =      1062.76909484
  Solvation  Ediel_sol  =         0.00000000
  ---------------------------------------------------
  free energy    TOTEN  =       -71.01282485 eV

  energy without entropy =      -71.01282485  energy(sigma->0) =      -71.01282485


--------------------------------------------------------------------------------------------------------




----------------------------------------- Iteration    1(  13)  ---------------------------------------


    POTLOK:  cpu time   31.1969: real time   31.2727
    SETDIJ:  cpu time    0.4130: real time    0.4140
     EDDAV:  cpu time   22.4963: real time   22.5510
       DOS:  cpu time    0.0000: real time    0.0000
    CHARGE:  cpu time    3.6683: real time    3.6772
    MIXING:  cpu time    1.0644: real time    1.0670
    --------------------------------------------
      LOOP:  cpu time   58.8404: real time   58.9855

 eigenvalue-minimisations  :    55
 total energy-change (2. order) :-0.5929562E-02  (-0.1805582E-03)
 number of electron      30.0000000 magnetization 
 augmentation part        1.5855727 magnetization 

 Broyden mixing:
  rms(total) = 0.41585E-02    rms(broyden)= 0.41585E-02
  rms(prec ) = 0.57869E-02
  weight for this iteration     100.00

 eigenvalues of (default mixing * dielectric matrix)
  average eigenvalue GAMMA=   1.8185
  4.4361  2.4543  2.1855  1.5422  0.9939  0.9939  0.8945  1.0476

 Free energy of the ion-electron system (eV)
  ---------------------------------------------------
  alpha Z        PSCENC =         0.06079025
  Ewald energy   TEWEN  =      2322.05012885
  -Hartree energ DENC   =     -3172.84446558
  -exchange      EXHF   =         0.00000000
  -V(xc)+E(xc)   XCENC  =       105.61117722
  PAW double counting   =      9929.26545502    -9936.76171202
  entropy T*S    EENTRO =        -0.00000000
  eigenvalues    EBANDS =      -381.16922298
  atomic energy  EATOM  =      1062.76909484
  Solvation  Ediel_sol  =         0.00000000
  ---------------------------------------------------
  free energy    TOTEN  =       -71.01875441 eV

  energy without entropy =      -71.01875441  energy(sigma->0) =      -71.01875441


--------------------------------------------------------------------------------------------------------




----------------------------------------- Iteration    1(  14)  ---------------------------------------


    POTLOK:  cpu time   31.1881: real time   31.2639
    SETDIJ:  cpu time    0.4090: real time    0.4100
     EDDAV:  cpu time   26.4518: real time   26.5161
       DOS:  cpu time    0.0000: real time    0.0000
    CHARGE:  cpu time    3.6712: real time    3.6802
    MIXING:  cpu time    1.0923: real time    1.0949
    --------------------------------------------
      LOOP:  cpu time   62.8140: real time   62.9683

 eigenvalue-minimisations  :    68
 total energy-change (2. order) :-0.3415686E-02  (-0.5385142E-04)
 number of electron      30.0000000 magnetization 
 augmentation part        1.5856201 magnetization 

 Broyden mixing:
  rms(total) = 0.36915E-02    rms(broyden)= 0.36915E-02
  rms(prec ) = 0.44917E-02
  weight for this iteration     100.00

 eigenvalues of (default mixing * dielectric matrix)
  average eigenvalue GAMMA=   1.7954
  4.5660  2.6637  2.0072  1.7265  0.9582  0.9582  1.0765  1.1010  1.1010

 Free energy of the ion-electron system (eV)
  ---------------------------------------------------
  alpha Z        PSCENC =         0.06079025
  Ewald energy   TEWEN  =      2322.05012885
  -Hartree energ DENC   =     -3174.08374866
  -exchange      EXHF   =         0.00000000
  -V(xc)+E(xc)   XCENC  =       105.62152588
  PAW double counting   =      9929.34329138    -9936.83797368
  entropy T*S    EENTRO =        -0.00000000
  eigenvalues    EBANDS =      -379.94527895
  atomic energy  EATOM  =      1062.76909484
  Solvation  Ediel_sol  =         0.00000000
  ---------------------------------------------------
  free energy    TOTEN  =       -71.02217010 eV

  energy without entropy =      -71.02217010  energy(sigma->0) =      -71.02217010


--------------------------------------------------------------------------------------------------------




----------------------------------------- Iteration    1(  15)  ---------------------------------------


    POTLOK:  cpu time   31.1988: real time   31.2746
    SETDIJ:  cpu time    0.4098: real time    0.4108
     EDDAV:  cpu time   21.0502: real time   21.1014
       DOS:  cpu time    0.0000: real time    0.0000
    CHARGE:  cpu time    3.6480: real time    3.6569
    MIXING:  cpu time    1.1336: real time    1.1363
    --------------------------------------------
      LOOP:  cpu time   57.4420: real time   57.5835

 eigenvalue-minimisations  :    50
 total energy-change (2. order) :-0.4266716E-02  (-0.2514428E-04)
 number of electron      30.0000000 magnetization 
 augmentation part        1.5856184 magnetization 

 Broyden mixing:
  rms(total) = 0.18299E-02    rms(broyden)= 0.18299E-02
  rms(prec ) = 0.25614E-02
  weight for this iteration     100.00

 eigenvalues of (default mixing * dielectric matrix)
  average eigenvalue GAMMA=   2.0391
  6.2824  2.8067  2.4365  2.2552  1.5623  1.1819  0.9340  0.9340  0.9989  0.9989

 Free energy of the ion-electron system (eV)
  ---------------------------------------------------
  alpha Z        PSCENC =         0.06079025
  Ewald energy   TEWEN  =      2322.05012885
  -Hartree energ DENC   =     -3174.48852312
  -exchange      EXHF   =         0.00000000
  -V(xc)+E(xc)   XCENC  =       105.61736178
  PAW double counting   =      9922.47474455    -9929.96923882
  entropy T*S    EENTRO =        -0.00000000
  eigenvalues    EBANDS =      -379.54079513
  atomic energy  EATOM  =      1062.76909484
  Solvation  Ediel_sol  =         0.00000000
  ---------------------------------------------------
  free energy    TOTEN  =       -71.02643682 eV

  energy without entropy =      -71.02643682  energy(sigma->0) =      -71.02643682


--------------------------------------------------------------------------------------------------------




----------------------------------------- Iteration    1(  16)  ---------------------------------------


    POTLOK:  cpu time   31.1803: real time   31.2561
    SETDIJ:  cpu time    0.4089: real time    0.4098
     EDDAV:  cpu time   20.9166: real time   20.9675
       DOS:  cpu time    0.0000: real time    0.0000
    CHARGE:  cpu time    3.6567: real time    3.6656
    MIXING:  cpu time    1.1624: real time    1.1652
    --------------------------------------------
      LOOP:  cpu time   57.3265: real time   57.4677

 eigenvalue-minimisations  :    50
 total energy-change (2. order) :-0.4744538E-02  (-0.4886001E-04)
 number of electron      30.0000000 magnetization 
 augmentation part        1.5853451 magnetization 

 Broyden mixing:
  rms(total) = 0.13712E-02    rms(broyden)= 0.13712E-02
  rms(prec ) = 0.16123E-02
  weight for this iteration     100.00

 eigenvalues of (default mixing * dielectric matrix)
  average eigenvalue GAMMA=   1.9610
  6.5060  3.0475  2.4855  2.0880  1.4677  1.0422  1.0422  1.1445  0.8990  0.9242
  0.9242

 Free energy of the ion-electron system (eV)
  ---------------------------------------------------
  alpha Z        PSCENC =         0.06079025
  Ewald energy   TEWEN  =      2322.05012885
  -Hartree energ DENC   =     -3175.10451354
  -exchange      EXHF   =         0.00000000
  -V(xc)+E(xc)   XCENC  =       105.61670963
  PAW double counting   =      9922.45915034    -9929.95442617
  entropy T*S    EENTRO =        -0.00000000
  eigenvalues    EBANDS =      -378.92811555
  atomic energy  EATOM  =      1062.76909484
  Solvation  Ediel_sol  =         0.00000000
  ---------------------------------------------------
  free energy    TOTEN  =       -71.03118135 eV

  energy without entropy =      -71.03118135  energy(sigma->0) =      -71.03118135


--------------------------------------------------------------------------------------------------------




----------------------------------------- Iteration    1(  17)  ---------------------------------------


    POTLOK:  cpu time   31.2324: real time   31.3084
    SETDIJ:  cpu time    0.4119: real time    0.4129
     EDDAV:  cpu time   28.7187: real time   28.7886
       DOS:  cpu time    0.0000: real time    0.0000
    CHARGE:  cpu time    3.6515: real time    3.6604
    MIXING:  cpu time    1.2060: real time    1.2089
    --------------------------------------------
      LOOP:  cpu time   65.2220: real time   65.3828

 eigenvalue-minimisations  :    76
 total energy-change (2. order) :-0.9801481E-03  (-0.3449946E-05)
 number of electron      30.0000000 magnetization 
 augmentation part        1.5853529 magnetization 

 Broyden mixing:
  rms(total) = 0.87381E-03    rms(broyden)= 0.87381E-03
  rms(prec ) = 0.11049E-02
  weight for this iteration     100.00

 eigenvalues of (default mixing * dielectric matrix)
  average eigenvalue GAMMA=   2.0501
  7.3349  3.5091  2.2868  2.2868  1.6677  1.6677  1.1606  0.9915  0.9915  0.9788
  0.9788  0.7465

 Free energy of the ion-electron system (eV)
  ---------------------------------------------------
  alpha Z        PSCENC =         0.06079025
  Ewald energy   TEWEN  =      2322.05012885
  -Hartree energ DENC   =     -3175.14533593
  -exchange      EXHF   =         0.00000000
  -V(xc)+E(xc)   XCENC  =       105.61490914
  PAW double counting   =      9923.42119493    -9930.91629527
  entropy T*S    EENTRO =        -0.00000000
  eigenvalues    EBANDS =      -378.88664831
  atomic energy  EATOM  =      1062.76909484
  Solvation  Ediel_sol  =         0.00000000
  ---------------------------------------------------
  free energy    TOTEN  =       -71.03216150 eV

  energy without entropy =      -71.03216150  energy(sigma->0) =      -71.03216150


--------------------------------------------------------------------------------------------------------




----------------------------------------- Iteration    1(  18)  ---------------------------------------


    POTLOK:  cpu time   31.1645: real time   31.2402
    SETDIJ:  cpu time    0.4112: real time    0.4122
     EDDAV:  cpu time   23.8876: real time   23.9457
       DOS:  cpu time    0.0000: real time    0.0000
    CHARGE:  cpu time    3.6648: real time    3.6737
    MIXING:  cpu time    1.2406: real time    1.2436
    --------------------------------------------
      LOOP:  cpu time   60.3703: real time   60.5189

 eigenvalue-minimisations  :    60
 total energy-change (2. order) :-0.1692970E-02  (-0.1088476E-04)
 number of electron      30.0000000 magnetization 
 augmentation part        1.5854282 magnetization 

 Broyden mixing:
  rms(total) = 0.53817E-03    rms(broyden)= 0.53817E-03
  rms(prec ) = 0.64262E-03
  weight for this iteration     100.00

 eigenvalues of (default mixing * dielectric matrix)
  average eigenvalue GAMMA=   2.1240
  7.7021  4.3786  2.4013  2.4304  2.4304  1.3341  1.3341  1.0408  1.0408  0.9185
  0.9185  0.8415  0.8415

 Free energy of the ion-electron system (eV)
  ---------------------------------------------------
  alpha Z        PSCENC =         0.06079025
  Ewald energy   TEWEN  =      2322.05012885
  -Hartree energ DENC   =     -3175.20573168
  -exchange      EXHF   =         0.00000000
  -V(xc)+E(xc)   XCENC  =       105.61107634
  PAW double counting   =      9920.73338989    -9928.22782438
  entropy T*S    EENTRO =        -0.00000000
  eigenvalues    EBANDS =      -378.82477857
  atomic energy  EATOM  =      1062.76909484
  Solvation  Ediel_sol  =         0.00000000
  ---------------------------------------------------
  free energy    TOTEN  =       -71.03385447 eV

  energy without entropy =      -71.03385447  energy(sigma->0) =      -71.03385447


--------------------------------------------------------------------------------------------------------




----------------------------------------- Iteration    1(  19)  ---------------------------------------


    POTLOK:  cpu time   31.1856: real time   31.2614
    SETDIJ:  cpu time    0.4102: real time    0.4112
     EDDAV:  cpu time   26.3009: real time   26.3648
       DOS:  cpu time    0.0000: real time    0.0000
    CHARGE:  cpu time    3.6520: real time    3.6609
    MIXING:  cpu time    1.2768: real time    1.2799
    --------------------------------------------
      LOOP:  cpu time   62.8272: real time   62.9818

 eigenvalue-minimisations  :    68
 total energy-change (2. order) :-0.6982392E-03  (-0.3993546E-05)
 number of electron      30.0000000 magnetization 
 augmentation part        1.5853079 magnetization 

 Broyden mixing:
  rms(total) = 0.52549E-03    rms(broyden)= 0.52549E-03
  rms(prec ) = 0.56343E-03
  weight for this iteration     100.00

 eigenvalues of (default mixing * dielectric matrix)
  average eigenvalue GAMMA=   2.1028
  8.1234  4.7866  2.6384  2.6384  2.0254  1.5129  1.0905  1.0905  1.0419  1.0419
  0.9505  0.9212  0.9212  0.6561

 Free energy of the ion-electron system (eV)
  ---------------------------------------------------
  alpha Z        PSCENC =         0.06079025
  Ewald energy   TEWEN  =      2322.05012885
  -Hartree energ DENC   =     -3175.23160458
  -exchange      EXHF   =         0.00000000
  -V(xc)+E(xc)   XCENC  =       105.61050206
  PAW double counting   =      9921.60129500    -9929.09603458
  entropy T*S    EENTRO =        -0.00000000
  eigenvalues    EBANDS =      -378.79872454
  atomic energy  EATOM  =      1062.76909484
  Solvation  Ediel_sol  =         0.00000000
  ---------------------------------------------------
  free energy    TOTEN  =       -71.03455271 eV

  energy without entropy =      -71.03455271  energy(sigma->0) =      -71.03455271


--------------------------------------------------------------------------------------------------------




----------------------------------------- Iteration    1(  20)  ---------------------------------------


    POTLOK:  cpu time   31.1570: real time   31.2326
    SETDIJ:  cpu time    0.4099: real time    0.4108
     EDDAV:  cpu time   28.4241: real time   28.4932
       DOS:  cpu time    0.0000: real time    0.0000
    CHARGE:  cpu time    3.6657: real time    3.6747
    MIXING:  cpu time    1.3146: real time    1.3178
    --------------------------------------------
      LOOP:  cpu time   64.9728: real time   65.1326

 eigenvalue-minimisations  :    76
 total energy-change (2. order) :-0.2331076E-03  (-0.5234183E-06)
 number of electron      30.0000000 magnetization 
 augmentation part        1.5853397 magnetization 

 Broyden mixing:
  rms(total) = 0.27146E-03    rms(broyden)= 0.27146E-03
  rms(prec ) = 0.30690E-03
  weight for this iteration     100.00

 eigenvalues of (default mixing * dielectric matrix)
  average eigenvalue GAMMA=   2.0931
  8.2339  5.0600  2.5018  2.5018  1.9801  1.9801  1.4828  1.1608  1.1608  0.9866
  0.9866  0.8616  0.8616  0.8191  0.8191

 Free energy of the ion-electron system (eV)
  ---------------------------------------------------
  alpha Z        PSCENC =         0.06079025
  Ewald energy   TEWEN  =      2322.05012885
  -Hartree energ DENC   =     -3175.22971534
  -exchange      EXHF   =         0.00000000
  -V(xc)+E(xc)   XCENC  =       105.60974141
  PAW double counting   =      9921.87405010    -9929.36860348
  entropy T*S    EENTRO =        -0.00000000
  eigenvalues    EBANDS =      -378.80027244
  atomic energy  EATOM  =      1062.76909484
  Solvation  Ediel_sol  =         0.00000000
  ---------------------------------------------------
  free energy    TOTEN  =       -71.03478582 eV

  energy without entropy =      -71.03478582  energy(sigma->0) =      -71.03478582


--------------------------------------------------------------------------------------------------------




----------------------------------------- Iteration    1(  21)  ---------------------------------------


    POTLOK:  cpu time   31.1260: real time   31.2017
    SETDIJ:  cpu time    0.4108: real time    0.4118
     EDDAV:  cpu time   26.3132: real time   26.3774
       DOS:  cpu time    0.0000: real time    0.0000
    CHARGE:  cpu time    3.6604: real time    3.6693
    MIXING:  cpu time    1.3633: real time    1.3667
    --------------------------------------------
      LOOP:  cpu time   62.8753: real time   63.0302

 eigenvalue-minimisations  :    68
 total energy-change (2. order) :-0.1762403E-03  (-0.1126170E-06)
 number of electron      30.0000000 magnetization 
 augmentation part        1.5853381 magnetization 

 Broyden mixing:
  rms(total) = 0.16110E-03    rms(broyden)= 0.16110E-03
  rms(prec ) = 0.18773E-03
  weight for this iteration     100.00

 eigenvalues of (default mixing * dielectric matrix)
  average eigenvalue GAMMA=   2.1665
  8.5264  5.6666  3.1562  2.5976  2.4650  2.0135  1.5002  1.0909  1.0909  1.1673
  0.9686  0.9686  0.9267  0.9267  0.8441  0.7540

 Free energy of the ion-electron system (eV)
  ---------------------------------------------------
  alpha Z        PSCENC =         0.06079025
  Ewald energy   TEWEN  =      2322.05012885
  -Hartree energ DENC   =     -3175.23699990
  -exchange      EXHF   =         0.00000000
  -V(xc)+E(xc)   XCENC  =       105.60952399
  PAW double counting   =      9922.25852848    -9929.75323599
  entropy T*S    EENTRO =        -0.00000000
  eigenvalues    EBANDS =      -378.79279259
  atomic energy  EATOM  =      1062.76909484
  Solvation  Ediel_sol  =         0.00000000
  ---------------------------------------------------
  free energy    TOTEN  =       -71.03496206 eV

  energy without entropy =      -71.03496206  energy(sigma->0) =      -71.03496206


--------------------------------------------------------------------------------------------------------




----------------------------------------- Iteration    1(  22)  ---------------------------------------


    POTLOK:  cpu time   31.0684: real time   31.1439
    SETDIJ:  cpu time    0.4110: real time    0.4120
     EDDAV:  cpu time   26.2932: real time   26.3571
       DOS:  cpu time    0.0000: real time    0.0000
    CHARGE:  cpu time    3.6567: real time    3.6656
    MIXING:  cpu time    1.4097: real time    1.4131
    --------------------------------------------
      LOOP:  cpu time   62.8406: real time   62.9951

 eigenvalue-minimisations  :    68
 total energy-change (2. order) :-0.1581800E-03  (-0.2712353E-06)
 number of electron      30.0000000 magnetization 
 augmentation part        1.5853432 magnetization 

 Broyden mixing:
  rms(total) = 0.12391E-03    rms(broyden)= 0.12391E-03
  rms(prec ) = 0.13257E-03
  weight for this iteration     100.00

 eigenvalues of (default mixing * dielectric matrix)
  average eigenvalue GAMMA=   2.2100
  8.8387  5.9919  3.8143  2.4966  2.4966  1.8237  1.8237  1.4184  1.4184  1.0975
  1.0000  1.0000  0.8669  0.8669  0.9820  0.9021  0.7319

 Free energy of the ion-electron system (eV)
  ---------------------------------------------------
  alpha Z        PSCENC =         0.06079025
  Ewald energy   TEWEN  =      2322.05012885
  -Hartree energ DENC   =     -3175.24545746
  -exchange      EXHF   =         0.00000000
  -V(xc)+E(xc)   XCENC  =       105.60936482
  PAW double counting   =      9921.95462005    -9929.44931129
  entropy T*S    EENTRO =        -0.00000000
  eigenvalues    EBANDS =      -378.78435029
  atomic energy  EATOM  =      1062.76909484
  Solvation  Ediel_sol  =         0.00000000
  ---------------------------------------------------
  free energy    TOTEN  =       -71.03512024 eV

  energy without entropy =      -71.03512024  energy(sigma->0) =      -71.03512024


--------------------------------------------------------------------------------------------------------




----------------------------------------- Iteration    1(  23)  ---------------------------------------


    POTLOK:  cpu time   30.9960: real time   31.0713
    SETDIJ:  cpu time    0.4103: real time    0.4113
     EDDAV:  cpu time   23.9145: real time   23.9727
       DOS:  cpu time    0.0000: real time    0.0000
    CHARGE:  cpu time    3.6640: real time    3.6729
    MIXING:  cpu time    1.4482: real time    1.4517
    --------------------------------------------
      LOOP:  cpu time   60.4346: real time   60.5835

 eigenvalue-minimisations  :    60
 total energy-change (2. order) :-0.5450132E-04  (-0.3085271E-07)
 number of electron      30.0000000 magnetization 
 augmentation part        1.5853410 magnetization 

 Broyden mixing:
  rms(total) = 0.51626E-04    rms(broyden)= 0.51626E-04
  rms(prec ) = 0.57854E-04
  weight for this iteration     100.00

 eigenvalues of (default mixing * dielectric matrix)
  average eigenvalue GAMMA=   2.1978
  8.9726  6.2544  4.0983  2.4658  2.4658  2.0494  2.0494  1.4542  1.3188  1.0305
  1.0305  1.0359  1.0359  0.9065  0.9065  0.9306  0.7779  0.7779

 Free energy of the ion-electron system (eV)
  ---------------------------------------------------
  alpha Z        PSCENC =         0.06079025
  Ewald energy   TEWEN  =      2322.05012885
  -Hartree energ DENC   =     -3175.25233277
  -exchange      EXHF   =         0.00000000
  -V(xc)+E(xc)   XCENC  =       105.60938745
  PAW double counting   =      9921.77870974    -9929.27338198
  entropy T*S    EENTRO =        -0.00000000
  eigenvalues    EBANDS =      -378.77757112
  atomic energy  EATOM  =      1062.76909484
  Solvation  Ediel_sol  =         0.00000000
  ---------------------------------------------------
  free energy    TOTEN  =       -71.03517474 eV

  energy without entropy =      -71.03517474  energy(sigma->0) =      -71.03517474


--------------------------------------------------------------------------------------------------------




----------------------------------------- Iteration    1(  24)  ---------------------------------------


    POTLOK:  cpu time   30.9787: real time   31.0539
    SETDIJ:  cpu time    0.4141: real time    0.4151
     EDDAV:  cpu time   23.9161: real time   23.9742
       DOS:  cpu time    0.0000: real time    0.0000
    CHARGE:  cpu time    3.6474: real time    3.6564
    MIXING:  cpu time    1.5053: real time    1.5090
    --------------------------------------------
      LOOP:  cpu time   60.4631: real time   60.6123

 eigenvalue-minimisations  :    60
 total energy-change (2. order) :-0.1972425E-04  (-0.3805571E-08)
 number of electron      30.0000000 magnetization 
 augmentation part        1.5853417 magnetization 

 Broyden mixing:
  rms(total) = 0.35426E-04    rms(broyden)= 0.35426E-04
  rms(prec ) = 0.39580E-04
  weight for this iteration     100.00

 eigenvalues of (default mixing * dielectric matrix)
  average eigenvalue GAMMA=   2.2072
  9.1468  6.4711  4.4804  2.8277  2.4486  2.4486  1.6656  1.6656  1.3023  1.3023
  1.0173  1.0173  1.0736  0.8514  0.8514  0.9147  0.9147  0.8019  0.7359

 Free energy of the ion-electron system (eV)
  ---------------------------------------------------
  alpha Z        PSCENC =         0.06079025
  Ewald energy   TEWEN  =      2322.05012885
  -Hartree energ DENC   =     -3175.25392784
  -exchange      EXHF   =         0.00000000
  -V(xc)+E(xc)   XCENC  =       105.60934671
  PAW double counting   =      9921.77510760    -9929.26976724
  entropy T*S    EENTRO =        -0.00000000
  eigenvalues    EBANDS =      -378.77596762
  atomic energy  EATOM  =      1062.76909484
  Solvation  Ediel_sol  =         0.00000000
  ---------------------------------------------------
  free energy    TOTEN  =       -71.03519446 eV

  energy without entropy =      -71.03519446  energy(sigma->0) =      -71.03519446


--------------------------------------------------------------------------------------------------------




----------------------------------------- Iteration    1(  25)  ---------------------------------------


    POTLOK:  cpu time   30.9675: real time   31.0427
    SETDIJ:  cpu time    0.4105: real time    0.4114
     EDDAV:  cpu time   18.5341: real time   18.5792
       DOS:  cpu time    0.0000: real time    0.0000
    CHARGE:  cpu time    3.6723: real time    3.6813
    MIXING:  cpu time    1.5569: real time    1.5607
    --------------------------------------------
      LOOP:  cpu time   55.1430: real time   55.2790

 eigenvalue-minimisations  :    42
 total energy-change (2. order) :-0.1367591E-04  (-0.3729715E-08)
 number of electron      30.0000000 magnetization 
 augmentation part        1.5853418 magnetization 

 Broyden mixing:
  rms(total) = 0.27319E-04    rms(broyden)= 0.27319E-04
  rms(prec ) = 0.29391E-04
  weight for this iteration     100.00

 eigenvalues of (default mixing * dielectric matrix)
  average eigenvalue GAMMA=   2.2414
  9.2233  6.7612  4.8253  3.0299  2.4303  2.4303  2.0119  2.0119  1.4786  1.4786
  1.0203  1.0203  0.8883  0.8883  1.0117  1.0117  1.0063  0.8339  0.7536  0.7116

 Free energy of the ion-electron system (eV)
  ---------------------------------------------------
  alpha Z        PSCENC =         0.06079025
  Ewald energy   TEWEN  =      2322.05012885
  -Hartree energ DENC   =     -3175.25577253
  -exchange      EXHF   =         0.00000000
  -V(xc)+E(xc)   XCENC  =       105.60933528
  PAW double counting   =      9921.78731625    -9929.28197755
  entropy T*S    EENTRO =        -0.00000000
  eigenvalues    EBANDS =      -378.77412353
  atomic energy  EATOM  =      1062.76909484
  Solvation  Ediel_sol  =         0.00000000
  ---------------------------------------------------
  free energy    TOTEN  =       -71.03520814 eV

  energy without entropy =      -71.03520814  energy(sigma->0) =      -71.03520814


--------------------------------------------------------------------------------------------------------




----------------------------------------- Iteration    1(  26)  ---------------------------------------


    POTLOK:  cpu time   31.0136: real time   31.0890
    SETDIJ:  cpu time    0.4087: real time    0.4097
     EDDAV:  cpu time   16.0015: real time   16.0406
       DOS:  cpu time    0.0000: real time    0.0000
    CHARGE:  cpu time    3.6585: real time    3.6674
    MIXING:  cpu time    1.6051: real time    1.6090
    --------------------------------------------
      LOOP:  cpu time   52.6890: real time   52.8193

 eigenvalue-minimisations  :    34
 total energy-change (2. order) :-0.8839401E-05  (-0.1897547E-08)
 number of electron      30.0000000 magnetization 
 augmentation part        1.5853393 magnetization 

 Broyden mixing:
  rms(total) = 0.18839E-04    rms(broyden)= 0.18839E-04
  rms(prec ) = 0.19678E-04
  weight for this iteration     100.00

 eigenvalues of (default mixing * dielectric matrix)
  average eigenvalue GAMMA=   2.2327
  9.2789  6.9477  5.1088  3.5072  2.5249  2.5249  2.1640  1.8238  1.4257  1.4257
  1.0507  1.0507  1.1027  1.1027  0.8794  0.8794  0.9476  0.8773  0.8773  0.7034
  0.6842

 Free energy of the ion-electron system (eV)
  ---------------------------------------------------
  alpha Z        PSCENC =         0.06079025
  Ewald energy   TEWEN  =      2322.05012885
  -Hartree energ DENC   =     -3175.25738255
  -exchange      EXHF   =         0.00000000
  -V(xc)+E(xc)   XCENC  =       105.60936826
  PAW double counting   =      9921.82962293    -9929.32428837
  entropy T*S    EENTRO =        -0.00000000
  eigenvalues    EBANDS =      -378.77255119
  atomic energy  EATOM  =      1062.76909484
  Solvation  Ediel_sol  =         0.00000000
  ---------------------------------------------------
  free energy    TOTEN  =       -71.03521698 eV

  energy without entropy =      -71.03521698  energy(sigma->0) =      -71.03521698


--------------------------------------------------------------------------------------------------------




----------------------------------------- Iteration    1(  27)  ---------------------------------------


    POTLOK:  cpu time   31.0164: real time   31.0917
    SETDIJ:  cpu time    0.4093: real time    0.4103
     EDDAV:  cpu time   23.7084: real time   23.7661
       DOS:  cpu time    0.0000: real time    0.0000
    CHARGE:  cpu time    3.6677: real time    3.6767
    MIXING:  cpu time    1.6517: real time    1.6557
    --------------------------------------------
      LOOP:  cpu time   60.4550: real time   60.6041

 eigenvalue-minimisations  :    60
 total energy-change (2. order) :-0.2701132E-05  (-0.8720953E-09)
 number of electron      30.0000000 magnetization 
 augmentation part        1.5853390 magnetization 

 Broyden mixing:
  rms(total) = 0.13289E-04    rms(broyden)= 0.13289E-04
  rms(prec ) = 0.13838E-04
  weight for this iteration     100.00

 eigenvalues of (default mixing * dielectric matrix)
  average eigenvalue GAMMA=   2.2006
  9.3330  6.9845  5.2292  3.5928  2.5327  2.5327  2.2213  1.9267  1.4586  1.3469
  1.3469  1.0285  1.0285  1.0595  0.8779  0.8779  0.9346  0.9346  0.8855  0.8855
  0.7445  0.6516

 Free energy of the ion-electron system (eV)
  ---------------------------------------------------
  alpha Z        PSCENC =         0.06079025
  Ewald energy   TEWEN  =      2322.05012885
  -Hartree energ DENC   =     -3175.25750016
  -exchange      EXHF   =         0.00000000
  -V(xc)+E(xc)   XCENC  =       105.60936648
  PAW double counting   =      9921.84078271    -9929.33544472
  entropy T*S    EENTRO =        -0.00000000
  eigenvalues    EBANDS =      -378.77243792
  atomic energy  EATOM  =      1062.76909484
  Solvation  Ediel_sol  =         0.00000000
  ---------------------------------------------------
  free energy    TOTEN  =       -71.03521968 eV

  energy without entropy =      -71.03521968  energy(sigma->0) =      -71.03521968


--------------------------------------------------------------------------------------------------------




----------------------------------------- Iteration    1(  28)  ---------------------------------------


    POTLOK:  cpu time   31.0284: real time   31.1038
    SETDIJ:  cpu time    0.4094: real time    0.4104
     EDDAV:  cpu time   16.6079: real time   16.6484
       DOS:  cpu time    0.0000: real time    0.0000
    CHARGE:  cpu time    3.6689: real time    3.6778
    MIXING:  cpu time    1.7192: real time    1.7234
    --------------------------------------------
      LOOP:  cpu time   53.4354: real time   53.5671

 eigenvalue-minimisations  :    36
 total energy-change (2. order) :-0.1300083E-05  (-0.3088747E-09)
 number of electron      30.0000000 magnetization 
 augmentation part        1.5853394 magnetization 

 Broyden mixing:
  rms(total) = 0.79583E-05    rms(broyden)= 0.79583E-05
  rms(prec ) = 0.84382E-05
  weight for this iteration     100.00

 eigenvalues of (default mixing * dielectric matrix)
  average eigenvalue GAMMA=   2.2053
  9.4184  7.1318  5.4479  3.8140  2.5609  2.5609  2.1997  1.9830  1.5755  1.5755
  1.5135  1.1466  0.9725  0.9725  1.0137  1.0137  0.9377  0.9377  0.8621  0.8621
  0.8575  0.7385  0.6271

 Free energy of the ion-electron system (eV)
  ---------------------------------------------------
  alpha Z        PSCENC =         0.06079025
  Ewald energy   TEWEN  =      2322.05012885
  -Hartree energ DENC   =     -3175.25745799
  -exchange      EXHF   =         0.00000000
  -V(xc)+E(xc)   XCENC  =       105.60936063
  PAW double counting   =      9921.82969063    -9929.32435101
  entropy T*S    EENTRO =        -0.00000000
  eigenvalues    EBANDS =      -378.77247718
  atomic energy  EATOM  =      1062.76909484
  Solvation  Ediel_sol  =         0.00000000
  ---------------------------------------------------
  free energy    TOTEN  =       -71.03522098 eV

  energy without entropy =      -71.03522098  energy(sigma->0) =      -71.03522098


--------------------------------------------------------------------------------------------------------




----------------------------------------- Iteration    1(  29)  ---------------------------------------


    POTLOK:  cpu time   31.0797: real time   31.1552
    SETDIJ:  cpu time    0.4123: real time    0.4133
     EDDAV:  cpu time   21.3895: real time   21.4415
       DOS:  cpu time    0.0000: real time    0.0000
    CHARGE:  cpu time    3.6542: real time    3.6631
    MIXING:  cpu time    1.7782: real time    1.7825
    --------------------------------------------
      LOOP:  cpu time   58.3156: real time   58.4595

 eigenvalue-minimisations  :    52
 total energy-change (2. order) :-0.1083336E-05  (-0.3458975E-09)
 number of electron      30.0000000 magnetization 
 augmentation part        1.5853400 magnetization 

 Broyden mixing:
  rms(total) = 0.48842E-05    rms(broyden)= 0.48842E-05
  rms(prec ) = 0.51947E-05
  weight for this iteration     100.00

 eigenvalues of (default mixing * dielectric matrix)
  average eigenvalue GAMMA=   2.2171
  9.4459  7.4139  5.6158  4.1657  2.7162  2.7162  2.4000  2.0765  1.6768  1.5262
  1.5262  1.0796  1.0796  0.9871  0.9871  0.9996  0.9978  0.9978  0.8670  0.8670
  0.8568  0.8568  0.7386  0.6166

 Free energy of the ion-electron system (eV)
  ---------------------------------------------------
  alpha Z        PSCENC =         0.06079025
  Ewald energy   TEWEN  =      2322.05012885
  -Hartree energ DENC   =     -3175.25734396
  -exchange      EXHF   =         0.00000000
  -V(xc)+E(xc)   XCENC  =       105.60935344
  PAW double counting   =      9921.82163048    -9929.31629088
[...]
    CHARGE:  cpu time    3.6714: real time    3.6803
    MIXING:  cpu time    1.9032: real time    1.9078
    --------------------------------------------
      LOOP:  cpu time   53.7318: real time   53.8643

 eigenvalue-minimisations  :    36
 total energy-change (2. order) :-0.1938006E-06  (-0.1819913E-09)
 number of electron      30.0000000 magnetization 
 augmentation part        1.5853399 magnetization 

 Broyden mixing:
  rms(total) = 0.32773E-05    rms(broyden)= 0.32773E-05
  rms(prec ) = 0.33821E-05
  weight for this iteration     100.00

 eigenvalues of (default mixing * dielectric matrix)
  average eigenvalue GAMMA=   2.2058
  9.4979  7.6873  5.9126  4.5392  3.1894  2.5236  2.5236  2.1540  2.1540  1.5939
  1.5939  1.4495  0.9982  0.9982  1.1261  1.1261  1.0005  1.0005  0.8568  0.8568
  0.8962  0.8962  0.8958  0.7404  0.6247  0.5163

 Free energy of the ion-electron system (eV)
  ---------------------------------------------------
  alpha Z        PSCENC =         0.06079025
  Ewald energy   TEWEN  =      2322.05012885
  -Hartree energ DENC   =     -3175.25731628
  -exchange      EXHF   =         0.00000000
  -V(xc)+E(xc)   XCENC  =       105.60935035
  PAW double counting   =      9921.82395181    -9929.31861442
  entropy T*S    EENTRO =        -0.00000000
  eigenvalues    EBANDS =      -378.77260829
  atomic energy  EATOM  =      1062.76909484
  Solvation  Ediel_sol  =         0.00000000
  ---------------------------------------------------
  free energy    TOTEN  =       -71.03522290 eV

  energy without entropy =      -71.03522290  energy(sigma->0) =      -71.03522290


--------------------------------------------------------------------------------------------------------




----------------------------------------- Iteration    1(  32)  ---------------------------------------


    POTLOK:  cpu time   30.9357: real time   31.0108
    SETDIJ:  cpu time    0.4112: real time    0.4122
     EDDAV:  cpu time   21.6554: real time   21.7081
       DOS:  cpu time    0.0000: real time    0.0000
    CHARGE:  cpu time    3.6656: real time    3.6745
    MIXING:  cpu time    1.9678: real time    1.9726
    --------------------------------------------
      LOOP:  cpu time   58.6371: real time   58.7818

 eigenvalue-minimisations  :    52
 total energy-change (2. order) :-0.2637389E-06  (-0.1878444E-09)
 number of electron      30.0000000 magnetization 
 augmentation part        1.5853400 magnetization 

 Broyden mixing:
  rms(total) = 0.12411E-05    rms(broyden)= 0.12411E-05
  rms(prec ) = 0.13237E-05
  weight for this iteration     100.00

 eigenvalues of (default mixing * dielectric matrix)
  average eigenvalue GAMMA=   2.2159
  9.5148  7.9086  6.1126  4.8669  3.4945  2.7282  2.5195  2.2831  2.2831  1.5657
  1.5657  1.5352  1.1169  1.1169  1.0084  1.0084  1.0200  0.9576  0.9576  0.8807
  0.8807  0.8847  0.8786  0.8786  0.7383  0.6232  0.5000

 Free energy of the ion-electron system (eV)
  ---------------------------------------------------
  alpha Z        PSCENC =         0.06079025
  Ewald energy   TEWEN  =      2322.05012885
  -Hartree energ DENC   =     -3175.25736621
  -exchange      EXHF   =         0.00000000
  -V(xc)+E(xc)   XCENC  =       105.60934969
  PAW double counting   =      9921.82392458    -9929.31858746
  entropy T*S    EENTRO =        -0.00000000
  eigenvalues    EBANDS =      -378.77255770
  atomic energy  EATOM  =      1062.76909484
  Solvation  Ediel_sol  =         0.00000000
  ---------------------------------------------------
  free energy    TOTEN  =       -71.03522317 eV

  energy without entropy =      -71.03522317  energy(sigma->0) =      -71.03522317


--------------------------------------------------------------------------------------------------------




----------------------------------------- Iteration    1(  33)  ---------------------------------------


    POTLOK:  cpu time   30.9483: real time   31.0235
    SETDIJ:  cpu time    0.4105: real time    0.4115
     EDDAV:  cpu time   16.8490: real time   16.8900
       DOS:  cpu time    0.0000: real time    0.0000
    CHARGE:  cpu time    3.6623: real time    3.6712
    MIXING:  cpu time    2.0332: real time    2.0381
    --------------------------------------------
      LOOP:  cpu time   53.9049: real time   54.0382

 eigenvalue-minimisations  :    36
 total energy-change (2. order) :-0.1127610E-06  (-0.9367618E-10)
 number of electron      30.0000000 magnetization 
 augmentation part        1.5853401 magnetization 

 Broyden mixing:
  rms(total) = 0.15096E-05    rms(broyden)= 0.15096E-05
  rms(prec ) = 0.15392E-05
  weight for this iteration     100.00

 eigenvalues of (default mixing * dielectric matrix)
  average eigenvalue GAMMA=   2.1665
  9.5285  7.9561  6.2024  4.8967  3.5449  2.7032  2.4113  2.4113  2.1479  1.5634
  1.5634  1.5665  1.1376  1.1376  0.9069  0.9069  1.0267  1.0267  1.0562  0.9073
  0.9073  0.8881  0.8471  0.8471  0.7256  0.7256  0.6313  0.4885

 Free energy of the ion-electron system (eV)
  ---------------------------------------------------
  alpha Z        PSCENC =         0.06079025
  Ewald energy   TEWEN  =      2322.05012885
  -Hartree energ DENC   =     -3175.25735256
  -exchange      EXHF   =         0.00000000
  -V(xc)+E(xc)   XCENC  =       105.60934843
  PAW double counting   =      9921.82325861    -9929.31792143
  entropy T*S    EENTRO =        -0.00000000
  eigenvalues    EBANDS =      -378.77257027
  atomic energy  EATOM  =      1062.76909484
  Solvation  Ediel_sol  =         0.00000000
  ---------------------------------------------------
  free energy    TOTEN  =       -71.03522328 eV

  energy without entropy =      -71.03522328  energy(sigma->0) =      -71.03522328


--------------------------------------------------------------------------------------------------------




----------------------------------------- Iteration    1(  34)  ---------------------------------------


    POTLOK:  cpu time   30.9536: real time   31.0289
    SETDIJ:  cpu time    0.4097: real time    0.4107
     EDDAV:  cpu time   16.7429: real time   16.7837
       DOS:  cpu time    0.0000: real time    0.0000
    --------------------------------------------
      LOOP:  cpu time   48.1077: real time   48.2271

 eigenvalue-minimisations  :    36
 total energy-change (2. order) :-0.1608532E-07  (-0.8091128E-10)
 number of electron      30.0000000 magnetization 
 augmentation part        1.5853401 magnetization 

 Free energy of the ion-electron system (eV)
  ---------------------------------------------------
  alpha Z        PSCENC =         0.06079025
  Ewald energy   TEWEN  =      2322.05012885
  -Hartree energ DENC   =     -3175.25735440
  -exchange      EXHF   =         0.00000000
  -V(xc)+E(xc)   XCENC  =       105.60934841
  PAW double counting   =      9921.82237542    -9929.31703803
  entropy T*S    EENTRO =        -0.00000000
  eigenvalues    EBANDS =      -378.77256863
  atomic energy  EATOM  =      1062.76909484
  Solvation  Ediel_sol  =         0.00000000
  ---------------------------------------------------
  free energy    TOTEN  =       -71.03522330 eV

  energy without entropy =      -71.03522330  energy(sigma->0) =      -71.03522330


--------------------------------------------------------------------------------------------------------




 average (electrostatic) potential at core
  the test charge radii are     0.9051  0.8471  0.6256
  (the norm of the test charge is              1.0000)
       1 -85.1568       2 -84.3588       3 -83.8880       4 -84.0823       5 -83.8881
       6 -84.3588       7 -38.6973       8 -38.9701       9 -39.0710      10 -38.9701
      11 -38.6975
 
 
 
 E-fermi :  -5.8265     XC(G=0):  -0.0467     alpha+bet : -0.0182


 k-point     1 :       0.0000    0.0000    0.0000
  band No.  band energies     occupation 
      1     -23.6102      2.00000
      2     -20.0856      2.00000
      3     -18.9479      2.00000
      4     -15.6335      2.00000
      5     -15.5905      2.00000
      6     -13.1238      2.00000
      7     -11.8720      2.00000
      8     -11.5269      2.00000
      9     -10.4888      2.00000
     10      -9.9551      2.00000
     11      -9.8412      2.00000
     12      -8.8011      2.00000
     13      -7.3230      2.00000
     14      -6.7142      2.00000
     15      -5.8726      2.00000
     16      -1.8818      0.00000
     17      -1.5163      0.00000
     18      -0.5542      0.00000
     19      -0.0901      0.00000
     20       0.0123      0.00000
     21       0.0646      0.00000


--------------------------------------------------------------------------------------------------------


 soft charge-density along one line, spin component           1
         0         1         2         3         4         5         6         7         8         9
 total charge-density along one line
 
 pseudopotential strength for first ion, spin component:           1
 25.896  26.445  -0.000   0.009   0.166  -0.000   0.012   0.202
 26.445  27.008  -0.000   0.010   0.170  -0.000   0.012   0.207
 -0.000  -0.000  -5.493   0.000  -0.000  -6.164   0.000  -0.000
  0.009   0.010   0.000  -5.277  -0.000   0.000  -5.909  -0.000
  0.166   0.170  -0.000  -0.000  -5.285  -0.000  -0.000  -5.920
 -0.000  -0.000  -6.164   0.000  -0.000  -6.884   0.000  -0.000
  0.012   0.012   0.000  -5.909  -0.000   0.000  -6.582  -0.000
  0.202   0.207  -0.000  -0.000  -5.920  -0.000  -0.000  -6.596
 total augmentation occupancy for first ion, spin component:           1
 23.810 -25.800  -0.002   0.830  14.825   0.001  -0.524  -9.383
-25.800  29.322   0.002  -0.863 -15.400  -0.001   0.566  10.112
 -0.002   0.002  27.637  -0.002   0.002 -18.736   0.001  -0.001
  0.830  -0.863  -0.002   9.150   0.313   0.001  -5.215  -0.207
 14.825 -15.400   0.002   0.313  14.765  -0.001  -0.208  -8.956
  0.001  -0.001 -18.736   0.001  -0.001  12.778  -0.001   0.001
 -0.524   0.566   0.001  -5.215  -0.208  -0.001   3.000   0.149
 -9.383  10.112  -0.001  -0.207  -8.956   0.001   0.149   5.679


------------------------ aborting loop because EDIFF is reached ----------------------------------------


    CHARGE:  cpu time    3.6712: real time    3.6802
    FORLOC:  cpu time    3.7061: real time    3.7151
    FORNL :  cpu time    1.8988: real time    1.9034
    STRESS:  cpu time    9.0386: real time    9.0606
    FORHAR:  cpu time   10.8057: real time   10.8320
    MIXING:  cpu time    2.0889: real time    2.0939
    OFIELD:  cpu time    0.0000: real time    0.0000

  FORCE on cell =-STRESS in cart. coord.  units (eV):
  Direction    XX          YY          ZZ          XY          YZ          ZX
  --------------------------------------------------------------------------------------
  Alpha Z     0.06079     0.06079     0.06079
  Ewald    1199.51669  1293.25309  -170.72032     0.02255    -0.11493    84.25039
  Hartree  1325.03991  1341.72677   508.49073     0.00623    -0.06558    50.06634
  E(xc)    -109.19921  -108.83163  -112.44066     0.00008    -0.00028     0.19969
  Local   -2932.16907 -3019.75926  -781.88787    -0.02466     0.17601  -132.04496
  n-local    76.40858    75.52298    80.07634    -0.00007     0.00042    -0.21393
  augment    41.46922    38.34734    36.81381    -0.00039    -0.00014     0.28307
  Kinetic   401.36079   383.41061   439.61484    -0.00310     0.00424    -2.38792
  Fock        0.00000     0.00000     0.00000     0.00000     0.00000     0.00000
  -------------------------------------------------------------------------------------
  Total       2.48770     3.73068     0.00766     0.00063    -0.00026     0.15268
  in kB       0.09296     0.13941     0.00029     0.00002    -0.00001     0.00571
  external pressure =        0.08 kB  Pullay stress =        0.00 kB


 VOLUME and BASIS-vectors are now :
 -----------------------------------------------------------------------------
  energy-cutoff  :     1000.00
  volume of cell :    42875.00
      direct lattice vectors                 reciprocal lattice vectors
    35.000000000  0.000000000  0.000000000     0.028571429  0.000000000  0.000000000
     0.000000000 35.000000000  0.000000000     0.000000000  0.028571429  0.000000000
     0.000000000  0.000000000 35.000000000     0.000000000  0.000000000  0.028571429

  length of vectors
    35.000000000 35.000000000 35.000000000     0.028571429  0.028571429  0.028571429


 FORCES acting on ions
    electron-ion (+dipol)            ewald-force                    non-local-force                 convergence-correction
 -----------------------------------------------------------------------------------------------
   -.259E+03 0.330E-01 -.150E+02   0.307E+03 -.390E-01 0.178E+02   -.477E+02 0.601E-02 -.270E+01   0.148E-05 0.237E-06 -.242E-07
   -.779E+02 0.181E+03 -.540E+01   0.759E+02 -.185E+03 0.529E+01   0.186E+01 0.405E+01 0.872E-01   -.163E-05 -.354E-05 -.114E-06
   0.959E+02 0.164E+03 0.541E+01   -.957E+02 -.165E+03 -.539E+01   -.258E+00 0.803E+00 -.330E-01   -.192E-05 -.527E-06 -.175E-06
   0.190E+03 -.231E-01 0.123E+02   -.190E+03 0.230E-01 -.124E+02   0.531E+00 -.743E-03 0.719E-01   -.856E-06 0.456E-06 -.126E-06
   0.959E+02 -.164E+03 0.543E+01   -.956E+02 0.165E+03 -.541E+01   -.258E+00 -.802E+00 -.328E-01   -.194E-05 0.663E-06 -.190E-06
   -.780E+02 -.181E+03 -.537E+01   0.760E+02 0.185E+03 0.526E+01   0.186E+01 -.405E+01 0.881E-01   -.198E-05 0.363E-05 -.155E-06
   -.435E+02 0.715E+02 -.260E+01   0.469E+02 -.768E+02 0.281E+01   -.324E+01 0.500E+01 -.188E+00   0.500E-06 -.144E-05 0.337E-07
   0.389E+02 0.719E+02 0.242E+01   -.418E+02 -.775E+02 -.260E+01   0.275E+01 0.522E+01 0.175E+00   -.120E-06 -.720E-06 -.157E-07
   0.813E+02 -.982E-02 0.517E+01   -.876E+02 0.106E-01 -.557E+01   0.591E+01 -.653E-03 0.374E+00   0.187E-06 0.199E-07 0.559E-10
   0.389E+02 -.719E+02 0.242E+01   -.418E+02 0.775E+02 -.260E+01   0.275E+01 -.522E+01 0.175E+00   -.261E-07 0.530E-06 -.107E-07
   -.435E+02 -.714E+02 -.259E+01   0.469E+02 0.768E+02 0.279E+01   -.324E+01 -.500E+01 -.187E+00   0.466E-06 0.138E-05 0.229E-07
 -----------------------------------------------------------------------------------------------
   0.391E+02 -.360E-02 0.217E+01   0.497E-13 0.711E-13 -.444E-15   -.391E+02 0.359E-02 -.217E+01   -.584E-05 0.689E-06 -.753E-06
 
 
 POSITION                                       TOTAL-FORCE (eV/Angst)
 -----------------------------------------------------------------------------------
      1.38138     34.99977      0.13146         0.539330      0.000036      0.055377
      0.67935     33.85976      0.09208        -0.117045     -0.325237     -0.025361
     34.29028     33.80689      0.00666        -0.007895     -0.040079     -0.011303
     33.57839      0.00013     34.95918         0.029394     -0.000747      0.026186
     34.29060      1.19318      0.00652        -0.008001      0.040649     -0.011339
      0.67965      1.13996      0.09189        -0.116815      0.324419     -0.025351
      1.25872     32.94504      0.12588         0.213672     -0.346947      0.017685
     33.78591     32.85144     34.97469        -0.183105     -0.341603     -0.008427
     32.49930      0.00026     34.89083        -0.380499      0.000140     -0.026625
     33.78649      2.14875     34.97447        -0.183126      0.341885     -0.008552
      1.25926      2.05451      0.12550         0.214091      0.347484      0.017712
 -----------------------------------------------------------------------------------
    total drift:                                0.000058     -0.000004     -0.000039


--------------------------------------------------------------------------------------------------------



  FREE ENERGIE OF THE ION-ELECTRON SYSTEM (eV)
  ---------------------------------------------------
  free  energy   TOTEN  =       -71.03522330 eV

  energy  without entropy=      -71.03522330  energy(sigma->0) =      -71.03522330
 


--------------------------------------------------------------------------------------------------------


    POTLOK:  cpu time   31.3896: real time   31.4659


--------------------------------------------------------------------------------------------------------


 writing wavefunctions
     LOOP+:  cpu time 2194.9814: real time 2200.5942
    4ORBIT:  cpu time    0.0000: real time    0.0000

 total amount of memory used by VASP on root node  5886585. kBytes
========================================================================

   base      :      30000. kBytes
   nonl-proj :      70805. kBytes
   fftplans  :    1964666. kBytes
   grid      :    3756461. kBytes
   one-center:          3. kBytes
   wavefun   :      64650. kBytes
 
  
  
 General timing and accounting informations for this job:
 ========================================================
  
                  Total CPU time used (sec):     2604.126
                            User time (sec):     2419.186
                          System time (sec):      184.941
                         Elapsed time (sec):     2610.731
  
                   Maximum memory used (kb):     9062528.
                   Average memory used (kb):           0.
  
                          Minor page faults:       238405
                          Major page faults:            6
                 Voluntary context switches:          742
 
 PROFILE, used timers:      14
 =============================
 
 index                 routine                    time                            calls level
----------------------------------------------------------------------------------------------
    1    total_time                         2610.770788                                1   1
    2      w1_copy                               5.617358                           8028   2
    3      fftwav_mpi                          311.713642                           3140   2
    4      fftext_mpi                            1.447011                             21   2
    5      overl                                 0.002203                           4625   2
    6      orth1                                 7.765638                           1175   2
    7      lincom                                0.438528                             35   2
    8      eccp                                 11.524209                            714   2
    9      hamiltmu                            400.522806                            391   2
   10        vhamil                               64.803151                         2669   3
   11        overl1                                0.002618                         2669   3
   12        kinhamil                            233.764879                         2669   3
   13          fftext_mpi                          232.060817                       2669   4
   14      pdssyex_zheevx                        0.041008                             34   2
 
 Flat profile
 ============
 
             routine name                   CPU           calls
 ---------------------------------------------------------------
 total_time                           1871.698385           1
 fftwav_mpi                            311.713642        3140
 fftext_mpi                            233.507828        2690
 hamiltmu                              101.952158         391
 vhamil                                 64.803151        2669
 eccp                                   11.524209         714
 orth1                                   7.765638        1175
 w1_copy                                 5.617358        8028
 kinhamil                                1.704062        2669
 lincom                                  0.438528          35
 pdssyex_zheevx                          0.041008          34
 overl1                                  0.002618        2669
 overl                                   0.002203        4625
 ---------------------------------------------------------------
  summed up times    2610.77078795433     
 
Profiling took   0.013773  0.007656  0.003313  0.003303 seconds
Profiling took   0.011247 seconds
