 vasp.5.4.1 24Jun15 (build Jan 02 2020 16:21:29) gamma-only                     
  
 executed on           IFC15_impi date 2020.04.13  08:59:45
 running on    8 total cores
 distrk:  each k-point on    8 cores,    1 groups
 distr:  one band on NCORES_PER_BAND=   8 cores,    1 groups


--------------------------------------------------------------------------------------------------------


 INCAR:
 POTCAR:    PAW_PBE C_s 06Sep2000                 
 POTCAR:    PAW_PBE H_s 15May2010                 

 ----------------------------------------------------------------------------- 
|                                                                             |
|           W    W    AA    RRRRR   N    N  II  N    N   GGGG   !!!           |
|           W    W   A  A   R    R  NN   N  II  NN   N  G    G  !!!           |
|           W    W  A    A  R    R  N N  N  II  N N  N  G       !!!           |
|           W WW W  AAAAAA  RRRRR   N  N N  II  N  N N  G  GGG   !            |
|           WW  WW  A    A  R   R   N   NN  II  N   NN  G    G                |
|           W    W  A    A  R    R  N    N  II  N    N   GGGG   !!!           |
|                                                                             |
|      For optimal performance we recommend to set                            |
|        NCORE= 4 - approx SQRT( number of cores)                             |
|      NCORE specifies how many cores store one orbital (NPAR=cpu/NCORE).     |
|      This setting can  greatly improve the performance of VASP for DFT.     |
|      The default, NPAR=number of cores might be grossly inefficient         |
|      on modern multi-core architectures or massively parallel machines.     |
|      Do your own testing !!!!                                               |
|      Unfortunately you need to use the default for GW and RPA calculations. |
|      (for HF NCORE is supported but not extensively tested yet)             |
|                                                                             |
 ----------------------------------------------------------------------------- 

 POTCAR:    PAW_PBE C_s 06Sep2000                 
   VRHFIN =C: s2p2                                                              
   LEXCH  = PE                                                                  
   EATOM  =   147.1560 eV,   10.8157 Ry                                         
                                                                                
   TITEL  = PAW_PBE C_s 06Sep2000                                               
   LULTRA =        F    use ultrasoft PP ?                                      
   IUNSCR =        0    unscreen: 0-lin 1-nonlin 2-no                           
   RPACOR =    0.000    partial core radius                                     
   POMASS =   12.011; ZVAL   =    4.000    mass and valenz                      
   RCORE  =    1.850    outmost cutoff radius                                   
   RWIGS  =    1.890; RWIGS  =    1.000    wigner-seitz radius (au A)           
   ENMAX  =  273.911; ENMIN  =  205.433 eV                                      
   RCLOC  =    0.804    cutoff for local pot                                    
   LCOR   =        T    correct aug charges                                     
   LPAW   =        T    paw PP                                                  
   EAUG   =  439.243                                                            
   DEXC   =    0.000                                                            
   RMAX   =    1.897    core radius for proj-oper                               
   RAUG   =    1.300    factor for augmentation sphere                          
   RDEP   =    1.940    radius for radial grids                                 
   RDEPT  =    1.573    core radius for aug-charge                              
                                                                                
   Atomic configuration                                                         
    4 entries                                                                   
     n  l   j            E        occ.                                          
     1  0  0.50      -273.3789   2.0000                                         
     2  0  0.50       -13.7508   2.0000                                         
     2  1  0.50        -5.2854   2.0000                                         
     3  2  1.50        -1.3606   0.0000                                         
   Description                                                                  
     l       E           TYP  RCUT    TYP  RCUT                                 
     0    -13.7508457     23  1.500                                             
     0    -11.0934578     23  1.500                                             
     1     -5.2854381     23  1.850                                             
     1     -1.3099858     23  1.850                                             
  local pseudopotential read in
  atomic valenz-charges read in
  non local Contribution for L=           0  read in
    real space projection operators read in
  non local Contribution for L=           0  read in
    real space projection operators read in
  non local Contribution for L=           1  read in
    real space projection operators read in
  non local Contribution for L=           1  read in
    real space projection operators read in
    PAW grid and wavefunctions read in
 
   number of l-projection  operators is LMAX  =           4
   number of lm-projection operators is LMMAX =           8
 
 POTCAR:    PAW_PBE H_s 15May2010                 
   VRHFIN =H: ultrasoft test                                                    
   LEXCH  = PE                                                                  
   EATOM  =    12.4884 eV,    0.9179 Ry                                         
                                                                                
   TITEL  = PAW_PBE H_s 15May2010                                               
   LULTRA =        F    use ultrasoft PP ?                                      
   IUNSCR =        0    unscreen: 0-lin 1-nonlin 2-no                           
   RPACOR =    0.000    partial core radius                                     
   POMASS =    1.000; ZVAL   =    1.000    mass and valenz                      
   RCORE  =    1.300    outmost cutoff radius                                   
   RWIGS  =    0.700; RWIGS  =    0.370    wigner-seitz radius (au A)           
   ENMAX  =  200.000; ENMIN  =  150.000 eV                                      
   RCLOC  =    0.701    cutoff for local pot                                    
   LCOR   =        T    correct aug charges                                     
   LPAW   =        T    paw PP                                                  
   EAUG   =  300.000                                                            
   RMAX   =    1.330    core radius for proj-oper                               
   RAUG   =    1.200    factor for augmentation sphere                          
   RDEP   =    1.337    radius for radial grids                                 
   RDEPT  =    1.114    core radius for aug-charge                              
                                                                                
   Atomic configuration                                                         
    2 entries                                                                   
     n  l   j            E        occ.                                          
     1  0  0.50        -6.4927   1.0000                                         
     2  1  0.50        -3.4015   0.0000                                         
   Description                                                                  
     l       E           TYP  RCUT    TYP  RCUT                                 
     0     -6.4927494     23  1.300                                             
     0      6.8029130     23  1.300                                             
     1     -4.0817478     23  1.300                                             
  local pseudopotential read in
  atomic valenz-charges read in
  non local Contribution for L=           0  read in
    real space projection operators read in
  non local Contribution for L=           0  read in
    real space projection operators read in
  non local Contribution for L=           1  read in
    real space projection operators read in
    PAW grid and wavefunctions read in
 
   number of l-projection  operators is LMAX  =           3
   number of lm-projection operators is LMMAX =           5
 

 ----------------------------------------------------------------------------- 
|                                                                             |
|  ADVICE TO THIS USER RUNNING 'VASP/VAMP'   (HEAR YOUR MASTER'S VOICE ...):  |
|                                                                             |
|      You have a (more or less) 'large supercell' and for larger cells       |
|      it might be more efficient to use real space projection opertators     |
|      So try LREAL= Auto  in the INCAR   file.                               |
|      Mind: At the moment your POTCAR file does not contain real space       |
|       projectors, and has to be modified,  BUT if you                       |
|      want to do an extremely  accurate calculation you might also keep the  |
|      reciprocal projection scheme          (i.e. LREAL=.FALSE.)             |
|                                                                             |
 ----------------------------------------------------------------------------- 

  PAW_PBE C_s 06Sep2000                 :
 energy of atom  1       EATOM= -147.1560
 kinetic energy error for atom=    0.0002 (will be added to EATOM!!)
  PAW_PBE H_s 15May2010                 :
 energy of atom  2       EATOM=  -12.4884
 kinetic energy error for atom=    0.0000 (will be added to EATOM!!)
 
 
 POSCAR: C H                                     
  positions in cartesian coordinates
  No initial velocities read in
 exchange correlation table for  LEXCH =        8
   RHO(1)=    0.500       N(1)  =     2000
   RHO(2)=  100.500       N(2)  =     4000
 


--------------------------------------------------------------------------------------------------------


 ion  position               nearest neighbor table
   1  0.928  0.988  0.019-   8 1.09   6 1.09   7 1.09   2 1.52
   2  0.964  0.013  0.021-  10 1.09   9 1.09   3 1.52   1 1.52
   3  0.000  0.989  0.019-  12 1.09  11 1.09   2 1.52   4 1.52
   4  0.036  0.013  0.021-  14 1.09  13 1.09   3 1.52   5 1.52
   5  0.072  0.989  0.019-  16 1.09  15 1.09  17 1.09   4 1.52
   6  0.927  0.972  0.993-   1 1.09
   7  0.927  0.968  0.043-   1 1.09
   8  0.902  0.005  0.021-   1 1.09
   9  0.963  0.029  0.048-   2 1.09
  10  0.963  0.033  0.998-   2 1.09
  11  0.000  0.968  0.043-   3 1.09
  12  0.000  0.973  0.993-   3 1.09
  13  0.036  0.030  0.048-   4 1.09
  14  0.036  0.034  0.998-   4 1.09
  15  0.073  0.973  0.993-   5 1.09
  16  0.098  0.007  0.021-   5 1.09
  17  0.073  0.969  0.043-   5 1.09
 
  LATTYP: Found a simple cubic cell.
 ALAT       =    35.0000000000
  
  Lattice vectors:
  
 A1 = (  35.0000000000,   0.0000000000,   0.0000000000)
 A2 = (   0.0000000000,  35.0000000000,   0.0000000000)
 A3 = (   0.0000000000,   0.0000000000,  35.0000000000)


Analysis of symmetry for initial positions (statically):
=====================================================================
 Subroutine PRICEL returns:
 Original cell was already a primitive cell.
 

 Routine SETGRP: Setting up the symmetry group for a 
 simple cubic supercell.


 Subroutine GETGRP returns: Found  1 space group operations
 (whereof  1 operations were pure point group operations)
 out of a pool of 48 trial point group operations.


The static configuration has the point symmetry C_1 .


Analysis of symmetry for dynamics (positions and initial velocities):
=====================================================================
 Subroutine PRICEL returns:
 Original cell was already a primitive cell.
 

 Routine SETGRP: Setting up the symmetry group for a 
 simple cubic supercell.


 Subroutine GETGRP returns: Found  1 space group operations
 (whereof  1 operations were pure point group operations)
 out of a pool of 48 trial point group operations.


The dynamic configuration has the point symmetry C_1 .
 
 
 KPOINTS: automatic mesh                          

Automatic generation of k-mesh.
Space group operators:
 irot       det(A)        alpha          n_x          n_y          n_z        tau_x        tau_y        tau_z
    1     1.000000     0.000000     1.000000     0.000000     0.000000     0.000000     0.000000     0.000000
 
 Subroutine IBZKPT returns following result:
 ===========================================
 
 Found      1 irreducible k-points:
 
 Following reciprocal coordinates:
            Coordinates               Weight
  0.000000  0.000000  0.000000      1.000000
 
 Following cartesian coordinates:
            Coordinates               Weight
  0.000000  0.000000  0.000000      1.000000
 


--------------------------------------------------------------------------------------------------------




 Dimension of arrays:
   k-points           NKPTS =      1   k-points in BZ     NKDIM =      1   number of bands    NBANDS=     25
   number of dos      NEDOS =    301   number of ions     NIONS =     17
   non local maximal  LDIM  =      4   non local SUM 2l+1 LMDIM =      8
   total plane-waves  NPLWV = ******
   max r-space proj   IRMAX =      1   max aug-charges    IRDMAX=  26641
   dimension x,y,z NGX =   378 NGY =  378 NGZ =  378
   dimension x,y,z NGXF=   756 NGYF=  756 NGZF=  756
   support grid    NGXF=   756 NGYF=  756 NGZF=  756
   ions per type =               5  12
 NGX,Y,Z   is equivalent  to a cutoff of  17.95, 17.95, 17.95 a.u.
 NGXF,Y,Z  is equivalent  to a cutoff of  35.91, 35.91, 35.91 a.u.


 I would recommend the setting:
   dimension x,y,z NGX =   361 NGY =  361 NGZ =  361
 SYSTEM =  C                                       
 POSCAR =  C H                                     

 Startparameter for this run:
   NWRITE =      2    write-flag & timer
   PREC   = acc       normal or accurate (medium, high low for compatibility)
   ISTART =      0    job   : 0-new  1-cont  2-samecut
   ICHARG =      2    charge: 1-file 2-atom 10-const
   ISPIN  =      1    spin polarized calculation?
   LNONCOLLINEAR =      F non collinear calculations
   LSORBIT =      F    spin-orbit coupling
   INIWAV =      1    electr: 0-lowe 1-rand  2-diag
   LASPH  =      T    aspherical Exc in radial PAW
   METAGGA=      F    non-selfconsistent MetaGGA calc.

 Electronic Relaxation 1
   ENCUT  = 1000.0 eV  73.50 Ry    8.57 a.u.  90.25 90.25 90.25*2*pi/ulx,y,z
   ENINI  = 1000.0     initial cutoff
   ENAUG  =  439.2 eV  augmentation charge cutoff
   NELM   =     60;   NELMIN=  2; NELMDL= -5     # of ELM steps 
   EDIFF  = 0.1E-06   stopping-criterion for ELM
   LREAL  =      F    real-space projection
   NLSPLINE    = F    spline interpolate recip. space projectors
   LCOMPAT=      F    compatible to vasp.4.4
   GGA_COMPAT  = T    GGA compatible to vasp.4.4-vasp.4.6
   LMAXPAW     = -100 max onsite density
   LMAXMIX     =    2 max onsite mixed and CHGCAR
   VOSKOWN=      0    Vosko Wilk Nusair interpolation
   ROPT   =    0.00000   0.00000
 Ionic relaxation
   EDIFFG = 0.1E-05   stopping-criterion for IOM
   NSW    =      0    number of steps for IOM
   NBLOCK =      1;   KBLOCK =      1    inner block; outer block 
   IBRION =     -1    ionic relax: 0-MD 1-quasi-New 2-CG
   NFREE  =      0    steps in history (QN), initial steepest desc. (CG)
   ISIF   =      2    stress and relaxation
   IWAVPR =     10    prediction:  0-non 1-charg 2-wave 3-comb
   ISYM   =      2    0-nonsym 1-usesym 2-fastsym
   LCORR  =      T    Harris-Foulkes like correction to forces

   POTIM  = 0.5000    time-step for ionic-motion
   TEIN   =    0.0    initial temperature
   TEBEG  =    0.0;   TEEND  =   0.0 temperature during run
   SMASS  =  -3.00    Nose mass-parameter (am)
   estimated Nose-frequenzy (Omega)   =  0.10E-29 period in steps =****** mass=  -0.280E-25a.u.
   SCALEE = 1.0000    scale energy and forces
   NPACO  =    256;   APACO  = 16.0  distance and # of slots for P.C.
   PSTRESS=    0.0 pullay stress

  Mass of Ions in am
   POMASS =  12.01  1.00
  Ionic Valenz
   ZVAL   =   4.00  1.00
  Atomic Wigner-Seitz radii
   RWIGS  =  -1.00 -1.00
  virtual crystal weights 
   VCA    =   1.00  1.00
   NELECT =      32.0000    total number of electrons
   NUPDOWN=      -1.0000    fix difference up-down

 DOS related values:
   EMIN   =  10.00;   EMAX   =-10.00  energy-range for DOS
   EFERMI =   0.00
   ISMEAR =     0;   SIGMA  =   0.01  broadening in eV -4-tet -1-fermi 0-gaus

 Electronic relaxation 2 (details)
   IALGO  =     38    algorithm
   LDIAG  =      T    sub-space diagonalisation (order eigenvalues)
   LSUBROT=      F    optimize rotation matrix (better conditioning)
   TURBO    =      0    0=normal 1=particle mesh
   IRESTART =      0    0=no restart 2=restart with 2 vectors
   NREBOOT  =      0    no. of reboots
   NMIN     =      0    reboot dimension
   EREF     =   0.00    reference energy to select bands
   IMIX   =      4    mixing-type and parameters
     AMIX     =   0.40;   BMIX     =  1.00
     AMIX_MAG =   1.60;   BMIX_MAG =  1.00
     AMIN     =   0.10
     WC   =   100.;   INIMIX=   1;  MIXPRE=   1;  MAXMIX= -45

 Intra band minimization:
   WEIMIN = 0.0000     energy-eigenvalue tresh-hold
   EBREAK =  0.10E-08  absolut break condition
   DEPER  =   0.30     relativ break condition  

   TIME   =   0.40     timestep for ELM

  volume/ion in A,a.u.               =    2522.06     17019.69
  Fermi-wavevector in a.u.,A,eV,Ry     =   0.148499  0.280622  0.300035  0.022052
  Thomas-Fermi vector in A             =   0.821704
 
 Write flags
   LWAVE  =      T    write WAVECAR
   LCHARG =      T    write CHGCAR
   LVTOT  =      F    write LOCPOT, total local potential
   LVHAR  =      F    write LOCPOT, Hartree potential only
   LELF   =      F    write electronic localiz. function (ELF)
   LORBIT =      0    0 simple, 1 ext, 2 COOP (PROOUT)


 Dipole corrections
   LMONO  =      F    monopole corrections only (constant potential shift)
   LDIPOL =      F    correct potential (dipole corrections)
   IDIPOL =      0    1-x, 2-y, 3-z, 4-all directions 
   EPSILON=  1.0000000 bulk dielectric constant

 Exchange correlation treatment:
   GGA     =    --    GGA type
   LEXCH   =     8    internal setting for exchange type
   VOSKOWN=      0    Vosko Wilk Nusair interpolation
   LHFCALC =     F    Hartree Fock is set to
   LHFONE  =     F    Hartree Fock one center treatment
   AEXX    =    0.0000 exact exchange contribution

 Linear response parameters
   LEPSILON=     F    determine dielectric tensor
   LRPA    =     F    only Hartree local field effects (RPA)
   LNABLA  =     F    use nabla operator in PAW spheres
   LVEL    =     F    velocity operator in full k-point grid
   LINTERFAST=   F  fast interpolation
   KINTER  =     0    interpolate to denser k-point grid
   CSHIFT  =0.1000    complex shift for real part using Kramers Kronig
   OMEGAMAX=  -1.0    maximum frequency
   DEG_THRESHOLD= 0.2000000E-02 threshold for treating states as degnerate
   RTIME   =    0.100 relaxation time in fs

 Orbital magnetization related:
   ORBITALMAG=     F  switch on orbital magnetization
   LCHIMAG   =     F  perturbation theory with respect to B field
   DQ        =  0.001000  dq finite difference perturbation B field



--------------------------------------------------------------------------------------------------------


 Static calculation
 charge density and potential will be updated during run
 non-spin polarized calculation
 Variant of blocked Davidson
 Davidson routine will perform the subspace rotation
 perform sub-space diagonalisation
    after iterative eigenvector-optimisation
 modified Broyden-mixing scheme, WC =      100.0
 initial mixing is a Kerker type mixing with AMIX =  0.4000 and BMIX =      1.0000
 Hartree-type preconditioning will be used
 using additional bands            9
 reciprocal scheme for non local part
 calculate Harris-corrections to forces 
   (improved forces if not selfconsistent)
 use gradient corrections 
 use of overlap-Matrix (Vanderbilt PP)
 Gauss-broadening in eV      SIGMA  =   0.01


--------------------------------------------------------------------------------------------------------


  energy-cutoff  :     1000.00
  volume of cell :    42875.00
      direct lattice vectors                 reciprocal lattice vectors
    35.000000000  0.000000000  0.000000000     0.028571429  0.000000000  0.000000000
     0.000000000 35.000000000  0.000000000     0.000000000  0.028571429  0.000000000
     0.000000000  0.000000000 35.000000000     0.000000000  0.000000000  0.028571429

  length of vectors
    35.000000000 35.000000000 35.000000000     0.028571429  0.028571429  0.028571429


 
 k-points in units of 2pi/SCALE and weight: automatic mesh                          
   0.00000000  0.00000000  0.00000000       1.000
 
 k-points in reciprocal lattice and weights: automatic mesh                          
   0.00000000  0.00000000  0.00000000       1.000
 
 position of ions in fractional coordinates (direct lattice) 
   0.92770335  0.98806928  0.01946590
   0.96353838  0.01267528  0.02142928
   0.00006299  0.98912239  0.01939979
   0.03623810  0.01321132  0.02141055
   0.07242761  0.98913072  0.01944818
   0.92686040  0.97192029  0.99285268
   0.92702754  0.96760386  0.04293308
   0.90182247  0.00526125  0.02105061
   0.96348332  0.02929194  0.04785959
   0.96341889  0.03338730  0.99808120
   0.00022368  0.96824534  0.04268089
   0.00017853  0.97255649  0.99289084
   0.03605771  0.02983572  0.04783561
   0.03604671  0.03391592  0.99805615
   0.07349829  0.97297953  0.99284423
   0.09805660  0.00669757  0.02101651
   0.07340593  0.96869114  0.04292732
 
 position of ions in cartesian coordinates  (Angst):
  32.46961713 34.58242467  0.68130643
  33.72384317  0.44363493  0.75002484
   0.00220470 34.61928380  0.67899257
   1.26833347  0.46239635  0.74936913
   2.53496627 34.61957531  0.68068636
  32.44011397 34.01721002 34.74984381
  32.44596375 33.86613505  1.50265789
  31.56378645  0.18414376  0.73677133
  33.72191616  1.02521785  1.67508548
  33.71966101  1.16855564 34.93284194
   0.00782894 33.88858696  1.49383122
   0.00624866 34.03947730 34.75117954
   1.26201985  1.04425029  1.67424645
   1.26163488  1.18705711 34.93196542
   2.57244024 34.05428348 34.74954814
   3.43198117  0.23441492  0.73557772
   2.56920771 33.90418997  1.50245608
 


--------------------------------------------------------------------------------------------------------


 use parallel FFT for wavefunctions z direction half grid
 k-point  1 :   0.0000 0.0000 0.0000  plane waves: 1539209

 maximum and minimum number of plane-waves per node :    192406   192397

 maximum number of plane-waves:   1539209
 maximum index in each direction: 
   IXMAX=   90   IYMAX=   90   IZMAX=   90
   IXMIN=  -90   IYMIN=  -90   IZMIN=    0

 NGX is ok and might be reduce to 362
 NGY is ok and might be reduce to 362
 NGZ is ok and might be reduce to 362

 parallel 3D FFT for wavefunctions:
    minimum data exchange during FFTs selected (reduces bandwidth)
 parallel 3D FFT for charge:
    minimum data exchange during FFTs selected (reduces bandwidth)


 total amount of memory used by VASP on root node  5469541. kBytes
========================================================================

   base      :      30000. kBytes
   nonl-proj :      76962. kBytes
   fftplans  :    1964666. kBytes
   grid      :    3320944. kBytes
   one-center:          4. kBytes
   wavefun   :      76965. kBytes
 
     INWAV:  cpu time    0.0000: real time    0.0000
 Broyden mixing: mesh for mixing (old mesh)
   NGX =181   NGY =181   NGZ =181
  (NGX  =756   NGY  =756   NGZ  =756)
  gives a total of ****** points

 initial charge density was supplied:
 charge density of overlapping atoms calculated
 number of electron      32.0000000 magnetization 
 keeping initial charge density in first step


--------------------------------------------------------------------------------------------------------


 Maximum index for augmentation-charges         3750 (set IRDMAX)


--------------------------------------------------------------------------------------------------------


 First call to EWALD:  gamma=   0.051
 Maximum number of real-space cells 3x 3x 3
 Maximum number of reciprocal cells 3x 3x 3

 FEWALD executed in parallel
    FEWALD:  cpu time    0.0013: real time    0.0013


----------------------------------------- Iteration    1(   1)  ---------------------------------------


    POTLOK:  cpu time   25.8409: real time   25.9115
    SETDIJ:  cpu time    0.1373: real time    0.1377
     EDDAV:  cpu time   26.1712: real time   26.2430
       DOS:  cpu time    0.0000: real time    0.0001
    --------------------------------------------
      LOOP:  cpu time   52.1509: real time   52.2952

 eigenvalue-minimisations  :    66
 total energy-change (2. order) : 0.2430889E+03  (-0.5619215E+03)
 number of electron      32.0000000 magnetization 
 augmentation part       32.0000000 magnetization 

 Free energy of the ion-electron system (eV)
  ---------------------------------------------------
  alpha Z        PSCENC =         0.06681759
  Ewald energy   TEWEN  =      2358.21878004
  -Hartree energ DENC   =     -2889.94262370
  -exchange      EXHF   =         0.00000000
  -V(xc)+E(xc)   XCENC  =        96.96351259
  PAW double counting   =       579.25539028     -583.21116268
  entropy T*S    EENTRO =        -0.00000000
  eigenvalues    EBANDS =      -203.90126407
  atomic energy  EATOM  =       885.63942760
  Solvation  Ediel_sol  =         0.00000000
  ---------------------------------------------------
  free energy    TOTEN  =       243.08887763 eV

  energy without entropy =      243.08887763  energy(sigma->0) =      243.08887763


--------------------------------------------------------------------------------------------------------




----------------------------------------- Iteration    1(   2)  ---------------------------------------


     EDDAV:  cpu time   33.1043: real time   33.1947
       DOS:  cpu time    0.0000: real time    0.0000
    --------------------------------------------
      LOOP:  cpu time   33.1057: real time   33.1981

 eigenvalue-minimisations  :    90
 total energy-change (2. order) :-0.1709552E+03  (-0.1603588E+03)
 number of electron      32.0000000 magnetization 
 augmentation part       32.0000000 magnetization 

 Free energy of the ion-electron system (eV)
  ---------------------------------------------------
  alpha Z        PSCENC =         0.06681759
  Ewald energy   TEWEN  =      2358.21878004
  -Hartree energ DENC   =     -2889.94262370
  -exchange      EXHF   =         0.00000000
  -V(xc)+E(xc)   XCENC  =        96.96351259
  PAW double counting   =       579.25539028     -583.21116268
  entropy T*S    EENTRO =        -0.00000000
  eigenvalues    EBANDS =      -374.85643542
  atomic energy  EATOM  =       885.63942760
  Solvation  Ediel_sol  =         0.00000000
  ---------------------------------------------------
  free energy    TOTEN  =        72.13370629 eV

  energy without entropy =       72.13370629  energy(sigma->0) =       72.13370629


--------------------------------------------------------------------------------------------------------




----------------------------------------- Iteration    1(   3)  ---------------------------------------


     EDDAV:  cpu time   36.1932: real time   36.2923
       DOS:  cpu time    0.0000: real time    0.0000
    --------------------------------------------
      LOOP:  cpu time   36.1962: real time   36.2977

 eigenvalue-minimisations  :    84
 total energy-change (2. order) :-0.1473602E+03  (-0.1462207E+03)
 number of electron      32.0000000 magnetization 
 augmentation part       32.0000000 magnetization 

 Free energy of the ion-electron system (eV)
  ---------------------------------------------------
  alpha Z        PSCENC =         0.06681759
  Ewald energy   TEWEN  =      2358.21878004
  -Hartree energ DENC   =     -2889.94262370
  -exchange      EXHF   =         0.00000000
  -V(xc)+E(xc)   XCENC  =        96.96351259
  PAW double counting   =       579.25539028     -583.21116268
  entropy T*S    EENTRO =        -0.00000000
  eigenvalues    EBANDS =      -522.21659952
  atomic energy  EATOM  =       885.63942760
  Solvation  Ediel_sol  =         0.00000000
  ---------------------------------------------------
  free energy    TOTEN  =       -75.22645781 eV

  energy without entropy =      -75.22645781  energy(sigma->0) =      -75.22645781


--------------------------------------------------------------------------------------------------------




----------------------------------------- Iteration    1(   4)  ---------------------------------------


     EDDAV:  cpu time   26.9737: real time   27.0476
       DOS:  cpu time    0.0000: real time    0.0000
    --------------------------------------------
      LOOP:  cpu time   26.9788: real time   27.0552

 eigenvalue-minimisations  :    60
 total energy-change (2. order) :-0.2496334E+02  (-0.2494192E+02)
 number of electron      32.0000000 magnetization 
 augmentation part       32.0000000 magnetization 

 Free energy of the ion-electron system (eV)
  ---------------------------------------------------
  alpha Z        PSCENC =         0.06681759
  Ewald energy   TEWEN  =      2358.21878004
  -Hartree energ DENC   =     -2889.94262370
  -exchange      EXHF   =         0.00000000
  -V(xc)+E(xc)   XCENC  =        96.96351259
  PAW double counting   =       579.25539028     -583.21116268
  entropy T*S    EENTRO =        -0.00000000
  eigenvalues    EBANDS =      -547.17993950
  atomic energy  EATOM  =       885.63942760
  Solvation  Ediel_sol  =         0.00000000
  ---------------------------------------------------
  free energy    TOTEN  =      -100.18979779 eV

  energy without entropy =     -100.18979779  energy(sigma->0) =     -100.18979779


--------------------------------------------------------------------------------------------------------




----------------------------------------- Iteration    1(   5)  ---------------------------------------


     EDDAV:  cpu time   32.1671: real time   32.2554
       DOS:  cpu time    0.0000: real time    0.0000
    CHARGE:  cpu time    3.8611: real time    3.8717
    MIXING:  cpu time    0.8214: real time    0.8234
    --------------------------------------------
      LOOP:  cpu time   36.8535: real time   36.9569

 eigenvalue-minimisations  :    76
 total energy-change (2. order) :-0.1122749E+01  (-0.1122443E+01)
 number of electron      32.0000000 magnetization 
 augmentation part        1.7568103 magnetization 

 Broyden mixing:
  rms(total) = 0.26191E+01    rms(broyden)= 0.26191E+01
  rms(prec ) = 0.26563E+01
  weight for this iteration     100.00

 Free energy of the ion-electron system (eV)
  ---------------------------------------------------
  alpha Z        PSCENC =         0.06681759
  Ewald energy   TEWEN  =      2358.21878004
  -Hartree energ DENC   =     -2889.94262370
  -exchange      EXHF   =         0.00000000
  -V(xc)+E(xc)   XCENC  =        96.96351259
  PAW double counting   =       579.25539028     -583.21116268
  entropy T*S    EENTRO =        -0.00000000
  eigenvalues    EBANDS =      -548.30268805
  atomic energy  EATOM  =       885.63942760
  Solvation  Ediel_sol  =         0.00000000
  ---------------------------------------------------
  free energy    TOTEN  =      -101.31254634 eV

  energy without entropy =     -101.31254634  energy(sigma->0) =     -101.31254634


--------------------------------------------------------------------------------------------------------




----------------------------------------- Iteration    1(   6)  ---------------------------------------


    POTLOK:  cpu time   30.5246: real time   30.6080
    SETDIJ:  cpu time    0.4520: real time    0.4534
     EDDAV:  cpu time   35.1656: real time   35.2618
       DOS:  cpu time    0.0000: real time    0.0000
    CHARGE:  cpu time    3.7829: real time    3.7933
    MIXING:  cpu time    0.8572: real time    0.8593
    --------------------------------------------
      LOOP:  cpu time   70.7839: real time   70.9797

 eigenvalue-minimisations  :    84
 total energy-change (2. order) : 0.8801352E+01  (-0.1587950E+01)
 number of electron      32.0000000 magnetization 
 augmentation part        1.5036331 magnetization 

 Broyden mixing:
  rms(total) = 0.21244E+01    rms(broyden)= 0.21244E+01
  rms(prec ) = 0.21338E+01
  weight for this iteration     100.00

 eigenvalues of (default mixing * dielectric matrix)
  average eigenvalue GAMMA=   1.6712
  1.6712

 Free energy of the ion-electron system (eV)
  ---------------------------------------------------
  alpha Z        PSCENC =         0.06681759
  Ewald energy   TEWEN  =      2358.21878004
  -Hartree energ DENC   =     -2965.12275010
  -exchange      EXHF   =         0.00000000
  -V(xc)+E(xc)   XCENC  =       100.70929549
  PAW double counting   =      2009.07554482    -2013.95091019
  entropy T*S    EENTRO =        -0.00000000
  eigenvalues    EBANDS =      -467.14739938
  atomic energy  EATOM  =       885.63942760
  Solvation  Ediel_sol  =         0.00000000
  ---------------------------------------------------
  free energy    TOTEN  =       -92.51119414 eV

  energy without entropy =      -92.51119414  energy(sigma->0) =      -92.51119414


--------------------------------------------------------------------------------------------------------




----------------------------------------- Iteration    1(   7)  ---------------------------------------


    POTLOK:  cpu time   30.5084: real time   30.5918
    SETDIJ:  cpu time    0.4507: real time    0.4518
     EDDAV:  cpu time   35.1733: real time   35.2698
       DOS:  cpu time    0.0000: real time    0.0000
    CHARGE:  cpu time    3.8038: real time    3.8143
    MIXING:  cpu time    0.8684: real time    0.8705
    --------------------------------------------
      LOOP:  cpu time   70.8062: real time   71.0024

 eigenvalue-minimisations  :    84
 total energy-change (2. order) : 0.2081523E+01  (-0.6283838E+00)
 number of electron      32.0000000 magnetization 
 augmentation part        1.3966500 magnetization 

 Broyden mixing:
  rms(total) = 0.11414E+01    rms(broyden)= 0.11414E+01
  rms(prec ) = 0.11439E+01
  weight for this iteration     100.00

 eigenvalues of (default mixing * dielectric matrix)
  average eigenvalue GAMMA=   1.9574
  1.3614  2.5534

 Free energy of the ion-electron system (eV)
  ---------------------------------------------------
  alpha Z        PSCENC =         0.06681759
  Ewald energy   TEWEN  =      2358.21878004
  -Hartree energ DENC   =     -3024.91385175
  -exchange      EXHF   =         0.00000000
  -V(xc)+E(xc)   XCENC  =       104.15615268
  PAW double counting   =      5248.84126652    -5254.60394644
  entropy T*S    EENTRO =        -0.00000000
  eigenvalues    EBANDS =      -407.83431726
  atomic energy  EATOM  =       885.63942760
  Solvation  Ediel_sol  =         0.00000000
  ---------------------------------------------------
  free energy    TOTEN  =       -90.42967102 eV

  energy without entropy =      -90.42967102  energy(sigma->0) =      -90.42967102


--------------------------------------------------------------------------------------------------------




----------------------------------------- Iteration    1(   8)  ---------------------------------------


    POTLOK:  cpu time   30.5540: real time   30.6375
    SETDIJ:  cpu time    0.4545: real time    0.4559
     EDDAV:  cpu time   32.0956: real time   32.1834
       DOS:  cpu time    0.0000: real time    0.0000
    CHARGE:  cpu time    3.7969: real time    3.8073
    MIXING:  cpu time    0.8806: real time    0.8827
    --------------------------------------------
      LOOP:  cpu time   67.7831: real time   67.9709

 eigenvalue-minimisations  :    76
 total energy-change (2. order) : 0.3960345E+00  (-0.5947561E-01)
 number of electron      32.0000000 magnetization 
 augmentation part        1.4126953 magnetization 

 Broyden mixing:
  rms(total) = 0.13230E+00    rms(broyden)= 0.13230E+00
  rms(prec ) = 0.13537E+00
  weight for this iteration     100.00

 eigenvalues of (default mixing * dielectric matrix)
  average eigenvalue GAMMA=   1.6223
  2.3283  1.2694  1.2694

 Free energy of the ion-electron system (eV)
  ---------------------------------------------------
  alpha Z        PSCENC =         0.06681759
  Ewald energy   TEWEN  =      2358.21878004
  -Hartree energ DENC   =     -3044.66421707
  -exchange      EXHF   =         0.00000000
  -V(xc)+E(xc)   XCENC  =       105.60178188
  PAW double counting   =      8303.56610764    -8309.71886222
  entropy T*S    EENTRO =        -0.00000000
  eigenvalues    EBANDS =      -388.74347202
  atomic energy  EATOM  =       885.63942760
  Solvation  Ediel_sol  =         0.00000000
  ---------------------------------------------------
  free energy    TOTEN  =       -90.03363655 eV

  energy without entropy =      -90.03363655  energy(sigma->0) =      -90.03363655


--------------------------------------------------------------------------------------------------------




----------------------------------------- Iteration    1(   9)  ---------------------------------------


    POTLOK:  cpu time   30.5690: real time   30.6525
    SETDIJ:  cpu time    0.4513: real time    0.4524
     EDDAV:  cpu time   32.4940: real time   32.5830
       DOS:  cpu time    0.0000: real time    0.0000
    CHARGE:  cpu time    3.7860: real time    3.7965
    MIXING:  cpu time    0.9101: real time    0.9126
    --------------------------------------------
      LOOP:  cpu time   68.2119: real time   68.4007

 eigenvalue-minimisations  :    76
 total energy-change (2. order) : 0.5226324E-02  (-0.4301980E-02)
 number of electron      32.0000000 magnetization 
 augmentation part        1.4069863 magnetization 

 Broyden mixing:
  rms(total) = 0.53130E-01    rms(broyden)= 0.53130E-01
  rms(prec ) = 0.58164E-01
  weight for this iteration     100.00

 eigenvalues of (default mixing * dielectric matrix)
  average eigenvalue GAMMA=   1.4858
  2.1626  1.6859  1.2096  0.8849

 Free energy of the ion-electron system (eV)
  ---------------------------------------------------
  alpha Z        PSCENC =         0.06681759
  Ewald energy   TEWEN  =      2358.21878004
  -Hartree energ DENC   =     -3047.63006993
  -exchange      EXHF   =         0.00000000
  -V(xc)+E(xc)   XCENC  =       105.59079044
  PAW double counting   =      8005.50902730    -8011.63046392
  entropy T*S    EENTRO =        -0.00000000
  eigenvalues    EBANDS =      -385.79271933
  atomic energy  EATOM  =       885.63942760
  Solvation  Ediel_sol  =         0.00000000
  ---------------------------------------------------
  free energy    TOTEN  =       -90.02841023 eV

  energy without entropy =      -90.02841023  energy(sigma->0) =      -90.02841023


--------------------------------------------------------------------------------------------------------




----------------------------------------- Iteration    1(  10)  ---------------------------------------


    POTLOK:  cpu time   30.5788: real time   30.6622
    SETDIJ:  cpu time    0.4517: real time    0.4531
     EDDAV:  cpu time   29.7371: real time   29.8185
       DOS:  cpu time    0.0000: real time    0.0000
    CHARGE:  cpu time    3.8011: real time    3.8116
    MIXING:  cpu time    0.9424: real time    0.9447
    --------------------------------------------
      LOOP:  cpu time   65.5128: real time   65.6941

 eigenvalue-minimisations  :    68
 total energy-change (2. order) : 0.8445350E-02  (-0.3626697E-03)
 number of electron      32.0000000 magnetization 
 augmentation part        1.4076813 magnetization 

 Broyden mixing:
  rms(total) = 0.26840E-01    rms(broyden)= 0.26840E-01
  rms(prec ) = 0.32975E-01
  weight for this iteration     100.00

 eigenvalues of (default mixing * dielectric matrix)
  average eigenvalue GAMMA=   1.5910
  2.3077  2.3077  1.2007  1.2007  0.9380

 Free energy of the ion-electron system (eV)
  ---------------------------------------------------
  alpha Z        PSCENC =         0.06681759
  Ewald energy   TEWEN  =      2358.21878004
  -Hartree energ DENC   =     -3050.55006661
  -exchange      EXHF   =         0.00000000
  -V(xc)+E(xc)   XCENC  =       105.63926201
  PAW double counting   =      7977.39250140    -7983.50399747
  entropy T*S    EENTRO =        -0.00000000
  eigenvalues    EBANDS =      -382.92268944
  atomic energy  EATOM  =       885.63942760
  Solvation  Ediel_sol  =         0.00000000
  ---------------------------------------------------
  free energy    TOTEN  =       -90.01996488 eV

  energy without entropy =      -90.01996488  energy(sigma->0) =      -90.01996488


--------------------------------------------------------------------------------------------------------




----------------------------------------- Iteration    1(  11)  ---------------------------------------


    POTLOK:  cpu time   30.6378: real time   30.7214
    SETDIJ:  cpu time    0.4521: real time    0.4535
     EDDAV:  cpu time   28.8208: real time   28.8997
       DOS:  cpu time    0.0000: real time    0.0000
    CHARGE:  cpu time    3.7948: real time    3.8049
    MIXING:  cpu time    0.9643: real time    0.9670
    --------------------------------------------
      LOOP:  cpu time   64.6714: real time   64.8504

 eigenvalue-minimisations  :    66
 total energy-change (2. order) : 0.6986900E-02  (-0.3087788E-03)
 number of electron      32.0000000 magnetization 
 augmentation part        1.4072704 magnetization 

 Broyden mixing:
  rms(total) = 0.12239E-01    rms(broyden)= 0.12239E-01
  rms(prec ) = 0.18131E-01
  weight for this iteration     100.00

 eigenvalues of (default mixing * dielectric matrix)
  average eigenvalue GAMMA=   1.6184
  2.5691  2.5691  1.2893  1.2893  0.9968  0.9968

 Free energy of the ion-electron system (eV)
  ---------------------------------------------------
  alpha Z        PSCENC =         0.06681759
  Ewald energy   TEWEN  =      2358.21878004
  -Hartree energ DENC   =     -3055.30547124
  -exchange      EXHF   =         0.00000000
  -V(xc)+E(xc)   XCENC  =       105.74368210
  PAW double counting   =      7969.10167357    -7975.21128820
  entropy T*S    EENTRO =        -0.00000000
  eigenvalues    EBANDS =      -378.26659945
  atomic energy  EATOM  =       885.63942760
  Solvation  Ediel_sol  =         0.00000000
  ---------------------------------------------------
  free energy    TOTEN  =       -90.01297798 eV

  energy without entropy =      -90.01297798  energy(sigma->0) =      -90.01297798


--------------------------------------------------------------------------------------------------------




----------------------------------------- Iteration    1(  12)  ---------------------------------------


    POTLOK:  cpu time   30.6698: real time   30.7535
    SETDIJ:  cpu time    0.4541: real time    0.4555
     EDDAV:  cpu time   26.8946: real time   26.9682
       DOS:  cpu time    0.0000: real time    0.0000
    CHARGE:  cpu time    3.7827: real time    3.7928
    MIXING:  cpu time    0.9917: real time    0.9945
    --------------------------------------------
      LOOP:  cpu time   62.7944: real time   62.9688

 eigenvalue-minimisations  :    60
 total energy-change (2. order) : 0.3276865E-02  (-0.5105463E-03)
 number of electron      32.0000000 magnetization 
 augmentation part        1.4049447 magnetization 

 Broyden mixing:
  rms(total) = 0.10052E-01    rms(broyden)= 0.10052E-01
  rms(prec ) = 0.13111E-01
  weight for this iteration     100.00

 eigenvalues of (default mixing * dielectric matrix)
  average eigenvalue GAMMA=   1.7902
  3.5223  2.6003  1.6931  1.6931  1.0843  1.0843  0.8539

 Free energy of the ion-electron system (eV)
  ---------------------------------------------------
  alpha Z        PSCENC =         0.06681759
  Ewald energy   TEWEN  =      2358.21878004
  -Hartree energ DENC   =     -3059.99135640
  -exchange      EXHF   =         0.00000000
  -V(xc)+E(xc)   XCENC  =       105.84785803
  PAW double counting   =      7974.28534983    -7980.39853621
  entropy T*S    EENTRO =        -0.00000000
  eigenvalues    EBANDS =      -373.67804159
  atomic energy  EATOM  =       885.63942760
  Solvation  Ediel_sol  =         0.00000000
  ---------------------------------------------------
  free energy    TOTEN  =       -90.00970111 eV

  energy without entropy =      -90.00970111  energy(sigma->0) =      -90.00970111


--------------------------------------------------------------------------------------------------------




----------------------------------------- Iteration    1(  13)  ---------------------------------------


    POTLOK:  cpu time   30.6544: real time   30.7382
    SETDIJ:  cpu time    0.4507: real time    0.4518
     EDDAV:  cpu time   28.8236: real time   28.9025
       DOS:  cpu time    0.0000: real time    0.0000
    CHARGE:  cpu time    3.7900: real time    3.8005
    MIXING:  cpu time    1.0115: real time    1.0143
    --------------------------------------------
      LOOP:  cpu time   64.7319: real time   64.9111

 eigenvalue-minimisations  :    66
 total energy-change (2. order) :-0.2676804E-02  (-0.2426734E-03)
 number of electron      32.0000000 magnetization 
 augmentation part        1.4047038 magnetization 

 Broyden mixing:
  rms(total) = 0.52878E-02    rms(broyden)= 0.52878E-02
  rms(prec ) = 0.69248E-02
  weight for this iteration     100.00

 eigenvalues of (default mixing * dielectric matrix)
  average eigenvalue GAMMA=   1.8176
  4.5808  2.4469  1.9448  1.3236  1.2136  1.0380  1.0380  0.9548

 Free energy of the ion-electron system (eV)
  ---------------------------------------------------
  alpha Z        PSCENC =         0.06681759
  Ewald energy   TEWEN  =      2358.21878004
  -Hartree energ DENC   =     -3063.66055702
  -exchange      EXHF   =         0.00000000
  -V(xc)+E(xc)   XCENC  =       105.89989273
  PAW double counting   =      7957.19044641    -7963.29937003
  entropy T*S    EENTRO =        -0.00000000
  eigenvalues    EBANDS =      -370.06781524
  atomic energy  EATOM  =       885.63942760
  Solvation  Ediel_sol  =         0.00000000
  ---------------------------------------------------
  free energy    TOTEN  =       -90.01237792 eV

  energy without entropy =      -90.01237792  energy(sigma->0) =      -90.01237792


--------------------------------------------------------------------------------------------------------




----------------------------------------- Iteration    1(  14)  ---------------------------------------


    POTLOK:  cpu time   30.6338: real time   30.7175
    SETDIJ:  cpu time    0.4507: real time    0.4518
     EDDAV:  cpu time   29.5098: real time   29.5906
       DOS:  cpu time    0.0000: real time    0.0000
    CHARGE:  cpu time    3.7859: real time    3.7963
    MIXING:  cpu time    1.0501: real time    1.0530
    --------------------------------------------
      LOOP:  cpu time   65.4318: real time   65.6132

 eigenvalue-minimisations  :    68
 total energy-change (2. order) :-0.4499923E-02  (-0.7521329E-04)
 number of electron      32.0000000 magnetization 
 augmentation part        1.4038375 magnetization 

 Broyden mixing:
  rms(total) = 0.34785E-02    rms(broyden)= 0.34785E-02
  rms(prec ) = 0.46784E-02
  weight for this iteration     100.00

 eigenvalues of (default mixing * dielectric matrix)
  average eigenvalue GAMMA=   1.9454
  5.0414  2.5316  2.2631  2.2631  1.3593  1.1518  1.0466  0.9257  0.9257

 Free energy of the ion-electron system (eV)
  ---------------------------------------------------
  alpha Z        PSCENC =         0.06681759
  Ewald energy   TEWEN  =      2358.21878004
  -Hartree energ DENC   =     -3065.07262990
  -exchange      EXHF   =         0.00000000
  -V(xc)+E(xc)   XCENC  =       105.91785775
  PAW double counting   =      7947.60622113    -7953.71490877
  entropy T*S    EENTRO =        -0.00000000
  eigenvalues    EBANDS =      -368.67844327
  atomic energy  EATOM  =       885.63942760
  Solvation  Ediel_sol  =         0.00000000
  ---------------------------------------------------
  free energy    TOTEN  =       -90.01687784 eV

  energy without entropy =      -90.01687784  energy(sigma->0) =      -90.01687784


--------------------------------------------------------------------------------------------------------




----------------------------------------- Iteration    1(  15)  ---------------------------------------


    POTLOK:  cpu time   30.6627: real time   30.7465
    SETDIJ:  cpu time    0.4505: real time    0.4516
     EDDAV:  cpu time   24.4632: real time   24.5303
       DOS:  cpu time    0.0000: real time    0.0000
    CHARGE:  cpu time    3.7848: real time    3.7949
    MIXING:  cpu time    1.0855: real time    1.0885
    --------------------------------------------
      LOOP:  cpu time   60.4483: real time   60.6155

 eigenvalue-minimisations  :    52
 total energy-change (2. order) :-0.1053812E-01  (-0.1190412E-03)
 number of electron      32.0000000 magnetization 
 augmentation part        1.4042290 magnetization 

 Broyden mixing:
  rms(total) = 0.19753E-02    rms(broyden)= 0.19753E-02
  rms(prec ) = 0.25414E-02
  weight for this iteration     100.00

 eigenvalues of (default mixing * dielectric matrix)
  average eigenvalue GAMMA=   2.0719
  6.1500  3.5824  2.4385  2.1678  1.5217  1.1221  1.1221  0.8589  0.8778  0.8778

 Free energy of the ion-electron system (eV)
  ---------------------------------------------------
  alpha Z        PSCENC =         0.06681759
  Ewald energy   TEWEN  =      2358.21878004
  -Hartree energ DENC   =     -3065.76307804
  -exchange      EXHF   =         0.00000000
  -V(xc)+E(xc)   XCENC  =       105.90271328
  PAW double counting   =      7938.72241611    -7944.82949522
  entropy T*S    EENTRO =        -0.00000000
  eigenvalues    EBANDS =      -367.98499733
  atomic energy  EATOM  =       885.63942760
  Solvation  Ediel_sol  =         0.00000000
  ---------------------------------------------------
  free energy    TOTEN  =       -90.02741596 eV

  energy without entropy =      -90.02741596  energy(sigma->0) =      -90.02741596


--------------------------------------------------------------------------------------------------------




----------------------------------------- Iteration    1(  16)  ---------------------------------------


    POTLOK:  cpu time   30.6294: real time   30.7130
    SETDIJ:  cpu time    0.4514: real time    0.4528
     EDDAV:  cpu time   29.7206: real time   29.8014
       DOS:  cpu time    0.0000: real time    0.0000
    CHARGE:  cpu time    3.7776: real time    3.7880
    MIXING:  cpu time    1.1308: real time    1.1338
    --------------------------------------------
      LOOP:  cpu time   65.7112: real time   65.8928

 eigenvalue-minimisations  :    68
 total energy-change (2. order) :-0.3710219E-02  (-0.4433294E-04)
 number of electron      32.0000000 magnetization 
 augmentation part        1.4039315 magnetization 

 Broyden mixing:
  rms(total) = 0.14983E-02    rms(broyden)= 0.14983E-02
  rms(prec ) = 0.17661E-02
  weight for this iteration     100.00

 eigenvalues of (default mixing * dielectric matrix)
  average eigenvalue GAMMA=   1.9747
  6.3789  3.4690  2.2492  2.1323  1.4853  1.1136  1.1136  0.8975  0.8975  0.9921
  0.9921

 Free energy of the ion-electron system (eV)
  ---------------------------------------------------
  alpha Z        PSCENC =         0.06681759
  Ewald energy   TEWEN  =      2358.21878004
  -Hartree energ DENC   =     -3066.22004422
  -exchange      EXHF   =         0.00000000
  -V(xc)+E(xc)   XCENC  =       105.90333043
  PAW double counting   =      7940.28829330    -7946.39618174
  entropy T*S    EENTRO =        -0.00000000
  eigenvalues    EBANDS =      -367.53154917
  atomic energy  EATOM  =       885.63942760
  Solvation  Ediel_sol  =         0.00000000
  ---------------------------------------------------
  free energy    TOTEN  =       -90.03112618 eV

  energy without entropy =      -90.03112618  energy(sigma->0) =      -90.03112618


--------------------------------------------------------------------------------------------------------




----------------------------------------- Iteration    1(  17)  ---------------------------------------


    POTLOK:  cpu time   30.6357: real time   30.7195
    SETDIJ:  cpu time    0.4519: real time    0.4533
     EDDAV:  cpu time   34.9732: real time   35.0687
       DOS:  cpu time    0.0000: real time    0.0000
    CHARGE:  cpu time    3.7974: real time    3.8075
    MIXING:  cpu time    1.1516: real time    1.1550
    --------------------------------------------
      LOOP:  cpu time   71.0114: real time   71.2085

 eigenvalue-minimisations  :    84
 total energy-change (2. order) :-0.9825803E-03  (-0.3745383E-05)
 number of electron      32.0000000 magnetization 
 augmentation part        1.4038649 magnetization 

 Broyden mixing:
  rms(total) = 0.12174E-02    rms(broyden)= 0.12174E-02
  rms(prec ) = 0.14431E-02
  weight for this iteration     100.00

 eigenvalues of (default mixing * dielectric matrix)
  average eigenvalue GAMMA=   2.0523
  6.9522  3.7040  2.3660  2.3660  1.8404  1.6598  1.0748  1.0748  1.0741  0.8762
  0.8762  0.7632

 Free energy of the ion-electron system (eV)
  ---------------------------------------------------
  alpha Z        PSCENC =         0.06681759
  Ewald energy   TEWEN  =      2358.21878004
  -Hartree energ DENC   =     -3066.26784924
  -exchange      EXHF   =         0.00000000
  -V(xc)+E(xc)   XCENC  =       105.90098230
  PAW double counting   =      7938.43641584    -7944.54370885
  entropy T*S    EENTRO =        -0.00000000
  eigenvalues    EBANDS =      -367.48297404
  atomic energy  EATOM  =       885.63942760
  Solvation  Ediel_sol  =         0.00000000
  ---------------------------------------------------
  free energy    TOTEN  =       -90.03210876 eV

  energy without entropy =      -90.03210876  energy(sigma->0) =      -90.03210876


--------------------------------------------------------------------------------------------------------




----------------------------------------- Iteration    1(  18)  ---------------------------------------


    POTLOK:  cpu time   30.6053: real time   30.6886
    SETDIJ:  cpu time    0.4519: real time    0.4533
     EDDAV:  cpu time   26.4109: real time   26.4831
       DOS:  cpu time    0.0000: real time    0.0000
    CHARGE:  cpu time    3.8030: real time    3.8135
    MIXING:  cpu time    1.1837: real time    1.1869
    --------------------------------------------
      LOOP:  cpu time   62.4564: real time   62.6293

 eigenvalue-minimisations  :    58
 total energy-change (2. order) :-0.2082138E-02  (-0.1119724E-04)
 number of electron      32.0000000 magnetization 
 augmentation part        1.4038989 magnetization 

 Broyden mixing:
  rms(total) = 0.13260E-02    rms(broyden)= 0.13260E-02
  rms(prec ) = 0.13912E-02
  weight for this iteration     100.00

 eigenvalues of (default mixing * dielectric matrix)
  average eigenvalue GAMMA=   2.1434
  7.6287  4.8817  2.5000  2.5000  2.0653  1.4783  1.0774  1.0774  1.1053  0.9141
  0.8715  0.8821  0.8821

 Free energy of the ion-electron system (eV)
  ---------------------------------------------------
  alpha Z        PSCENC =         0.06681759
  Ewald energy   TEWEN  =      2358.21878004
  -Hartree energ DENC   =     -3066.35055161
  -exchange      EXHF   =         0.00000000
  -V(xc)+E(xc)   XCENC  =       105.89616235
  PAW double counting   =      7936.43275403    -7942.53965735
  entropy T*S    EENTRO =        -0.00000000
  eigenvalues    EBANDS =      -367.39792355
  atomic energy  EATOM  =       885.63942760
  Solvation  Ediel_sol  =         0.00000000
  ---------------------------------------------------
  free energy    TOTEN  =       -90.03419090 eV

  energy without entropy =      -90.03419090  energy(sigma->0) =      -90.03419090


--------------------------------------------------------------------------------------------------------




----------------------------------------- Iteration    1(  19)  ---------------------------------------


    POTLOK:  cpu time   30.5564: real time   30.6396
    SETDIJ:  cpu time    0.4517: real time    0.4528
     EDDAV:  cpu time   24.4634: real time   24.5305
       DOS:  cpu time    0.0000: real time    0.0000
    CHARGE:  cpu time    3.7844: real time    3.7948
    MIXING:  cpu time    1.2386: real time    1.2419
    --------------------------------------------
      LOOP:  cpu time   60.4960: real time   60.6634

 eigenvalue-minimisations  :    52
 total energy-change (2. order) :-0.8452904E-03  (-0.5243131E-05)
 number of electron      32.0000000 magnetization 
 augmentation part        1.4038590 magnetization 

 Broyden mixing:
  rms(total) = 0.52752E-03    rms(broyden)= 0.52752E-03
  rms(prec ) = 0.58387E-03
  weight for this iteration     100.00

 eigenvalues of (default mixing * dielectric matrix)
  average eigenvalue GAMMA=   2.0709
  7.8907  4.8836  2.5807  2.4565  1.6725  1.6725  1.1851  1.1851  1.0338  1.0338
  0.9121  0.9121  0.8875  0.6866

 Free energy of the ion-electron system (eV)
  ---------------------------------------------------
  alpha Z        PSCENC =         0.06681759
  Ewald energy   TEWEN  =      2358.21878004
  -Hartree energ DENC   =     -3066.41813892
  -exchange      EXHF   =         0.00000000
  -V(xc)+E(xc)   XCENC  =       105.89639831
  PAW double counting   =      7939.49222829    -7945.59974748
  entropy T*S    EENTRO =        -0.00000000
  eigenvalues    EBANDS =      -367.33080162
  atomic energy  EATOM  =       885.63942760
  Solvation  Ediel_sol  =         0.00000000
  ---------------------------------------------------
  free energy    TOTEN  =       -90.03503619 eV

  energy without entropy =      -90.03503619  energy(sigma->0) =      -90.03503619


--------------------------------------------------------------------------------------------------------




----------------------------------------- Iteration    1(  20)  ---------------------------------------


    POTLOK:  cpu time   30.5555: real time   30.6387
    SETDIJ:  cpu time    0.4517: real time    0.4531
     EDDAV:  cpu time   34.9512: real time   35.0468
       DOS:  cpu time    0.0000: real time    0.0000
    CHARGE:  cpu time    3.7967: real time    3.8071
    MIXING:  cpu time    1.2691: real time    1.2725
    --------------------------------------------
      LOOP:  cpu time   71.0256: real time   72.1621

 eigenvalue-minimisations  :    84
 total energy-change (2. order) :-0.1676657E-03  (-0.5310449E-06)
 number of electron      32.0000000 magnetization 
 augmentation part        1.4038546 magnetization 

 Broyden mixing:
  rms(total) = 0.34151E-03    rms(broyden)= 0.34151E-03
  rms(prec ) = 0.39729E-03
  weight for this iteration     100.00

 eigenvalues of (default mixing * dielectric matrix)
  average eigenvalue GAMMA=   2.0262
  7.9098  5.0159  2.5580  2.5580  1.7741  1.6255  1.1259  1.1259  1.1032  1.1032
  0.9117  0.9117  0.9138  0.9138  0.8420

 Free energy of the ion-electron system (eV)
  ---------------------------------------------------
  alpha Z        PSCENC =         0.06681759
  Ewald energy   TEWEN  =      2358.21878004
  -Hartree energ DENC   =     -3066.43432350
  -exchange      EXHF   =         0.00000000
  -V(xc)+E(xc)   XCENC  =       105.89655851
  PAW double counting   =      7939.42024834    -7945.52779471
  entropy T*S    EENTRO =        -0.00000000
  eigenvalues    EBANDS =      -367.31491772
  atomic energy  EATOM  =       885.63942760
  Solvation  Ediel_sol  =         0.00000000
  ---------------------------------------------------
  free energy    TOTEN  =       -90.03520386 eV

  energy without entropy =      -90.03520386  energy(sigma->0) =      -90.03520386


--------------------------------------------------------------------------------------------------------




----------------------------------------- Iteration    1(  21)  ---------------------------------------


    POTLOK:  cpu time   30.5475: real time   30.6311
    SETDIJ:  cpu time    0.4515: real time    0.4526
     EDDAV:  cpu time   29.4948: real time   29.5757
       DOS:  cpu time    0.0000: real time    0.0000
    CHARGE:  cpu time    3.7864: real time    3.7966
    MIXING:  cpu time    1.3212: real time    1.3250
    --------------------------------------------
      LOOP:  cpu time   65.6030: real time   65.7850

 eigenvalue-minimisations  :    68
 total energy-change (2. order) :-0.2148777E-03  (-0.1858532E-06)
 number of electron      32.0000000 magnetization 
 augmentation part        1.4038527 magnetization 

 Broyden mixing:
  rms(total) = 0.20049E-03    rms(broyden)= 0.20049E-03
  rms(prec ) = 0.25173E-03
  weight for this iteration     100.00

 eigenvalues of (default mixing * dielectric matrix)
  average eigenvalue GAMMA=   2.1399
  8.3556  5.3465  3.1596  2.5006  2.5006  1.6073  1.6073  1.3858  1.0888  1.0888
  1.1158  1.1158  0.8525  0.8525  0.8307  0.8307

 Free energy of the ion-electron system (eV)
  ---------------------------------------------------
  alpha Z        PSCENC =         0.06681759
  Ewald energy   TEWEN  =      2358.21878004
  -Hartree energ DENC   =     -3066.43395397
  -exchange      EXHF   =         0.00000000
  -V(xc)+E(xc)   XCENC  =       105.89597768
  PAW double counting   =      7939.09823334    -7945.20571399
  entropy T*S    EENTRO =        -0.00000000
  eigenvalues    EBANDS =      -367.31498703
  atomic energy  EATOM  =       885.63942760
  Solvation  Ediel_sol  =         0.00000000
  ---------------------------------------------------
  free energy    TOTEN  =       -90.03541873 eV

  energy without entropy =      -90.03541873  energy(sigma->0) =      -90.03541873


--------------------------------------------------------------------------------------------------------




----------------------------------------- Iteration    1(  22)  ---------------------------------------


    POTLOK:  cpu time   30.5133: real time   30.5966
    SETDIJ:  cpu time    0.4514: real time    0.4527
     EDDAV:  cpu time   26.8772: real time   26.9509
       DOS:  cpu time    0.0000: real time    0.0000
    CHARGE:  cpu time    3.8011: real time    3.8116
    MIXING:  cpu time    1.3692: real time    1.3728
    --------------------------------------------
      LOOP:  cpu time   63.0138: real time   63.1881

 eigenvalue-minimisations  :    60
 total energy-change (2. order) :-0.3309819E-03  (-0.6086038E-06)
 number of electron      32.0000000 magnetization 
 augmentation part        1.4038646 magnetization 

 Broyden mixing:
  rms(total) = 0.22180E-03    rms(broyden)= 0.22180E-03
  rms(prec ) = 0.23182E-03
  weight for this iteration     100.00

 eigenvalues of (default mixing * dielectric matrix)
  average eigenvalue GAMMA=   2.1310
  8.7442  5.8043  3.6108  2.4897  2.1310  1.9490  1.5708  1.1716  1.1716  1.1459
  1.0552  1.0552  0.9318  0.9318  0.8521  0.8521  0.7599

 Free energy of the ion-electron system (eV)
  ---------------------------------------------------
  alpha Z        PSCENC =         0.06681759
  Ewald energy   TEWEN  =      2358.21878004
  -Hartree energ DENC   =     -3066.46037601
  -exchange      EXHF   =         0.00000000
  -V(xc)+E(xc)   XCENC  =       105.89601952
  PAW double counting   =      7939.13001514    -7945.23749585
  entropy T*S    EENTRO =        -0.00000000
  eigenvalues    EBANDS =      -367.28893776
  atomic energy  EATOM  =       885.63942760
  Solvation  Ediel_sol  =         0.00000000
  ---------------------------------------------------
  free energy    TOTEN  =       -90.03574972 eV

  energy without entropy =      -90.03574972  energy(sigma->0) =      -90.03574972


--------------------------------------------------------------------------------------------------------




----------------------------------------- Iteration    1(  23)  ---------------------------------------


    POTLOK:  cpu time   30.4639: real time   30.5472
    SETDIJ:  cpu time    0.4513: real time    0.4524
     EDDAV:  cpu time   32.0860: real time   32.1734
       DOS:  cpu time    0.0000: real time    0.0000
    CHARGE:  cpu time    3.8011: real time    3.8115
    MIXING:  cpu time    1.4067: real time    1.4104
    --------------------------------------------
      LOOP:  cpu time   68.2105: real time   68.3987

 eigenvalue-minimisations  :    76
 total energy-change (2. order) :-0.3925849E-04  (-0.1156782E-06)
 number of electron      32.0000000 magnetization 
 augmentation part        1.4038769 magnetization 

 Broyden mixing:
  rms(total) = 0.21868E-03    rms(broyden)= 0.21868E-03
  rms(prec ) = 0.22533E-03
  weight for this iteration     100.00

 eigenvalues of (default mixing * dielectric matrix)
  average eigenvalue GAMMA=   2.0856
  8.7083  5.8727  3.7912  2.4151  2.4151  1.7206  1.7206  1.3086  1.3086  1.0968
  1.0968  1.0469  0.9070  0.9070  0.8644  0.8644  0.7482  0.7482

 Free energy of the ion-electron system (eV)
  ---------------------------------------------------
  alpha Z        PSCENC =         0.06681759
  Ewald energy   TEWEN  =      2358.21878004
  -Hartree energ DENC   =     -3066.46441768
  -exchange      EXHF   =         0.00000000
  -V(xc)+E(xc)   XCENC  =       105.89597354
  PAW double counting   =      7938.90276120    -7945.01024558
  entropy T*S    EENTRO =        -0.00000000
  eigenvalues    EBANDS =      -367.28488568
  atomic energy  EATOM  =       885.63942760
  Solvation  Ediel_sol  =         0.00000000
  ---------------------------------------------------
  free energy    TOTEN  =       -90.03578897 eV

  energy without entropy =      -90.03578897  energy(sigma->0) =      -90.03578897


--------------------------------------------------------------------------------------------------------




----------------------------------------- Iteration    1(  24)  ---------------------------------------


    POTLOK:  cpu time   30.4558: real time   30.5390
    SETDIJ:  cpu time    0.4510: real time    0.4521
     EDDAV:  cpu time   26.8941: real time   26.9677
       DOS:  cpu time    0.0000: real time    0.0000
    CHARGE:  cpu time    3.7891: real time    3.7995
    MIXING:  cpu time    1.4649: real time    1.4691
    --------------------------------------------
      LOOP:  cpu time   63.0565: real time   63.2310

 eigenvalue-minimisations  :    60
 total energy-change (2. order) :-0.3012002E-04  (-0.2158002E-07)
 number of electron      32.0000000 magnetization 
 augmentation part        1.4038566 magnetization 

 Broyden mixing:
  rms(total) = 0.11941E-03    rms(broyden)= 0.11941E-03
  rms(prec ) = 0.12580E-03
  weight for this iteration     100.00

 eigenvalues of (default mixing * dielectric matrix)
  average eigenvalue GAMMA=   2.1795
  8.9944  6.2709  4.4036  2.7035  2.5848  2.1159  1.7393  1.7393  1.2434  1.2434
  0.9983  0.9983  1.0543  0.9671  0.9671  0.9275  0.7946  0.8327  0.8327

 Free energy of the ion-electron system (eV)
  ---------------------------------------------------
  alpha Z        PSCENC =         0.06681759
  Ewald energy   TEWEN  =      2358.21878004
  -Hartree energ DENC   =     -3066.47447645
  -exchange      EXHF   =         0.00000000
  -V(xc)+E(xc)   XCENC  =       105.89625564
  PAW double counting   =      7938.76407425    -7944.87159767
  entropy T*S    EENTRO =        -0.00000000
  eigenvalues    EBANDS =      -367.27510010
  atomic energy  EATOM  =       885.63942760
  Solvation  Ediel_sol  =         0.00000000
  ---------------------------------------------------
  free energy    TOTEN  =       -90.03581909 eV

  energy without entropy =      -90.03581909  energy(sigma->0) =      -90.03581909


--------------------------------------------------------------------------------------------------------




----------------------------------------- Iteration    1(  25)  ---------------------------------------


    POTLOK:  cpu time   30.4267: real time   30.5095
    SETDIJ:  cpu time    0.4512: real time    0.4526
     EDDAV:  cpu time   29.4772: real time   29.5577
       DOS:  cpu time    0.0000: real time    0.0000
    CHARGE:  cpu time    3.7945: real time    3.8050
    MIXING:  cpu time    1.5245: real time    1.5285
    --------------------------------------------
      LOOP:  cpu time   65.6758: real time   65.8573

 eigenvalue-minimisations  :    68
 total energy-change (2. order) :-0.5287069E-04  (-0.3436727E-07)
 number of electron      32.0000000 magnetization 
 augmentation part        1.4038510 magnetization 

 Broyden mixing:
  rms(total) = 0.16055E-03    rms(broyden)= 0.16055E-03
  rms(prec ) = 0.16225E-03
  weight for this iteration     100.00

 eigenvalues of (default mixing * dielectric matrix)
  average eigenvalue GAMMA=   2.1063
  9.0733  6.3607  4.4159  2.7611  2.3000  2.3000  1.6278  1.6278  1.3425  0.9998
  0.9998  1.1287  1.1287  0.9718  0.9718  0.9025  0.9025  0.8491  0.8129  0.6484

 Free energy of the ion-electron system (eV)
  ---------------------------------------------------
  alpha Z        PSCENC =         0.06681759
  Ewald energy   TEWEN  =      2358.21878004
  -Hartree energ DENC   =     -3066.47980652
  -exchange      EXHF   =         0.00000000
  -V(xc)+E(xc)   XCENC  =       105.89618830
  PAW double counting   =      7938.71400461    -7944.82153359
  entropy T*S    EENTRO =        -0.00000000
  eigenvalues    EBANDS =      -367.26975000
  atomic energy  EATOM  =       885.63942760
  Solvation  Ediel_sol  =         0.00000000
  ---------------------------------------------------
  free energy    TOTEN  =       -90.03587196 eV

  energy without entropy =      -90.03587196  energy(sigma->0) =      -90.03587196


--------------------------------------------------------------------------------------------------------




----------------------------------------- Iteration    1(  26)  ---------------------------------------


    POTLOK:  cpu time   30.4212: real time   30.5043
    SETDIJ:  cpu time    0.4501: real time    0.4512
     EDDAV:  cpu time   24.5496: real time   24.6169
       DOS:  cpu time    0.0000: real time    0.0000
    CHARGE:  cpu time    3.8087: real time    3.8192
    MIXING:  cpu time    1.5757: real time    1.5799
    --------------------------------------------
      LOOP:  cpu time   60.8069: real time   60.9751

 eigenvalue-minimisations  :    52
 total energy-change (2. order) :-0.1845689E-05  (-0.3507379E-08)
 number of electron      32.0000000 magnetization 
 augmentation part        1.4038587 magnetization 

 Broyden mixing:
  rms(total) = 0.97845E-04    rms(broyden)= 0.97845E-04
  rms(prec ) = 0.99762E-04
  weight for this iteration     100.00

 eigenvalues of (default mixing * dielectric matrix)
  average eigenvalue GAMMA=   2.0591
  9.1180  6.3589  4.4766  2.8626  2.2947  2.2947  1.5757  1.5757  1.4263  1.0183
  1.0183  1.1504  1.1504  0.9958  0.9958  0.8456  0.7939  0.8362  0.8362  0.8089
  0.8089

 Free energy of the ion-electron system (eV)
  ---------------------------------------------------
  alpha Z        PSCENC =         0.06681759
  Ewald energy   TEWEN  =      2358.21878004
  -Hartree energ DENC   =     -3066.47742686
  -exchange      EXHF   =         0.00000000
  -V(xc)+E(xc)   XCENC  =       105.89608230
  PAW double counting   =      7938.70984400    -7944.81735427
  entropy T*S    EENTRO =        -0.00000000
  eigenvalues    EBANDS =      -367.27204421
  atomic energy  EATOM  =       885.63942760
  Solvation  Ediel_sol  =         0.00000000
  ---------------------------------------------------
  free energy    TOTEN  =       -90.03587381 eV

  energy without entropy =      -90.03587381  energy(sigma->0) =      -90.03587381


--------------------------------------------------------------------------------------------------------




----------------------------------------- Iteration    1(  27)  ---------------------------------------


    POTLOK:  cpu time   30.4016: real time   30.4845
    SETDIJ:  cpu time    0.4547: real time    0.4558
     EDDAV:  cpu time   24.5305: real time   24.5978
       DOS:  cpu time    0.0000: real time    0.0000
    CHARGE:  cpu time    3.7943: real time    3.8047
    MIXING:  cpu time    1.6377: real time    1.6420
    --------------------------------------------
      LOOP:  cpu time   60.8206: real time   61.0098

 eigenvalue-minimisations  :    52
 total energy-change (2. order) :-0.6871689E-05  (-0.1900451E-08)
 number of electron      32.0000000 magnetization 
 augmentation part        1.4038559 magnetization 

 Broyden mixing:
  rms(total) = 0.87270E-04    rms(broyden)= 0.87270E-04
  rms(prec ) = 0.88455E-04
  weight for this iteration     100.00

 eigenvalues of (default mixing * dielectric matrix)
  average eigenvalue GAMMA=   2.0607
  9.1887  6.5344  4.5692  3.1034  2.5264  2.1815  1.5038  1.5038  1.4493  1.4493
  1.0905  1.0905  1.2721  1.0443  1.0443  0.9366  0.9366  0.8937  0.8135  0.8135
  0.7498  0.6394

 Free energy of the ion-electron system (eV)
  ---------------------------------------------------
  alpha Z        PSCENC =         0.06681759
  Ewald energy   TEWEN  =      2358.21878004
  -Hartree energ DENC   =     -3066.47686537
  -exchange      EXHF   =         0.00000000
  -V(xc)+E(xc)   XCENC  =       105.89602384
  PAW double counting   =      7938.61738303    -7944.72488704
  entropy T*S    EENTRO =        -0.00000000
  eigenvalues    EBANDS =      -367.27256037
  atomic energy  EATOM  =       885.63942760
  Solvation  Ediel_sol  =         0.00000000
  ---------------------------------------------------
  free energy    TOTEN  =       -90.03588068 eV

  energy without entropy =      -90.03588068  energy(sigma->0) =      -90.03588068


--------------------------------------------------------------------------------------------------------




----------------------------------------- Iteration    1(  28)  ---------------------------------------


    POTLOK:  cpu time   30.3999: real time   30.4830
    SETDIJ:  cpu time    0.4515: real time    0.4526
     EDDAV:  cpu time   19.2797: real time   19.3327
       DOS:  cpu time    0.0000: real time    0.0000
    CHARGE:  cpu time    3.7930: real time    3.8035
    MIXING:  cpu time    1.6968: real time    1.7013
    --------------------------------------------
      LOOP:  cpu time   55.6226: real time   55.7766

 eigenvalue-minimisations  :    36
 total energy-change (2. order) :-0.8282806E-05  (-0.4051465E-08)
 number of electron      32.0000000 magnetization 
 augmentation part        1.4038702 magnetization 

 Broyden mixing:
  rms(total) = 0.48004E-04    rms(broyden)= 0.48004E-04
  rms(prec ) = 0.48756E-04
  weight for this iteration     100.00

 eigenvalues of (default mixing * dielectric matrix)
  average eigenvalue GAMMA=   2.0799
  9.2512  6.8638  4.9988  3.4820  2.5153  2.2022  2.2022  1.5659  1.5659  1.4010
  1.1307  1.1307  1.1108  1.1108  0.9970  0.9970  0.9096  0.9096  0.8560  0.7711
  0.6559  0.6559  0.5540

 Free energy of the ion-electron system (eV)
  ---------------------------------------------------
  alpha Z        PSCENC =         0.06681759
  Ewald energy   TEWEN  =      2358.21878004
  -Hartree energ DENC   =     -3066.47495305
  -exchange      EXHF   =         0.00000000
  -V(xc)+E(xc)   XCENC  =       105.89594532
  PAW double counting   =      7938.76883975    -7944.87634565
  entropy T*S    EENTRO =        -0.00000000
  eigenvalues    EBANDS =      -367.27440057
  atomic energy  EATOM  =       885.63942760
  Solvation  Ediel_sol  =         0.00000000
  ---------------------------------------------------
  free energy    TOTEN  =       -90.03588897 eV

  energy without entropy =      -90.03588897  energy(sigma->0) =      -90.03588897


--------------------------------------------------------------------------------------------------------




----------------------------------------- Iteration    1(  29)  ---------------------------------------


    POTLOK:  cpu time   30.4022: real time   30.4853
    SETDIJ:  cpu time    0.4502: real time    0.4513
     EDDAV:  cpu time   19.2620: real time   19.3146
       DOS:  cpu time    0.0000: real time    0.0000
    CHARGE:  cpu time    3.7920: real time    3.8025
    MIXING:  cpu time    1.7471: real time    1.7519
    --------------------------------------------
      LOOP:  cpu time   55.6550: real time   55.8092

 eigenvalue-minimisations  :    36
 total energy-change (2. order) :-0.4425830E-05  (-0.2429349E-08)
 number of electron      32.0000000 magnetization 
 augmentation part        1.4038597 magnetization 

 Broyden mixing:
  rms(total) = 0.48515E-04    rms(broyden)= 0.48515E-04
  rms(prec ) = 0.48889E-04
  weight for this iteration     100.00

 eigenvalues of (default mixing * dielectric matrix)
  average eigenvalue GAMMA=   2.0554
  9.2741  7.0171  5.0451  3.6790  2.6186  2.2422  2.2422  1.5885  1.5885  1.4178
  1.0788  1.0788  1.1176  1.1176  1.0189  1.0189  0.8220  0.8220  0.8870  0.8870
  0.8363  0.8363  0.7123  0.3829

 Free energy of the ion-electron system (eV)
  ---------------------------------------------------
  alpha Z        PSCENC =         0.06681759
  Ewald energy   TEWEN  =      2358.21878004
  -Hartree energ DENC   =     -3066.47544371
  -exchange      EXHF   =         0.00000000
  -V(xc)+E(xc)   XCENC  =       105.89593927
  PAW double counting   =      7938.71718406    -7944.82469020
  entropy T*S    EENTRO =        -0.00000000
  eigenvalues    EBANDS =      -367.27390804
  atomic energy  EATOM  =       885.63942760
  Solvation  Ediel_sol  =         0.00000000
  ---------------------------------------------------
  free energy    TOTEN  =       -90.03589339 eV

  energy without entropy =      -90.03589339  energy(sigma->0) =      -90.03589339


--------------------------------------------------------------------------------------------------------




----------------------------------------- Iteration    1(  30)  ---------------------------------------


    POTLOK:  cpu time   30.3919: real time   30.4751
    SETDIJ:  cpu time    0.4511: real time    0.4522
     EDDAV:  cpu time   24.5188: real time   24.5861
       DOS:  cpu time    0.0000: real time    0.0000
    CHARGE:  cpu time    3.8075: real time    3.8177
    MIXING:  cpu time    1.8024: real time    1.8074
    --------------------------------------------
      LOOP:  cpu time   60.9733: real time   61.1421

 eigenvalue-minimisations  :    52
 total energy-change (2. order) :-0.1905739E-05  (-0.1497160E-08)
 number of electron      32.0000000 magnetization 
 augmentation part        1.4038684 magnetization 

 Broyden mixing:
  rms(total) = 0.29372E-04    rms(broyden)= 0.29372E-04
  rms(prec ) = 0.29915E-04
  weight for this iteration     100.00

 eigenvalues of (default mixing * dielectric matrix)
  average eigenvalue GAMMA=   2.0246
  9.2989  7.0859  5.1251  3.6660  2.6006  2.2973  2.2973  1.5822  1.5822  1.1587
  1.1587  1.3411  1.0916  1.0916  1.0941  1.0941  0.9740  0.9740  0.9216  0.8527
  0.8527  0.7933  0.6577  0.6577  0.3654

 Free energy of the ion-electron system (eV)
  ---------------------------------------------------
  alpha Z        PSCENC =         0.06681759
  Ewald energy   TEWEN  =      2358.21878004
  -Hartree energ DENC   =     -3066.47501360
  -exchange      EXHF   =         0.00000000
  -V(xc)+E(xc)   XCENC  =       105.89591928
  PAW double counting   =      7938.75852961    -7944.86603223
[...]


--------------------------------------------------------------------------------------------------------




----------------------------------------- Iteration    1(  37)  ---------------------------------------


    POTLOK:  cpu time   30.4405: real time   30.5235
    SETDIJ:  cpu time    0.4532: real time    0.4546
     EDDAV:  cpu time   24.3601: real time   24.4267
       DOS:  cpu time    0.0000: real time    0.0000
    CHARGE:  cpu time    3.8109: real time    3.8213
    MIXING:  cpu time    2.2929: real time    2.2991
    --------------------------------------------
      LOOP:  cpu time   61.3592: real time   61.5292

 eigenvalue-minimisations  :    52
 total energy-change (2. order) :-0.1742028E-06  (-0.2391900E-09)
 number of electron      32.0000000 magnetization 
 augmentation part        1.4038614 magnetization 

 Broyden mixing:
  rms(total) = 0.16263E-04    rms(broyden)= 0.16263E-04
  rms(prec ) = 0.16319E-04
  weight for this iteration     100.00

 eigenvalues of (default mixing * dielectric matrix)
  average eigenvalue GAMMA=   1.9531
  9.5542  7.7103  6.3177  4.5003  3.7943  2.5195  2.3205  2.3205  1.5537  1.5537
  1.6098  1.6098  1.4634  1.1695  1.1695  1.1464  1.1464  0.9592  0.9592  0.9573
  0.9573  0.9211  0.8473  0.8473  0.8247  0.6792  0.6792  0.6323  0.6323  0.2700
  0.3563  0.5166

 Free energy of the ion-electron system (eV)
  ---------------------------------------------------
  alpha Z        PSCENC =         0.06681759
  Ewald energy   TEWEN  =      2358.21878004
  -Hartree energ DENC   =     -3066.47720753
  -exchange      EXHF   =         0.00000000
  -V(xc)+E(xc)   XCENC  =       105.89598568
  PAW double counting   =      7938.77087186    -7944.87837715
  entropy T*S    EENTRO =        -0.00000000
  eigenvalues    EBANDS =      -367.27219745
  atomic energy  EATOM  =       885.63942760
  Solvation  Ediel_sol  =         0.00000000
  ---------------------------------------------------
  free energy    TOTEN  =       -90.03589936 eV

  energy without entropy =      -90.03589936  energy(sigma->0) =      -90.03589936


--------------------------------------------------------------------------------------------------------




----------------------------------------- Iteration    1(  38)  ---------------------------------------


    POTLOK:  cpu time   30.5173: real time   30.6007
    SETDIJ:  cpu time    0.4520: real time    0.4531
     EDDAV:  cpu time   24.3288: real time   24.3956
       DOS:  cpu time    0.0000: real time    0.0000
    CHARGE:  cpu time    3.7987: real time    3.8092
    MIXING:  cpu time    2.3825: real time    2.3889
    --------------------------------------------
      LOOP:  cpu time   61.4809: real time   61.6516

 eigenvalue-minimisations  :    52
 total energy-change (2. order) :-0.1125700E-06  (-0.1953175E-09)
 number of electron      32.0000000 magnetization 
 augmentation part        1.4038625 magnetization 

 Broyden mixing:
  rms(total) = 0.48240E-05    rms(broyden)= 0.48240E-05
  rms(prec ) = 0.48885E-05
  weight for this iteration     100.00

 eigenvalues of (default mixing * dielectric matrix)
  average eigenvalue GAMMA=   1.9077
  9.5556  7.7378  6.3503  4.5438  3.8189  2.5564  2.2791  2.2791  1.5407  1.5407
  1.6167  1.6167  1.4432  1.1525  1.1525  1.1317  1.1317  0.9508  0.9508  1.0260
  0.8906  0.8906  0.8835  0.8099  0.8099  0.7343  0.6837  0.6837  0.6322  0.6322
  0.2666  0.3043  0.3571

 Free energy of the ion-electron system (eV)
  ---------------------------------------------------
  alpha Z        PSCENC =         0.06681759
  Ewald energy   TEWEN  =      2358.21878004
  -Hartree energ DENC   =     -3066.47707951
  -exchange      EXHF   =         0.00000000
  -V(xc)+E(xc)   XCENC  =       105.89598183
  PAW double counting   =      7938.77361853    -7944.88112317
  entropy T*S    EENTRO =        -0.00000000
  eigenvalues    EBANDS =      -367.27232238
  atomic energy  EATOM  =       885.63942760
  Solvation  Ediel_sol  =         0.00000000
  ---------------------------------------------------
  free energy    TOTEN  =       -90.03589947 eV

  energy without entropy =      -90.03589947  energy(sigma->0) =      -90.03589947


--------------------------------------------------------------------------------------------------------




----------------------------------------- Iteration    1(  39)  ---------------------------------------


    POTLOK:  cpu time   30.5203: real time   30.6038
    SETDIJ:  cpu time    0.4500: real time    0.4511
     EDDAV:  cpu time   24.3523: real time   24.4192
       DOS:  cpu time    0.0000: real time    0.0000
    --------------------------------------------
      LOOP:  cpu time   55.3241: real time   55.4783

 eigenvalue-minimisations  :    52
 total energy-change (2. order) :-0.1509852E-07  (-0.1568186E-09)
 number of electron      32.0000000 magnetization 
 augmentation part        1.4038625 magnetization 

 Free energy of the ion-electron system (eV)
  ---------------------------------------------------
  alpha Z        PSCENC =         0.06681759
  Ewald energy   TEWEN  =      2358.21878004
  -Hartree energ DENC   =     -3066.47702920
  -exchange      EXHF   =         0.00000000
  -V(xc)+E(xc)   XCENC  =       105.89597991
  PAW double counting   =      7938.77398483    -7944.88148919
  entropy T*S    EENTRO =        -0.00000000
  eigenvalues    EBANDS =      -367.27237106
  atomic energy  EATOM  =       885.63942760
  Solvation  Ediel_sol  =         0.00000000
  ---------------------------------------------------
  free energy    TOTEN  =       -90.03589949 eV

  energy without entropy =      -90.03589949  energy(sigma->0) =      -90.03589949


--------------------------------------------------------------------------------------------------------




 average (electrostatic) potential at core
  the test charge radii are     0.8471  0.6256
  (the norm of the test charge is              1.0000)
       1 -82.7850       2 -82.8952       3 -82.8565       4 -82.8952       5 -82.7850
       6 -37.9624       7 -37.9615       8 -37.9759       9 -37.9032      10 -37.9078
      11 -37.8956      12 -37.9003      13 -37.9031      14 -37.9078      15 -37.9623
      16 -37.9758      17 -37.9615
 
 
 
 E-fermi :  -7.4144     XC(G=0):  -0.0536     alpha+bet : -0.0205


 k-point     1 :       0.0000    0.0000    0.0000
  band No.  band energies     occupation 
      1     -19.8451      2.00000
      2     -18.5131      2.00000
      3     -16.5637      2.00000
      4     -14.5910      2.00000
      5     -14.0249      2.00000
      6     -11.6036      2.00000
      7     -10.6517      2.00000
      8     -10.4558      2.00000
      9      -9.7945      2.00000
     10      -9.4651      2.00000
     11      -9.0015      2.00000
     12      -8.4376      2.00000
     13      -7.8999      2.00000
     14      -7.7665      2.00000
     15      -7.5392      2.00000
     16      -7.4831      2.00000
     17      -0.4946      0.00000
     18      -0.1778      0.00000
     19      -0.0832      0.00000
     20      -0.0381      0.00000
     21       0.0130      0.00000
     22       0.1216      0.00000
     23       0.1246      0.00000
     24       0.1408      0.00000
     25       0.1427      0.00000


--------------------------------------------------------------------------------------------------------


 soft charge-density along one line, spin component           1
         0         1         2         3         4         5         6         7         8         9
 total charge-density along one line
 
 pseudopotential strength for first ion, spin component:           1
 19.579  23.045   0.001   0.000   0.002   0.002   0.000   0.002
 23.045  27.128   0.002   0.000   0.002   0.002   0.000   0.003
  0.001   0.002  -2.809   0.000   0.005  -3.414   0.000   0.007
  0.000   0.000   0.000  -2.812   0.000   0.000  -3.418   0.001
  0.002   0.002   0.005   0.000  -2.807   0.007   0.001  -3.411
  0.002   0.002  -3.414   0.000   0.007  -4.072   0.000   0.009
  0.000   0.000   0.000  -3.418   0.001   0.000  -4.077   0.001
  0.002   0.003   0.007   0.001  -3.411   0.009   0.001  -4.067
 total augmentation occupancy for first ion, spin component:           1
 18.348 -11.362  -0.029  -0.005   0.048  -0.024  -0.001  -0.093
-11.362   7.086  -0.031  -0.001  -0.109   0.058   0.004   0.126
 -0.029  -0.031  10.067   0.005   0.093  -5.099  -0.006  -0.099
 -0.005  -0.001   0.005  10.005   0.003  -0.006  -5.031  -0.005
  0.048  -0.109   0.093   0.003  10.242  -0.099  -0.005  -5.232
 -0.024   0.058  -5.099  -0.006  -0.099   2.594   0.005   0.085
 -0.001   0.004  -0.006  -5.031  -0.005   0.005   2.536   0.005
 -0.093   0.126  -0.099  -0.005  -5.232   0.085   0.005   2.691


------------------------ aborting loop because EDIFF is reached ----------------------------------------


    CHARGE:  cpu time    3.7922: real time    3.8023
    FORLOC:  cpu time    4.2230: real time    4.2348
    FORNL :  cpu time    3.0888: real time    3.0972
    STRESS:  cpu time   12.5109: real time   12.5450
    FORHAR:  cpu time   11.1374: real time   11.1680
    MIXING:  cpu time    2.4409: real time    2.4472
    OFIELD:  cpu time    0.0000: real time    0.0000

  FORCE on cell =-STRESS in cart. coord.  units (eV):
  Direction    XX          YY          ZZ          XY          YZ          ZX
  --------------------------------------------------------------------------------------
  Alpha Z     0.06682     0.06682     0.06682
  Ewald    1508.64335   529.90178   319.67418     7.08594    17.36256    -0.29193
  Hartree  1631.06980   800.45893   634.94781     6.00113    13.66453    -0.23863
  E(xc)    -111.02095  -111.24979  -111.33612     0.00168     0.00700    -0.00009
  Local   -3493.41674 -1673.79348 -1290.56752   -13.16276   -31.65577     0.53747
  n-local    37.18145    35.19553    33.73076     0.01455     0.12051    -0.00132
  augment    26.20987    25.96799    26.04477     0.00172    -0.00584     0.00001
  Kinetic   403.42644   395.61771   390.08958     0.05670     0.47416    -0.00536
  Fock        0.00000     0.00000     0.00000     0.00000     0.00000     0.00000
  -------------------------------------------------------------------------------------
  Total       2.16003     2.16549     2.65028    -0.00104    -0.03284     0.00015
  in kB       0.08072     0.08092     0.09904    -0.00004    -0.00123     0.00001
  external pressure =        0.09 kB  Pullay stress =        0.00 kB


 VOLUME and BASIS-vectors are now :
 -----------------------------------------------------------------------------
  energy-cutoff  :     1000.00
  volume of cell :    42875.00
      direct lattice vectors                 reciprocal lattice vectors
    35.000000000  0.000000000  0.000000000     0.028571429  0.000000000  0.000000000
     0.000000000 35.000000000  0.000000000     0.000000000  0.028571429  0.000000000
     0.000000000  0.000000000 35.000000000     0.000000000  0.000000000  0.028571429

  length of vectors
    35.000000000 35.000000000 35.000000000     0.028571429  0.028571429  0.028571429


 FORCES acting on ions
    electron-ion (+dipol)            ewald-force                    non-local-force                 convergence-correction
 -----------------------------------------------------------------------------------------------
   0.138E+03 0.461E+02 0.353E+01   -.138E+03 -.461E+02 -.353E+01   0.160E+00 0.158E+00 0.900E-02   0.156E-04 0.449E-05 0.400E-06
   0.627E+02 -.889E+02 -.749E+01   -.621E+02 0.895E+02 0.754E+01   -.716E+00 -.860E+00 -.648E-01   -.156E-04 -.135E-04 -.997E-06
   -.584E+00 0.799E+02 0.677E+01   0.584E+00 -.799E+02 -.676E+01   -.227E-02 0.347E+00 0.216E-01   -.523E-06 -.104E-05 -.285E-07
   -.614E+02 -.899E+02 -.742E+01   0.608E+02 0.904E+02 0.747E+01   0.728E+00 -.850E+00 -.640E-01   0.184E-04 -.148E-04 -.108E-05
   -.139E+03 0.441E+02 0.356E+01   0.139E+03 -.441E+02 -.356E+01   -.162E+00 0.155E+00 0.927E-02   -.148E-04 0.387E-05 0.433E-06
   0.255E+02 0.393E+02 0.553E+02   -.258E+02 -.425E+02 -.604E+02   0.184E+00 0.291E+01 0.477E+01   0.333E-05 0.649E-05 0.919E-05
   0.252E+02 0.482E+02 -.479E+02   -.254E+02 -.522E+02 0.524E+02   0.156E+00 0.369E+01 -.420E+01   0.328E-05 0.798E-05 -.796E-05
   0.688E+02 -.283E+02 -.270E+01   -.739E+02 0.316E+02 0.300E+01   0.469E+01 -.308E+01 -.284E+00   0.117E-04 -.509E-05 -.472E-06
   0.134E+02 -.485E+02 -.597E+02   -.135E+02 0.517E+02 0.647E+02   0.160E-01 -.299E+01 -.469E+01   -.364E-06 -.469E-05 -.420E-05
   0.136E+02 -.577E+02 0.509E+02   -.136E+02 0.617E+02 -.554E+02   0.259E-01 -.372E+01 0.414E+01   -.354E-06 -.531E-05 0.339E-05
   -.436E+00 0.577E+02 -.525E+02   0.466E+00 -.617E+02 0.569E+02   -.286E-01 0.372E+01 -.409E+01   -.470E-07 0.325E-05 -.239E-05
   -.339E+00 0.479E+02 0.617E+02   0.361E+00 -.511E+02 -.667E+02   -.207E-01 0.296E+01 0.467E+01   -.465E-07 0.278E-05 0.292E-05
   -.127E+02 -.487E+02 -.597E+02   0.127E+02 0.519E+02 0.647E+02   0.264E-01 -.299E+01 -.469E+01   0.607E-06 -.461E-05 -.397E-05
   -.127E+02 -.578E+02 0.510E+02   0.127E+02 0.618E+02 -.554E+02   0.300E-01 -.372E+01 0.414E+01   0.606E-06 -.518E-05 0.318E-05
   -.261E+02 0.390E+02 0.553E+02   0.264E+02 -.421E+02 -.604E+02   -.225E+00 0.291E+01 0.476E+01   -.335E-05 0.701E-05 0.102E-04
   -.684E+02 -.293E+02 -.266E+01   0.734E+02 0.327E+02 0.296E+01   -.464E+01 -.314E+01 -.281E+00   -.126E-04 -.598E-05 -.521E-06
   -.259E+02 0.478E+02 -.479E+02   0.262E+02 -.518E+02 0.524E+02   -.210E+00 0.368E+01 -.420E+01   -.332E-05 0.867E-05 -.887E-05
 -----------------------------------------------------------------------------------------------
   -.626E-02 0.830E+00 0.344E-01   0.284E-13 0.355E-13 -.213E-13   0.624E-02 -.830E+00 -.343E-01   0.266E-05 -.156E-04 -.758E-06
 
 
 POSITION                                       TOTAL-FORCE (eV/Angst)
 -----------------------------------------------------------------------------------
     32.46962     34.58242      0.68131         0.146230      0.163722      0.011333
     33.72384      0.44363      0.75002        -0.053011     -0.290374     -0.010718
      0.00220     34.61928      0.67899        -0.001973      0.294661      0.032693
      1.26833      0.46240      0.74937         0.056656     -0.289450     -0.010503
      2.53497     34.61958      0.68069        -0.148086      0.161194      0.011238
     32.44011     34.01721     34.74984        -0.043633     -0.215837     -0.329191
     32.44596     33.86614      1.50266        -0.034065     -0.263363      0.286366
     31.56379      0.18414      0.73677        -0.339454      0.199066      0.015239
     33.72192      1.02522      1.67509        -0.003308      0.216878      0.318561
     33.71966      1.16856     34.93284        -0.012147      0.275136     -0.283928
      0.00783     33.88859      1.49383         0.001821     -0.252258      0.267699
      0.00625     34.03948     34.75118         0.001557     -0.217217     -0.315587
      1.26202      1.04425      1.67425        -0.000028      0.216894      0.318401
      1.26163      1.18706     34.93197         0.008125      0.274791     -0.284015
      2.57244     34.05428     34.74955         0.046632     -0.215096     -0.328917
      3.43198      0.23441      0.73558         0.336360      0.204053      0.014997
      2.56921     33.90419      1.50246         0.038324     -0.262798      0.286332
 -----------------------------------------------------------------------------------
    total drift:                               -0.000017      0.000072      0.000063


--------------------------------------------------------------------------------------------------------



  FREE ENERGIE OF THE ION-ELECTRON SYSTEM (eV)
  ---------------------------------------------------
  free  energy   TOTEN  =       -90.03589949 eV

  energy  without entropy=      -90.03589949  energy(sigma->0) =      -90.03589949
 


--------------------------------------------------------------------------------------------------------


    POTLOK:  cpu time   30.9603: real time   31.0449


--------------------------------------------------------------------------------------------------------


 writing wavefunctions
     LOOP+:  cpu time 2678.5260: real time 2686.9743
    4ORBIT:  cpu time    0.0000: real time    0.0000

 total amount of memory used by VASP on root node  5469541. kBytes
========================================================================

   base      :      30000. kBytes
   nonl-proj :      76962. kBytes
   fftplans  :    1964666. kBytes
   grid      :    3320944. kBytes
   one-center:          4. kBytes
   wavefun   :      76965. kBytes
 
  
  
 General timing and accounting informations for this job:
 ========================================================
  
                  Total CPU time used (sec):     3089.478
                            User time (sec):     2880.739
                          System time (sec):      208.739
                         Elapsed time (sec):     3099.782
  
                   Maximum memory used (kb):     8743920.
                   Average memory used (kb):           0.
  
                          Minor page faults:       306942
                          Major page faults:            8
                 Voluntary context switches:          832
 
 PROFILE, used timers:      14
 =============================
 
 index                 routine                    time                            calls level
----------------------------------------------------------------------------------------------
    1    total_time                         3099.782904                                1   1
    2      w1_copy                               7.066974                          10204   2
    3      fftwav_mpi                          395.716552                           3978   2
    4      fftext_mpi                            1.724161                             25   2
    5      overl                                 0.003314                           5812   2
    6      orth1                                11.053991                           1760   2
    7      lincom                                0.692374                             40   2
    8      eccp                                 15.575991                            975   2
    9      hamiltmu                            567.299767                            586   2
   10        vhamil                               82.852958                         3393   3
   11        overl1                                0.003673                         3393   3
   12        kinhamil                            311.316596                         3393   3
   13          fftext_mpi                          309.142892                       3393   4
   14      pdssyex_zheevx                        0.051781                             39   2
 
 Flat profile
 ============
 
             routine name                   CPU           calls
 ---------------------------------------------------------------
 total_time                           2100.597999           1
 fftwav_mpi                            395.716552        3978
 fftext_mpi                            310.867052        3418
 hamiltmu                              173.126540         586
 vhamil                                 82.852958        3393
 eccp                                   15.575991         975
 orth1                                  11.053991        1760
 w1_copy                                 7.066974       10204
 kinhamil                                2.173704        3393
 lincom                                  0.692374          40
 pdssyex_zheevx                          0.051781          39
 overl1                                  0.003673        3393
 overl                                   0.003314        5812
 ---------------------------------------------------------------
  summed up times    3099.78290390968     
 
Profiling took   0.016813  0.008930  0.003413  0.003404 seconds
Profiling took   0.015323 seconds
