 vasp.5.4.1 24Jun15 (build Jan 02 2020 16:21:29) gamma-only                     
  
 executed on           IFC15_impi date 2020.04.14  08:51:54
 running on    8 total cores
 distrk:  each k-point on    8 cores,    1 groups
 distr:  one band on NCORES_PER_BAND=   8 cores,    1 groups


--------------------------------------------------------------------------------------------------------


 INCAR:
 POTCAR:    PAW_PBE C_s 06Sep2000                 
 POTCAR:    PAW_PBE H_s 15May2010                 

 ----------------------------------------------------------------------------- 
|                                                                             |
|           W    W    AA    RRRRR   N    N  II  N    N   GGGG   !!!           |
|           W    W   A  A   R    R  NN   N  II  NN   N  G    G  !!!           |
|           W    W  A    A  R    R  N N  N  II  N N  N  G       !!!           |
|           W WW W  AAAAAA  RRRRR   N  N N  II  N  N N  G  GGG   !            |
|           WW  WW  A    A  R   R   N   NN  II  N   NN  G    G                |
|           W    W  A    A  R    R  N    N  II  N    N   GGGG   !!!           |
|                                                                             |
|      For optimal performance we recommend to set                            |
|        NCORE= 4 - approx SQRT( number of cores)                             |
|      NCORE specifies how many cores store one orbital (NPAR=cpu/NCORE).     |
|      This setting can  greatly improve the performance of VASP for DFT.     |
|      The default, NPAR=number of cores might be grossly inefficient         |
|      on modern multi-core architectures or massively parallel machines.     |
|      Do your own testing !!!!                                               |
|      Unfortunately you need to use the default for GW and RPA calculations. |
|      (for HF NCORE is supported but not extensively tested yet)             |
|                                                                             |
 ----------------------------------------------------------------------------- 

 POTCAR:    PAW_PBE C_s 06Sep2000                 
   VRHFIN =C: s2p2                                                              
   LEXCH  = PE                                                                  
   EATOM  =   147.1560 eV,   10.8157 Ry                                         
                                                                                
   TITEL  = PAW_PBE C_s 06Sep2000                                               
   LULTRA =        F    use ultrasoft PP ?                                      
   IUNSCR =        0    unscreen: 0-lin 1-nonlin 2-no                           
   RPACOR =    0.000    partial core radius                                     
   POMASS =   12.011; ZVAL   =    4.000    mass and valenz                      
   RCORE  =    1.850    outmost cutoff radius                                   
   RWIGS  =    1.890; RWIGS  =    1.000    wigner-seitz radius (au A)           
   ENMAX  =  273.911; ENMIN  =  205.433 eV                                      
   RCLOC  =    0.804    cutoff for local pot                                    
   LCOR   =        T    correct aug charges                                     
   LPAW   =        T    paw PP                                                  
   EAUG   =  439.243                                                            
   DEXC   =    0.000                                                            
   RMAX   =    1.897    core radius for proj-oper                               
   RAUG   =    1.300    factor for augmentation sphere                          
   RDEP   =    1.940    radius for radial grids                                 
   RDEPT  =    1.573    core radius for aug-charge                              
                                                                                
   Atomic configuration                                                         
    4 entries                                                                   
     n  l   j            E        occ.                                          
     1  0  0.50      -273.3789   2.0000                                         
     2  0  0.50       -13.7508   2.0000                                         
     2  1  0.50        -5.2854   2.0000                                         
     3  2  1.50        -1.3606   0.0000                                         
   Description                                                                  
     l       E           TYP  RCUT    TYP  RCUT                                 
     0    -13.7508457     23  1.500                                             
     0    -11.0934578     23  1.500                                             
     1     -5.2854381     23  1.850                                             
     1     -1.3099858     23  1.850                                             
  local pseudopotential read in
  atomic valenz-charges read in
  non local Contribution for L=           0  read in
    real space projection operators read in
  non local Contribution for L=           0  read in
    real space projection operators read in
  non local Contribution for L=           1  read in
    real space projection operators read in
  non local Contribution for L=           1  read in
    real space projection operators read in
    PAW grid and wavefunctions read in
 
   number of l-projection  operators is LMAX  =           4
   number of lm-projection operators is LMMAX =           8
 
 POTCAR:    PAW_PBE H_s 15May2010                 
   VRHFIN =H: ultrasoft test                                                    
   LEXCH  = PE                                                                  
   EATOM  =    12.4884 eV,    0.9179 Ry                                         
                                                                                
   TITEL  = PAW_PBE H_s 15May2010                                               
   LULTRA =        F    use ultrasoft PP ?                                      
   IUNSCR =        0    unscreen: 0-lin 1-nonlin 2-no                           
   RPACOR =    0.000    partial core radius                                     
   POMASS =    1.000; ZVAL   =    1.000    mass and valenz                      
   RCORE  =    1.300    outmost cutoff radius                                   
   RWIGS  =    0.700; RWIGS  =    0.370    wigner-seitz radius (au A)           
   ENMAX  =  200.000; ENMIN  =  150.000 eV                                      
   RCLOC  =    0.701    cutoff for local pot                                    
   LCOR   =        T    correct aug charges                                     
   LPAW   =        T    paw PP                                                  
   EAUG   =  300.000                                                            
   RMAX   =    1.330    core radius for proj-oper                               
   RAUG   =    1.200    factor for augmentation sphere                          
   RDEP   =    1.337    radius for radial grids                                 
   RDEPT  =    1.114    core radius for aug-charge                              
                                                                                
   Atomic configuration                                                         
    2 entries                                                                   
     n  l   j            E        occ.                                          
     1  0  0.50        -6.4927   1.0000                                         
     2  1  0.50        -3.4015   0.0000                                         
   Description                                                                  
     l       E           TYP  RCUT    TYP  RCUT                                 
     0     -6.4927494     23  1.300                                             
     0      6.8029130     23  1.300                                             
     1     -4.0817478     23  1.300                                             
  local pseudopotential read in
  atomic valenz-charges read in
  non local Contribution for L=           0  read in
    real space projection operators read in
  non local Contribution for L=           0  read in
    real space projection operators read in
  non local Contribution for L=           1  read in
    real space projection operators read in
    PAW grid and wavefunctions read in
 
   number of l-projection  operators is LMAX  =           3
   number of lm-projection operators is LMMAX =           5
 
  PAW_PBE C_s 06Sep2000                 :
 energy of atom  1       EATOM= -147.1560
 kinetic energy error for atom=    0.0002 (will be added to EATOM!!)
  PAW_PBE H_s 15May2010                 :
 energy of atom  2       EATOM=  -12.4884
 kinetic energy error for atom=    0.0000 (will be added to EATOM!!)
 
 
 POSCAR: C H                                     
  positions in cartesian coordinates
  No initial velocities read in
 exchange correlation table for  LEXCH =        8
   RHO(1)=    0.500       N(1)  =     2000
   RHO(2)=  100.500       N(2)  =     4000
 


--------------------------------------------------------------------------------------------------------


 ion  position               nearest neighbor table
   1  0.028  0.025  0.011-   7 1.08   2 1.39   6 1.40
   2  0.041  0.988  0.003-   8 1.08   3 1.39   1 1.39
   3  0.015  0.958  0.001-   9 1.08   2 1.39   4 1.39
   4  0.976  0.964  0.006-  10 1.08   3 1.39   5 1.39
   5  0.963  0.001  0.014-  11 1.08   4 1.39   6 1.40
   6  0.989  0.031  0.016-  12 1.08   1 1.40   5 1.40
   7  0.047  0.049  0.013-   1 1.08
   8  0.071  0.983  1.000-   2 1.08
   9  0.026  0.929  0.996-   3 1.08
  10  0.956  0.941  0.005-   4 1.08
  11  0.933  0.006  0.018-   5 1.08
  12  0.978  0.060  0.022-   6 1.08
 
  LATTYP: Found a simple cubic cell.
 ALAT       =    35.0000000000
  
  Lattice vectors:
  
 A1 = (  35.0000000000,   0.0000000000,   0.0000000000)
 A2 = (   0.0000000000,  35.0000000000,   0.0000000000)
 A3 = (   0.0000000000,   0.0000000000,  35.0000000000)


Analysis of symmetry for initial positions (statically):
=====================================================================
 Subroutine PRICEL returns:
 Original cell was already a primitive cell.
 

 Routine SETGRP: Setting up the symmetry group for a 
 simple cubic supercell.


 Subroutine GETGRP returns: Found  1 space group operations
 (whereof  1 operations were pure point group operations)
 out of a pool of 48 trial point group operations.


The static configuration has the point symmetry C_1 .


Analysis of symmetry for dynamics (positions and initial velocities):
=====================================================================
 Subroutine PRICEL returns:
 Original cell was already a primitive cell.
 

 Routine SETGRP: Setting up the symmetry group for a 
 simple cubic supercell.


 Subroutine GETGRP returns: Found  1 space group operations
 (whereof  1 operations were pure point group operations)
 out of a pool of 48 trial point group operations.


The dynamic configuration has the point symmetry C_1 .
 
 
 KPOINTS: automatic mesh                          

Automatic generation of k-mesh.
Space group operators:
 irot       det(A)        alpha          n_x          n_y          n_z        tau_x        tau_y        tau_z
    1     1.000000     0.000000     1.000000     0.000000     0.000000     0.000000     0.000000     0.000000
 
 Subroutine IBZKPT returns following result:
 ===========================================
 
 Found      1 irreducible k-points:
 
 Following reciprocal coordinates:
            Coordinates               Weight
  0.000000  0.000000  0.000000      1.000000
 
 Following cartesian coordinates:
            Coordinates               Weight
  0.000000  0.000000  0.000000      1.000000
 


--------------------------------------------------------------------------------------------------------




 Dimension of arrays:
   k-points           NKPTS =      1   k-points in BZ     NKDIM =      1   number of bands    NBANDS=     22
   number of dos      NEDOS =    301   number of ions     NIONS =     12
   non local maximal  LDIM  =      4   non local SUM 2l+1 LMDIM =      8
   total plane-waves  NPLWV = ******
   max r-space proj   IRMAX =      1   max aug-charges    IRDMAX=  26641
   dimension x,y,z NGX =   378 NGY =  378 NGZ =  378
   dimension x,y,z NGXF=   756 NGYF=  756 NGZF=  756
   support grid    NGXF=   756 NGYF=  756 NGZF=  756
   ions per type =               6   6
 NGX,Y,Z   is equivalent  to a cutoff of  17.95, 17.95, 17.95 a.u.
 NGXF,Y,Z  is equivalent  to a cutoff of  35.91, 35.91, 35.91 a.u.


 I would recommend the setting:
   dimension x,y,z NGX =   361 NGY =  361 NGZ =  361
 SYSTEM =  C                                       
 POSCAR =  C H                                     

 Startparameter for this run:
   NWRITE =      2    write-flag & timer
   PREC   = acc       normal or accurate (medium, high low for compatibility)
   ISTART =      0    job   : 0-new  1-cont  2-samecut
   ICHARG =      2    charge: 1-file 2-atom 10-const
   ISPIN  =      1    spin polarized calculation?
   LNONCOLLINEAR =      F non collinear calculations
   LSORBIT =      F    spin-orbit coupling
   INIWAV =      1    electr: 0-lowe 1-rand  2-diag
   LASPH  =      T    aspherical Exc in radial PAW
   METAGGA=      F    non-selfconsistent MetaGGA calc.

 Electronic Relaxation 1
   ENCUT  = 1000.0 eV  73.50 Ry    8.57 a.u.  90.25 90.25 90.25*2*pi/ulx,y,z
   ENINI  = 1000.0     initial cutoff
   ENAUG  =  439.2 eV  augmentation charge cutoff
   NELM   =     60;   NELMIN=  2; NELMDL= -5     # of ELM steps 
   EDIFF  = 0.1E-06   stopping-criterion for ELM
   LREAL  =      F    real-space projection
   NLSPLINE    = F    spline interpolate recip. space projectors
   LCOMPAT=      F    compatible to vasp.4.4
   GGA_COMPAT  = T    GGA compatible to vasp.4.4-vasp.4.6
   LMAXPAW     = -100 max onsite density
   LMAXMIX     =    2 max onsite mixed and CHGCAR
   VOSKOWN=      0    Vosko Wilk Nusair interpolation
   ROPT   =    0.00000   0.00000
 Ionic relaxation
   EDIFFG = 0.1E-05   stopping-criterion for IOM
   NSW    =      0    number of steps for IOM
   NBLOCK =      1;   KBLOCK =      1    inner block; outer block 
   IBRION =     -1    ionic relax: 0-MD 1-quasi-New 2-CG
   NFREE  =      0    steps in history (QN), initial steepest desc. (CG)
   ISIF   =      2    stress and relaxation
   IWAVPR =     10    prediction:  0-non 1-charg 2-wave 3-comb
   ISYM   =      2    0-nonsym 1-usesym 2-fastsym
   LCORR  =      T    Harris-Foulkes like correction to forces

   POTIM  = 0.5000    time-step for ionic-motion
   TEIN   =    0.0    initial temperature
   TEBEG  =    0.0;   TEEND  =   0.0 temperature during run
   SMASS  =  -3.00    Nose mass-parameter (am)
   estimated Nose-frequenzy (Omega)   =  0.10E-29 period in steps =****** mass=  -0.280E-25a.u.
   SCALEE = 1.0000    scale energy and forces
   NPACO  =    256;   APACO  = 16.0  distance and # of slots for P.C.
   PSTRESS=    0.0 pullay stress

  Mass of Ions in am
   POMASS =  12.01  1.00
  Ionic Valenz
   ZVAL   =   4.00  1.00
  Atomic Wigner-Seitz radii
   RWIGS  =  -1.00 -1.00
  virtual crystal weights 
   VCA    =   1.00  1.00
   NELECT =      30.0000    total number of electrons
   NUPDOWN=      -1.0000    fix difference up-down

 DOS related values:
   EMIN   =  10.00;   EMAX   =-10.00  energy-range for DOS
   EFERMI =   0.00
   ISMEAR =     0;   SIGMA  =   0.01  broadening in eV -4-tet -1-fermi 0-gaus

 Electronic relaxation 2 (details)
   IALGO  =     38    algorithm
   LDIAG  =      T    sub-space diagonalisation (order eigenvalues)
   LSUBROT=      F    optimize rotation matrix (better conditioning)
   TURBO    =      0    0=normal 1=particle mesh
   IRESTART =      0    0=no restart 2=restart with 2 vectors
   NREBOOT  =      0    no. of reboots
   NMIN     =      0    reboot dimension
   EREF     =   0.00    reference energy to select bands
   IMIX   =      4    mixing-type and parameters
     AMIX     =   0.40;   BMIX     =  1.00
     AMIX_MAG =   1.60;   BMIX_MAG =  1.00
     AMIN     =   0.10
     WC   =   100.;   INIMIX=   1;  MIXPRE=   1;  MAXMIX= -45

 Intra band minimization:
   WEIMIN = 0.0000     energy-eigenvalue tresh-hold
   EBREAK =  0.11E-08  absolut break condition
   DEPER  =   0.30     relativ break condition  

   TIME   =   0.40     timestep for ELM

  volume/ion in A,a.u.               =    3572.92     24111.23
  Fermi-wavevector in a.u.,A,eV,Ry     =   0.145338  0.274650  0.287399  0.021123
  Thomas-Fermi vector in A             =   0.812913
 
 Write flags
   LWAVE  =      T    write WAVECAR
   LCHARG =      T    write CHGCAR
   LVTOT  =      F    write LOCPOT, total local potential
   LVHAR  =      F    write LOCPOT, Hartree potential only
   LELF   =      F    write electronic localiz. function (ELF)
   LORBIT =      0    0 simple, 1 ext, 2 COOP (PROOUT)


 Dipole corrections
   LMONO  =      F    monopole corrections only (constant potential shift)
   LDIPOL =      F    correct potential (dipole corrections)
   IDIPOL =      0    1-x, 2-y, 3-z, 4-all directions 
   EPSILON=  1.0000000 bulk dielectric constant

 Exchange correlation treatment:
   GGA     =    --    GGA type
   LEXCH   =     8    internal setting for exchange type
   VOSKOWN=      0    Vosko Wilk Nusair interpolation
   LHFCALC =     F    Hartree Fock is set to
   LHFONE  =     F    Hartree Fock one center treatment
   AEXX    =    0.0000 exact exchange contribution

 Linear response parameters
   LEPSILON=     F    determine dielectric tensor
   LRPA    =     F    only Hartree local field effects (RPA)
   LNABLA  =     F    use nabla operator in PAW spheres
   LVEL    =     F    velocity operator in full k-point grid
   LINTERFAST=   F  fast interpolation
   KINTER  =     0    interpolate to denser k-point grid
   CSHIFT  =0.1000    complex shift for real part using Kramers Kronig
   OMEGAMAX=  -1.0    maximum frequency
   DEG_THRESHOLD= 0.2000000E-02 threshold for treating states as degnerate
   RTIME   =    0.100 relaxation time in fs

 Orbital magnetization related:
   ORBITALMAG=     F  switch on orbital magnetization
   LCHIMAG   =     F  perturbation theory with respect to B field
   DQ        =  0.001000  dq finite difference perturbation B field



--------------------------------------------------------------------------------------------------------


 Static calculation
 charge density and potential will be updated during run
 non-spin polarized calculation
 Variant of blocked Davidson
 Davidson routine will perform the subspace rotation
 perform sub-space diagonalisation
    after iterative eigenvector-optimisation
 modified Broyden-mixing scheme, WC =      100.0
 initial mixing is a Kerker type mixing with AMIX =  0.4000 and BMIX =      1.0000
 Hartree-type preconditioning will be used
 using additional bands            7
 reciprocal scheme for non local part
 calculate Harris-corrections to forces 
   (improved forces if not selfconsistent)
 use gradient corrections 
 use of overlap-Matrix (Vanderbilt PP)
 Gauss-broadening in eV      SIGMA  =   0.01


--------------------------------------------------------------------------------------------------------


  energy-cutoff  :     1000.00
  volume of cell :    42875.00
      direct lattice vectors                 reciprocal lattice vectors
    35.000000000  0.000000000  0.000000000     0.028571429  0.000000000  0.000000000
     0.000000000 35.000000000  0.000000000     0.000000000  0.028571429  0.000000000
     0.000000000  0.000000000 35.000000000     0.000000000  0.000000000  0.028571429

  length of vectors
    35.000000000 35.000000000 35.000000000     0.028571429  0.028571429  0.028571429


 
 k-points in units of 2pi/SCALE and weight: automatic mesh                          
   0.00000000  0.00000000  0.00000000       1.000
 
 k-points in reciprocal lattice and weights: automatic mesh                          
   0.00000000  0.00000000  0.00000000       1.000
 
 position of ions in fractional coordinates (direct lattice) 
   0.02754515  0.02500267  0.01080039
   0.04088735  0.98819619  0.00339976
   0.01526079  0.95778175  0.00121193
   0.97627638  0.96418274  0.00631017
   0.96292608  0.00098322  0.01372122
   0.98855871  0.03142226  0.01604575
   0.04742370  0.04856945  0.01274406
   0.07112927  0.98322260  0.99951393
   0.02562747  0.92921747  0.99565680
   0.95640686  0.94058216  0.00468904
   0.93273154  0.00594332  0.01795888
   0.97827271  0.05982197  0.02242163
 
 position of ions in cartesian coordinates  (Angst):
   0.96408039  0.87509331  0.37801364
   1.43105709 34.58686656  0.11899152
   0.53412766 33.52236110  0.04241755
  34.16967318 33.74639591  0.22085611
  33.70241285  0.03441261  0.48024263
  34.59955491  1.09977921  0.56160137
   1.65982961  1.69993082  0.44604227
   2.48952453 34.41279083 34.98298738
   0.89696129 32.52261161 34.84798801
  33.47423999 32.92037565  0.16411655
  32.64560393  0.20801612  0.62856096
  34.23954486  2.09376880  0.78475698
 


--------------------------------------------------------------------------------------------------------


 use parallel FFT for wavefunctions z direction half grid
 k-point  1 :   0.0000 0.0000 0.0000  plane waves: 1539209

 maximum and minimum number of plane-waves per node :    192406   192397

 maximum number of plane-waves:   1539209
 maximum index in each direction: 
   IXMAX=   90   IYMAX=   90   IZMAX=   90
   IXMIN=  -90   IYMIN=  -90   IZMIN=    0

 NGX is ok and might be reduce to 362
 NGY is ok and might be reduce to 362
 NGZ is ok and might be reduce to 362

 parallel 3D FFT for wavefunctions:
    minimum data exchange during FFTs selected (reduces bandwidth)
 parallel 3D FFT for charge:
    minimum data exchange during FFTs selected (reduces bandwidth)


 total amount of memory used by VASP on root node  5444910. kBytes
========================================================================

   base      :      30000. kBytes
   nonl-proj :      61569. kBytes
   fftplans  :    1964666. kBytes
   grid      :    3320944. kBytes
   one-center:          3. kBytes
   wavefun   :      67728. kBytes
 
     INWAV:  cpu time    0.0001: real time    0.0003
 Broyden mixing: mesh for mixing (old mesh)
   NGX =181   NGY =181   NGZ =181
  (NGX  =756   NGY  =756   NGZ  =756)
  gives a total of ****** points

 initial charge density was supplied:
 charge density of overlapping atoms calculated
 number of electron      30.0000000 magnetization 
 keeping initial charge density in first step


--------------------------------------------------------------------------------------------------------


 Maximum index for augmentation-charges         3643 (set IRDMAX)


--------------------------------------------------------------------------------------------------------


 First call to EWALD:  gamma=   0.051
 Maximum number of real-space cells 3x 3x 3
 Maximum number of reciprocal cells 3x 3x 3

 FEWALD executed in parallel
    FEWALD:  cpu time    0.0013: real time    0.0013


----------------------------------------- Iteration    1(   1)  ---------------------------------------


    POTLOK:  cpu time   25.7628: real time   25.8255
    SETDIJ:  cpu time    0.0936: real time    0.0938
     EDDAV:  cpu time   22.0090: real time   22.0628
       DOS:  cpu time    0.0001: real time    0.0001
    --------------------------------------------
      LOOP:  cpu time   47.8668: real time   47.9853

 eigenvalue-minimisations  :    60
 total energy-change (2. order) : 0.2215510E+03  (-0.5409780E+03)
 number of electron      30.0000000 magnetization 
 augmentation part       30.0000000 magnetization 

 Free energy of the ion-electron system (eV)
  ---------------------------------------------------
  alpha Z        PSCENC =         0.06064420
  Ewald energy   TEWEN  =      2285.68246481
  -Hartree energ DENC   =     -2898.02913282
  -exchange      EXHF   =         0.00000000
  -V(xc)+E(xc)   XCENC  =        95.15025573
  PAW double counting   =       668.84887174     -673.42566271
  entropy T*S    EENTRO =        -0.00000024
  eigenvalues    EBANDS =      -214.60138969
  atomic energy  EATOM  =       957.86496585
  Solvation  Ediel_sol  =         0.00000000
  ---------------------------------------------------
  free energy    TOTEN  =       221.55101687 eV

  energy without entropy =      221.55101710  energy(sigma->0) =      221.55101698


--------------------------------------------------------------------------------------------------------




----------------------------------------- Iteration    1(   2)  ---------------------------------------


     EDDAV:  cpu time   22.0960: real time   22.1500
       DOS:  cpu time    0.0000: real time    0.0000
    --------------------------------------------
      LOOP:  cpu time   22.0974: real time   22.1539

 eigenvalue-minimisations  :    60
 total energy-change (2. order) :-0.1219028E+03  (-0.1216353E+03)
 number of electron      30.0000000 magnetization 
 augmentation part       30.0000000 magnetization 

 Free energy of the ion-electron system (eV)
  ---------------------------------------------------
  alpha Z        PSCENC =         0.06064420
  Ewald energy   TEWEN  =      2285.68246481
  -Hartree energ DENC   =     -2898.02913282
  -exchange      EXHF   =         0.00000000
  -V(xc)+E(xc)   XCENC  =        95.15025573
  PAW double counting   =       668.84887174     -673.42566271
  entropy T*S    EENTRO =        -0.00000000
  eigenvalues    EBANDS =      -336.50416990
  atomic energy  EATOM  =       957.86496585
  Solvation  Ediel_sol  =         0.00000000
  ---------------------------------------------------
  free energy    TOTEN  =        99.64823689 eV

  energy without entropy =       99.64823689  energy(sigma->0) =       99.64823689


--------------------------------------------------------------------------------------------------------




----------------------------------------- Iteration    1(   3)  ---------------------------------------


     EDDAV:  cpu time   23.1538: real time   23.2102
       DOS:  cpu time    0.0000: real time    0.0000
    --------------------------------------------
      LOOP:  cpu time   23.1552: real time   23.2142

 eigenvalue-minimisations  :    64
 total energy-change (2. order) :-0.1314244E+03  (-0.1252031E+03)
 number of electron      30.0000000 magnetization 
 augmentation part       30.0000000 magnetization 

 Free energy of the ion-electron system (eV)
  ---------------------------------------------------
  alpha Z        PSCENC =         0.06064420
  Ewald energy   TEWEN  =      2285.68246481
  -Hartree energ DENC   =     -2898.02913282
  -exchange      EXHF   =         0.00000000
  -V(xc)+E(xc)   XCENC  =        95.15025573
  PAW double counting   =       668.84887174     -673.42566271
  entropy T*S    EENTRO =        -0.00000000
  eigenvalues    EBANDS =      -467.92853058
  atomic energy  EATOM  =       957.86496585
  Solvation  Ediel_sol  =         0.00000000
  ---------------------------------------------------
  free energy    TOTEN  =       -31.77612378 eV

  energy without entropy =      -31.77612378  energy(sigma->0) =      -31.77612378


--------------------------------------------------------------------------------------------------------




----------------------------------------- Iteration    1(   4)  ---------------------------------------


     EDDAV:  cpu time   19.1251: real time   19.1717
       DOS:  cpu time    0.0000: real time    0.0000
    --------------------------------------------
      LOOP:  cpu time   19.1269: real time   19.1764

 eigenvalue-minimisations  :    50
 total energy-change (2. order) :-0.4856859E+02  (-0.4850429E+02)
 number of electron      30.0000000 magnetization 
 augmentation part       30.0000000 magnetization 

 Free energy of the ion-electron system (eV)
  ---------------------------------------------------
  alpha Z        PSCENC =         0.06064420
  Ewald energy   TEWEN  =      2285.68246481
  -Hartree energ DENC   =     -2898.02913282
  -exchange      EXHF   =         0.00000000
  -V(xc)+E(xc)   XCENC  =        95.15025573
  PAW double counting   =       668.84887174     -673.42566271
  entropy T*S    EENTRO =        -0.00000000
  eigenvalues    EBANDS =      -516.49711560
  atomic energy  EATOM  =       957.86496585
  Solvation  Ediel_sol  =         0.00000000
  ---------------------------------------------------
  free energy    TOTEN  =       -80.34470880 eV

  energy without entropy =      -80.34470880  energy(sigma->0) =      -80.34470880


--------------------------------------------------------------------------------------------------------




----------------------------------------- Iteration    1(   5)  ---------------------------------------


     EDDAV:  cpu time   20.8770: real time   20.9279
       DOS:  cpu time    0.0000: real time    0.0000
    CHARGE:  cpu time    3.7205: real time    3.7296
    MIXING:  cpu time    0.6877: real time    0.6894
    --------------------------------------------
      LOOP:  cpu time   25.2873: real time   25.3513

 eigenvalue-minimisations  :    56
 total energy-change (2. order) :-0.3888728E+01  (-0.3882391E+01)
 number of electron      30.0000001 magnetization 
 augmentation part        1.5674377 magnetization 

 Broyden mixing:
  rms(total) = 0.29551E+01    rms(broyden)= 0.29551E+01
  rms(prec ) = 0.29769E+01
  weight for this iteration     100.00

 Free energy of the ion-electron system (eV)
  ---------------------------------------------------
  alpha Z        PSCENC =         0.06064420
  Ewald energy   TEWEN  =      2285.68246481
  -Hartree energ DENC   =     -2898.02913282
  -exchange      EXHF   =         0.00000000
  -V(xc)+E(xc)   XCENC  =        95.15025573
  PAW double counting   =       668.84887174     -673.42566271
  entropy T*S    EENTRO =        -0.00000000
  eigenvalues    EBANDS =      -520.38584332
  atomic energy  EATOM  =       957.86496585
  Solvation  Ediel_sol  =         0.00000000
  ---------------------------------------------------
  free energy    TOTEN  =       -84.23343653 eV

  energy without entropy =      -84.23343653  energy(sigma->0) =      -84.23343653


--------------------------------------------------------------------------------------------------------




----------------------------------------- Iteration    1(   6)  ---------------------------------------


    POTLOK:  cpu time   25.1258: real time   25.1871
    SETDIJ:  cpu time    0.0942: real time    0.0944
     EDDAV:  cpu time   27.5871: real time   27.6544
       DOS:  cpu time    0.0000: real time    0.0000
    CHARGE:  cpu time    3.6657: real time    3.6747
    MIXING:  cpu time    0.7115: real time    0.7133
    --------------------------------------------
      LOOP:  cpu time   57.1860: real time   57.3275

 eigenvalue-minimisations  :    80
 total energy-change (2. order) : 0.6141853E+01  (-0.7748612E+00)
 number of electron      30.0000001 magnetization 
 augmentation part        1.3920692 magnetization 

 Broyden mixing:
  rms(total) = 0.22680E+01    rms(broyden)= 0.22680E+01
  rms(prec ) = 0.22757E+01
  weight for this iteration     100.00

 eigenvalues of (default mixing * dielectric matrix)
  average eigenvalue GAMMA=   2.9416
  2.9416

 Free energy of the ion-electron system (eV)
  ---------------------------------------------------
  alpha Z        PSCENC =         0.06064420
  Ewald energy   TEWEN  =      2285.68246481
  -Hartree energ DENC   =     -2959.68250428
  -exchange      EXHF   =         0.00000000
  -V(xc)+E(xc)   XCENC  =        98.03120512
  PAW double counting   =      2371.12673710    -2376.58112505
  entropy T*S    EENTRO =        -0.00000000
  eigenvalues    EBANDS =      -454.59397120
  atomic energy  EATOM  =       957.86496585
  Solvation  Ediel_sol  =         0.00000000
  ---------------------------------------------------
  free energy    TOTEN  =       -78.09158344 eV

  energy without entropy =      -78.09158344  energy(sigma->0) =      -78.09158344


--------------------------------------------------------------------------------------------------------




----------------------------------------- Iteration    1(   7)  ---------------------------------------


    POTLOK:  cpu time   25.1663: real time   25.2275
    SETDIJ:  cpu time    0.0939: real time    0.0941
     EDDAV:  cpu time   25.9833: real time   26.0465
       DOS:  cpu time    0.0000: real time    0.0000
    CHARGE:  cpu time    3.6558: real time    3.6648
    MIXING:  cpu time    0.7304: real time    0.7322
    --------------------------------------------
      LOOP:  cpu time   55.6313: real time   55.7687

 eigenvalue-minimisations  :    74
 total energy-change (2. order) : 0.1592575E+01  (-0.1722040E+01)
 number of electron      30.0000000 magnetization 
 augmentation part        1.1747887 magnetization 

 Broyden mixing:
  rms(total) = 0.57912E+00    rms(broyden)= 0.57912E+00
  rms(prec ) = 0.58976E+00
  weight for this iteration     100.00

 eigenvalues of (default mixing * dielectric matrix)
  average eigenvalue GAMMA=   2.0234
  2.0234  2.0234

 Free energy of the ion-electron system (eV)
  ---------------------------------------------------
  alpha Z        PSCENC =         0.06064420
  Ewald energy   TEWEN  =      2285.68246481
  -Hartree energ DENC   =     -3059.33384654
  -exchange      EXHF   =         0.00000000
  -V(xc)+E(xc)   XCENC  =       103.18995130
  PAW double counting   =      9880.25596272    -9887.30747672
  entropy T*S    EENTRO =        -0.00000000
  eigenvalues    EBANDS =      -356.91167449
  atomic energy  EATOM  =       957.86496585
  Solvation  Ediel_sol  =         0.00000000
  ---------------------------------------------------
  free energy    TOTEN  =       -76.49900887 eV

  energy without entropy =      -76.49900887  energy(sigma->0) =      -76.49900887


--------------------------------------------------------------------------------------------------------




----------------------------------------- Iteration    1(   8)  ---------------------------------------


    POTLOK:  cpu time   25.2020: real time   25.2633
    SETDIJ:  cpu time    0.0939: real time    0.0942
     EDDAV:  cpu time   25.4332: real time   25.4951
       DOS:  cpu time    0.0000: real time    0.0000
    CHARGE:  cpu time    3.6408: real time    3.6497
    MIXING:  cpu time    0.7551: real time    0.7570
    --------------------------------------------
      LOOP:  cpu time   55.1266: real time   55.2632

 eigenvalue-minimisations  :    72
 total energy-change (2. order) : 0.5443549E+00  (-0.4039871E+00)
 number of electron      30.0000000 magnetization 
 augmentation part        1.2884456 magnetization 

 Broyden mixing:
  rms(total) = 0.20671E+00    rms(broyden)= 0.20671E+00
  rms(prec ) = 0.20910E+00
  weight for this iteration     100.00

 eigenvalues of (default mixing * dielectric matrix)
  average eigenvalue GAMMA=   1.6724
  2.6212  0.9903  1.4058

 Free energy of the ion-electron system (eV)
  ---------------------------------------------------
  alpha Z        PSCENC =         0.06064420
  Ewald energy   TEWEN  =      2285.68246481
  -Hartree energ DENC   =     -3027.36942571
  -exchange      EXHF   =         0.00000000
  -V(xc)+E(xc)   XCENC  =       101.53454444
  PAW double counting   =      9118.34755349    -9124.92117978
  entropy T*S    EENTRO =        -0.00000000
  eigenvalues    EBANDS =      -387.15422132
  atomic energy  EATOM  =       957.86496585
  Solvation  Ediel_sol  =         0.00000000
  ---------------------------------------------------
  free energy    TOTEN  =       -75.95465401 eV

  energy without entropy =      -75.95465401  energy(sigma->0) =      -75.95465401


--------------------------------------------------------------------------------------------------------




----------------------------------------- Iteration    1(   9)  ---------------------------------------


    POTLOK:  cpu time   25.1942: real time   25.2555
    SETDIJ:  cpu time    0.0938: real time    0.0940
     EDDAV:  cpu time   23.2377: real time   23.2943
       DOS:  cpu time    0.0000: real time    0.0000
    CHARGE:  cpu time    3.6505: real time    3.6594
    MIXING:  cpu time    0.7703: real time    0.7721
    --------------------------------------------
      LOOP:  cpu time   52.9481: real time   53.0793

 eigenvalue-minimisations  :    64
 total energy-change (2. order) : 0.3985327E-01  (-0.1694598E-01)
 number of electron      30.0000000 magnetization 
 augmentation part        1.2667480 magnetization 

 Broyden mixing:
  rms(total) = 0.56302E-01    rms(broyden)= 0.56302E-01
  rms(prec ) = 0.59866E-01
  weight for this iteration     100.00

 eigenvalues of (default mixing * dielectric matrix)
  average eigenvalue GAMMA=   1.5022
  2.2593  1.7459  1.0019  1.0019

 Free energy of the ion-electron system (eV)
  ---------------------------------------------------
  alpha Z        PSCENC =         0.06064420
  Ewald energy   TEWEN  =      2285.68246481
  -Hartree energ DENC   =     -3036.93625199
  -exchange      EXHF   =         0.00000000
  -V(xc)+E(xc)   XCENC  =       101.94068357
  PAW double counting   =      9702.51071909    -9709.20127042
  entropy T*S    EENTRO =        -0.00000000
  eigenvalues    EBANDS =      -377.83675586
  atomic energy  EATOM  =       957.86496585
  Solvation  Ediel_sol  =         0.00000000
  ---------------------------------------------------
  free energy    TOTEN  =       -75.91480074 eV

  energy without entropy =      -75.91480074  energy(sigma->0) =      -75.91480074


--------------------------------------------------------------------------------------------------------




----------------------------------------- Iteration    1(  10)  ---------------------------------------


    POTLOK:  cpu time   25.2520: real time   25.3134
    SETDIJ:  cpu time    0.0939: real time    0.0941
     EDDAV:  cpu time   23.6630: real time   23.7205
       DOS:  cpu time    0.0000: real time    0.0000
    CHARGE:  cpu time    3.6421: real time    3.6510
    MIXING:  cpu time    0.7983: real time    0.8002
    --------------------------------------------
      LOOP:  cpu time   53.4508: real time   53.5831

 eigenvalue-minimisations  :    66
 total energy-change (2. order) : 0.1546740E-02  (-0.6124679E-03)
 number of electron      30.0000000 magnetization 
 augmentation part        1.2675248 magnetization 

 Broyden mixing:
  rms(total) = 0.23630E-01    rms(broyden)= 0.23630E-01
  rms(prec ) = 0.29422E-01
  weight for this iteration     100.00

 eigenvalues of (default mixing * dielectric matrix)
  average eigenvalue GAMMA=   1.4053
  2.0551  2.0551  1.1006  1.1006  0.7151

 Free energy of the ion-electron system (eV)
  ---------------------------------------------------
  alpha Z        PSCENC =         0.06064420
  Ewald energy   TEWEN  =      2285.68246481
  -Hartree energ DENC   =     -3038.14931073
  -exchange      EXHF   =         0.00000000
  -V(xc)+E(xc)   XCENC  =       101.90800763
  PAW double counting   =      9465.69951385    -9472.35562060
  entropy T*S    EENTRO =        -0.00000000
  eigenvalues    EBANDS =      -376.62391901
  atomic energy  EATOM  =       957.86496585
  Solvation  Ediel_sol  =         0.00000000
  ---------------------------------------------------
  free energy    TOTEN  =       -75.91325400 eV

  energy without entropy =      -75.91325400  energy(sigma->0) =      -75.91325400


--------------------------------------------------------------------------------------------------------




----------------------------------------- Iteration    1(  11)  ---------------------------------------


    POTLOK:  cpu time   25.2145: real time   25.2758
    SETDIJ:  cpu time    0.0938: real time    0.0941
     EDDAV:  cpu time   21.8589: real time   21.9121
       DOS:  cpu time    0.0000: real time    0.0000
    CHARGE:  cpu time    3.6466: real time    3.6555
    MIXING:  cpu time    0.8243: real time    0.8263
    --------------------------------------------
      LOOP:  cpu time   51.6397: real time   51.7680

 eigenvalue-minimisations  :    60
 total energy-change (2. order) : 0.4537212E-02  (-0.1505368E-03)
 number of electron      30.0000000 magnetization 
 augmentation part        1.2672984 magnetization 

 Broyden mixing:
  rms(total) = 0.16718E-01    rms(broyden)= 0.16718E-01
  rms(prec ) = 0.21724E-01
  weight for this iteration     100.00

 eigenvalues of (default mixing * dielectric matrix)
  average eigenvalue GAMMA=   1.6862
  2.7391  2.7391  1.3584  1.3584  0.9610  0.9610

 Free energy of the ion-electron system (eV)
  ---------------------------------------------------
  alpha Z        PSCENC =         0.06064420
  Ewald energy   TEWEN  =      2285.68246481
  -Hartree energ DENC   =     -3041.03683518
  -exchange      EXHF   =         0.00000000
  -V(xc)+E(xc)   XCENC  =       101.95820297
  PAW double counting   =      9408.20583818    -9414.85330648
  entropy T*S    EENTRO =        -0.00000000
  eigenvalues    EBANDS =      -373.79069114
  atomic energy  EATOM  =       957.86496585
  Solvation  Ediel_sol  =         0.00000000
  ---------------------------------------------------
  free energy    TOTEN  =       -75.90871679 eV

  energy without entropy =      -75.90871679  energy(sigma->0) =      -75.90871679


--------------------------------------------------------------------------------------------------------




----------------------------------------- Iteration    1(  12)  ---------------------------------------


    POTLOK:  cpu time   25.2463: real time   25.3076
    SETDIJ:  cpu time    0.0939: real time    0.0942
     EDDAV:  cpu time   17.4990: real time   17.5416
       DOS:  cpu time    0.0000: real time    0.0000
    CHARGE:  cpu time    3.6451: real time    3.6540
    MIXING:  cpu time    0.8514: real time    0.8535
    --------------------------------------------
      LOOP:  cpu time   47.3374: real time   47.4546

 eigenvalue-minimisations  :    44
 total energy-change (2. order) : 0.7078446E-02  (-0.1026829E-02)
 number of electron      30.0000000 magnetization 
 augmentation part        1.2647648 magnetization 

 Broyden mixing:
  rms(total) = 0.99672E-02    rms(broyden)= 0.99672E-02
  rms(prec ) = 0.12054E-01
  weight for this iteration     100.00

 eigenvalues of (default mixing * dielectric matrix)
  average eigenvalue GAMMA=   1.7505
  3.9196  2.3778  1.6572  1.2425  1.2425  0.9069  0.9069

 Free energy of the ion-electron system (eV)
  ---------------------------------------------------
  alpha Z        PSCENC =         0.06064420
  Ewald energy   TEWEN  =      2285.68246481
  -Hartree energ DENC   =     -3047.78017670
  -exchange      EXHF   =         0.00000000
  -V(xc)+E(xc)   XCENC  =       102.10749870
  PAW double counting   =      9412.30659635    -9418.95848887
  entropy T*S    EENTRO =        -0.00000000
  eigenvalues    EBANDS =      -367.18514267
  atomic energy  EATOM  =       957.86496585
  Solvation  Ediel_sol  =         0.00000000
  ---------------------------------------------------
  free energy    TOTEN  =       -75.90163834 eV

  energy without entropy =      -75.90163834  energy(sigma->0) =      -75.90163834


--------------------------------------------------------------------------------------------------------




----------------------------------------- Iteration    1(  13)  ---------------------------------------


    POTLOK:  cpu time   25.2828: real time   25.3443
    SETDIJ:  cpu time    0.0939: real time    0.0941
     EDDAV:  cpu time   27.4177: real time   27.4844
       DOS:  cpu time    0.0000: real time    0.0000
    CHARGE:  cpu time    3.6290: real time    3.6379
    MIXING:  cpu time    0.8830: real time    0.8852
    --------------------------------------------
      LOOP:  cpu time   57.3081: real time   57.4501

 eigenvalue-minimisations  :    80
 total energy-change (2. order) :-0.1999585E-02  (-0.2331312E-03)
 number of electron      30.0000000 magnetization 
 augmentation part        1.2635769 magnetization 

 Broyden mixing:
  rms(total) = 0.82189E-02    rms(broyden)= 0.82189E-02
  rms(prec ) = 0.93306E-02
  weight for this iteration     100.00

 eigenvalues of (default mixing * dielectric matrix)
  average eigenvalue GAMMA=   1.7576
  4.2201  2.1482  2.1482  1.5123  1.5123  0.9187  0.9187  0.6825

 Free energy of the ion-electron system (eV)
  ---------------------------------------------------
  alpha Z        PSCENC =         0.06064420
  Ewald energy   TEWEN  =      2285.68246481
  -Hartree energ DENC   =     -3050.45625304
  -exchange      EXHF   =         0.00000000
  -V(xc)+E(xc)   XCENC  =       102.15489372
  PAW double counting   =      9434.27421279    -9440.93013672
  entropy T*S    EENTRO =        -0.00000000
  eigenvalues    EBANDS =      -364.55442954
  atomic energy  EATOM  =       957.86496585
  Solvation  Ediel_sol  =         0.00000000
  ---------------------------------------------------
  free energy    TOTEN  =       -75.90363793 eV

  energy without entropy =      -75.90363793  energy(sigma->0) =      -75.90363793


--------------------------------------------------------------------------------------------------------




----------------------------------------- Iteration    1(  14)  ---------------------------------------


    POTLOK:  cpu time   25.2556: real time   25.3170
    SETDIJ:  cpu time    0.0939: real time    0.0941
     EDDAV:  cpu time   23.0774: real time   23.1335
       DOS:  cpu time    0.0000: real time    0.0000
    CHARGE:  cpu time    3.6519: real time    3.6608
    MIXING:  cpu time    0.9098: real time    0.9120
    --------------------------------------------
      LOOP:  cpu time   52.9901: real time   53.1211

 eigenvalue-minimisations  :    64
 total energy-change (2. order) :-0.8011452E-02  (-0.6797112E-04)
 number of electron      30.0000000 magnetization 
 augmentation part        1.2637943 magnetization 

 Broyden mixing:
  rms(total) = 0.74046E-02    rms(broyden)= 0.74046E-02
  rms(prec ) = 0.79213E-02
  weight for this iteration     100.00

 eigenvalues of (default mixing * dielectric matrix)
  average eigenvalue GAMMA=   1.9220
  5.4459  2.8979  2.4212  1.5509  1.1501  1.1501  0.9335  0.9335  0.8147

 Free energy of the ion-electron system (eV)
  ---------------------------------------------------
  alpha Z        PSCENC =         0.06064420
  Ewald energy   TEWEN  =      2285.68246481
  -Hartree energ DENC   =     -3051.37617172
  -exchange      EXHF   =         0.00000000
  -V(xc)+E(xc)   XCENC  =       102.14791119
  PAW double counting   =      9432.22398446    -9438.87932481
  entropy T*S    EENTRO =        -0.00000000
  eigenvalues    EBANDS =      -363.63612336
  atomic energy  EATOM  =       957.86496585
  Solvation  Ediel_sol  =         0.00000000
  ---------------------------------------------------
  free energy    TOTEN  =       -75.91164938 eV

  energy without entropy =      -75.91164938  energy(sigma->0) =      -75.91164938


--------------------------------------------------------------------------------------------------------




----------------------------------------- Iteration    1(  15)  ---------------------------------------


    POTLOK:  cpu time   25.2619: real time   25.3234
    SETDIJ:  cpu time    0.0939: real time    0.0941
     EDDAV:  cpu time   25.2568: real time   25.3183
       DOS:  cpu time    0.0000: real time    0.0000
    CHARGE:  cpu time    3.6544: real time    3.6633
    MIXING:  cpu time    0.9465: real time    0.9488
    --------------------------------------------
      LOOP:  cpu time   55.2151: real time   55.3517

 eigenvalue-minimisations  :    72
 total energy-change (2. order) :-0.6203631E-02  (-0.5804688E-04)
 number of electron      30.0000000 magnetization 
 augmentation part        1.2639309 magnetization 

 Broyden mixing:
  rms(total) = 0.47199E-02    rms(broyden)= 0.47199E-02
  rms(prec ) = 0.50045E-02
  weight for this iteration     100.00

 eigenvalues of (default mixing * dielectric matrix)
  average eigenvalue GAMMA=   2.0166
  6.1582  3.1354  2.2578  1.8356  1.5393  1.5393  0.9730  0.9730  0.9323  0.8222

 Free energy of the ion-electron system (eV)
  ---------------------------------------------------
  alpha Z        PSCENC =         0.06064420
  Ewald energy   TEWEN  =      2285.68246481
  -Hartree energ DENC   =     -3051.93642799
  -exchange      EXHF   =         0.00000000
  -V(xc)+E(xc)   XCENC  =       102.13738709
  PAW double counting   =      9414.30794304    -9420.96091413
  entropy T*S    EENTRO =        -0.00000000
  eigenvalues    EBANDS =      -363.07391588
  atomic energy  EATOM  =       957.86496585
  Solvation  Ediel_sol  =         0.00000000
  ---------------------------------------------------
  free energy    TOTEN  =       -75.91785301 eV

  energy without entropy =      -75.91785301  energy(sigma->0) =      -75.91785301


--------------------------------------------------------------------------------------------------------




----------------------------------------- Iteration    1(  16)  ---------------------------------------


    POTLOK:  cpu time   25.2872: real time   25.3487
    SETDIJ:  cpu time    0.0939: real time    0.0941
     EDDAV:  cpu time   25.2263: real time   25.2877
       DOS:  cpu time    0.0000: real time    0.0000
    CHARGE:  cpu time    3.6396: real time    3.6485
    MIXING:  cpu time    0.9820: real time    0.9844
    --------------------------------------------
      LOOP:  cpu time   55.2305: real time   55.3669

 eigenvalue-minimisations  :    72
 total energy-change (2. order) :-0.4928218E-02  (-0.4600554E-04)
 number of electron      30.0000000 magnetization 
 augmentation part        1.2638762 magnetization 

 Broyden mixing:
  rms(total) = 0.29481E-02    rms(broyden)= 0.29481E-02
  rms(prec ) = 0.30855E-02
  weight for this iteration     100.00

 eigenvalues of (default mixing * dielectric matrix)
  average eigenvalue GAMMA=   2.1628
  7.0682  4.2099  2.4694  2.4694  1.5272  1.1601  1.1601  0.9720  0.9720  0.7964
  0.9857

 Free energy of the ion-electron system (eV)
  ---------------------------------------------------
  alpha Z        PSCENC =         0.06064420
  Ewald energy   TEWEN  =      2285.68246481
  -Hartree energ DENC   =     -3052.24999679
  -exchange      EXHF   =         0.00000000
  -V(xc)+E(xc)   XCENC  =       102.13153884
  PAW double counting   =      9401.61509340    -9408.26631515
  entropy T*S    EENTRO =        -0.00000000
  eigenvalues    EBANDS =      -362.76117639
  atomic energy  EATOM  =       957.86496585
  Solvation  Ediel_sol  =         0.00000000
  ---------------------------------------------------
  free energy    TOTEN  =       -75.92278123 eV

  energy without entropy =      -75.92278123  energy(sigma->0) =      -75.92278123


--------------------------------------------------------------------------------------------------------




----------------------------------------- Iteration    1(  17)  ---------------------------------------


    POTLOK:  cpu time   25.2551: real time   25.3165
    SETDIJ:  cpu time    0.0939: real time    0.0942
     EDDAV:  cpu time   23.6033: real time   23.6608
       DOS:  cpu time    0.0000: real time    0.0000
    CHARGE:  cpu time    3.6560: real time    3.6649
    MIXING:  cpu time    1.0188: real time    1.0212
    --------------------------------------------
      LOOP:  cpu time   53.6286: real time   53.7613

 eigenvalue-minimisations  :    66
 total energy-change (2. order) :-0.2507979E-02  (-0.2577342E-04)
 number of electron      30.0000000 magnetization 
 augmentation part        1.2636744 magnetization 

 Broyden mixing:
  rms(total) = 0.36155E-02    rms(broyden)= 0.36155E-02
  rms(prec ) = 0.36445E-02
  weight for this iteration     100.00

 eigenvalues of (default mixing * dielectric matrix)
  average eigenvalue GAMMA=   2.1608
  7.3318  4.3230  2.4664  2.4664  1.5422  1.5422  1.5130  0.9680  0.9680  0.9942
  0.9942  0.8208

 Free energy of the ion-electron system (eV)
  ---------------------------------------------------
  alpha Z        PSCENC =         0.06064420
  Ewald energy   TEWEN  =      2285.68246481
  -Hartree energ DENC   =     -3052.44328428
  -exchange      EXHF   =         0.00000000
  -V(xc)+E(xc)   XCENC  =       102.12994313
  PAW double counting   =      9402.78978884    -9409.44132217
  entropy T*S    EENTRO =        -0.00000000
  eigenvalues    EBANDS =      -362.56848960
  atomic energy  EATOM  =       957.86496585
  Solvation  Ediel_sol  =         0.00000000
  ---------------------------------------------------
  free energy    TOTEN  =       -75.92528921 eV

  energy without entropy =      -75.92528921  energy(sigma->0) =      -75.92528921


--------------------------------------------------------------------------------------------------------




----------------------------------------- Iteration    1(  18)  ---------------------------------------


    POTLOK:  cpu time   25.2475: real time   25.3089
    SETDIJ:  cpu time    0.0939: real time    0.0941
     EDDAV:  cpu time   24.1524: real time   24.2112
       DOS:  cpu time    0.0000: real time    0.0000
    CHARGE:  cpu time    3.6478: real time    3.6567
    MIXING:  cpu time    1.0594: real time    1.0620
    --------------------------------------------
      LOOP:  cpu time   54.2027: real time   54.3368

 eigenvalue-minimisations  :    68
 total energy-change (2. order) :-0.8626647E-03  (-0.2242079E-05)
 number of electron      30.0000000 magnetization 
 augmentation part        1.2636656 magnetization 

 Broyden mixing:
  rms(total) = 0.75654E-03    rms(broyden)= 0.75654E-03
  rms(prec ) = 0.81045E-03
  weight for this iteration     100.00

 eigenvalues of (default mixing * dielectric matrix)
  average eigenvalue GAMMA=   2.2613
  8.1590  4.9258  2.9799  2.4561  2.1501  1.5330  1.2604  1.2604  1.0905  0.9425
  0.9425  0.8969  0.7991

 Free energy of the ion-electron system (eV)
  ---------------------------------------------------
  alpha Z        PSCENC =         0.06064420
  Ewald energy   TEWEN  =      2285.68246481
  -Hartree energ DENC   =     -3052.50820938
  -exchange      EXHF   =         0.00000000
  -V(xc)+E(xc)   XCENC  =       102.12909718
  PAW double counting   =      9409.01604972    -9415.66812488
  entropy T*S    EENTRO =        -0.00000000
  eigenvalues    EBANDS =      -362.50303938
  atomic energy  EATOM  =       957.86496585
  Solvation  Ediel_sol  =         0.00000000
  ---------------------------------------------------
  free energy    TOTEN  =       -75.92615187 eV

  energy without entropy =      -75.92615187  energy(sigma->0) =      -75.92615187


--------------------------------------------------------------------------------------------------------




----------------------------------------- Iteration    1(  19)  ---------------------------------------


    POTLOK:  cpu time   25.2210: real time   25.2824
    SETDIJ:  cpu time    0.0976: real time    0.0978
     EDDAV:  cpu time   25.2278: real time   25.2892
       DOS:  cpu time    0.0000: real time    0.0000
    CHARGE:  cpu time    3.6455: real time    3.6544
    MIXING:  cpu time    1.0998: real time    1.1025
    --------------------------------------------
      LOOP:  cpu time   55.2934: real time   55.4301

 eigenvalue-minimisations  :    72
 total energy-change (2. order) :-0.6251513E-03  (-0.2744763E-05)
 number of electron      30.0000000 magnetization 
 augmentation part        1.2636813 magnetization 

 Broyden mixing:
  rms(total) = 0.15560E-02    rms(broyden)= 0.15560E-02
  rms(prec ) = 0.15633E-02
  weight for this iteration     100.00

 eigenvalues of (default mixing * dielectric matrix)
  average eigenvalue GAMMA=   2.2385
  8.1607  5.1600  2.9197  2.4464  2.4464  1.4318  1.4318  1.3628  1.3628  0.9500
  0.9500  0.9551  0.9551  0.8065

 Free energy of the ion-electron system (eV)
  ---------------------------------------------------
  alpha Z        PSCENC =         0.06064420
  Ewald energy   TEWEN  =      2285.68246481
  -Hartree energ DENC   =     -3052.54801475
  -exchange      EXHF   =         0.00000000
  -V(xc)+E(xc)   XCENC  =       102.12857386
  PAW double counting   =      9410.78523152    -9417.43745323
  entropy T*S    EENTRO =        -0.00000000
  eigenvalues    EBANDS =      -362.46318928
  atomic energy  EATOM  =       957.86496585
  Solvation  Ediel_sol  =         0.00000000
  ---------------------------------------------------
  free energy    TOTEN  =       -75.92677702 eV

  energy without entropy =      -75.92677702  energy(sigma->0) =      -75.92677702


--------------------------------------------------------------------------------------------------------




----------------------------------------- Iteration    1(  20)  ---------------------------------------


    POTLOK:  cpu time   25.2046: real time   25.2659
    SETDIJ:  cpu time    0.0939: real time    0.0941
     EDDAV:  cpu time   25.2282: real time   25.2896
       DOS:  cpu time    0.0000: real time    0.0000
    CHARGE:  cpu time    3.6510: real time    3.6599
    MIXING:  cpu time    1.1430: real time    1.1458
    --------------------------------------------
      LOOP:  cpu time   55.3224: real time   55.4589

 eigenvalue-minimisations  :    72
 total energy-change (2. order) :-0.1944793E-03  (-0.1527443E-06)
 number of electron      30.0000000 magnetization 
 augmentation part        1.2636613 magnetization 

 Broyden mixing:
  rms(total) = 0.37854E-03    rms(broyden)= 0.37854E-03
  rms(prec ) = 0.39162E-03
  weight for this iteration     100.00

 eigenvalues of (default mixing * dielectric matrix)
  average eigenvalue GAMMA=   2.3423
  8.6633  5.8404  3.7392  2.6118  2.2819  2.1647  1.4894  1.3575  1.3575  0.9469
  0.9469  1.0181  1.0181  0.8068  0.8913

 Free energy of the ion-electron system (eV)
  ---------------------------------------------------
  alpha Z        PSCENC =         0.06064420
  Ewald energy   TEWEN  =      2285.68246481
  -Hartree energ DENC   =     -3052.55648633
  -exchange      EXHF   =         0.00000000
  -V(xc)+E(xc)   XCENC  =       102.12859600
  PAW double counting   =      9408.84550384    -9415.49766919
  entropy T*S    EENTRO =        -0.00000000
  eigenvalues    EBANDS =      -362.45499068
  atomic energy  EATOM  =       957.86496585
  Solvation  Ediel_sol  =         0.00000000
  ---------------------------------------------------
  free energy    TOTEN  =       -75.92697150 eV

  energy without entropy =      -75.92697150  energy(sigma->0) =      -75.92697150


--------------------------------------------------------------------------------------------------------




----------------------------------------- Iteration    1(  21)  ---------------------------------------


    POTLOK:  cpu time   25.1163: real time   25.1774
    SETDIJ:  cpu time    0.0940: real time    0.0942
     EDDAV:  cpu time   22.0744: real time   22.1281
       DOS:  cpu time    0.0000: real time    0.0000
    CHARGE:  cpu time    3.6383: real time    3.6472
    MIXING:  cpu time    1.1909: real time    1.1938
    --------------------------------------------
      LOOP:  cpu time   52.1153: real time   52.2444

 eigenvalue-minimisations  :    60
 total energy-change (2. order) :-0.1804280E-03  (-0.3510448E-06)
 number of electron      30.0000000 magnetization 
 augmentation part        1.2636698 magnetization 

 Broyden mixing:
  rms(total) = 0.59106E-03    rms(broyden)= 0.59106E-03
  rms(prec ) = 0.59292E-03
  weight for this iteration     100.00

 eigenvalues of (default mixing * dielectric matrix)
  average eigenvalue GAMMA=   2.2899
  8.7594  6.0371  3.8176  2.5616  2.4704  2.1117  1.3456  1.3456  1.4095  1.2571
  0.9745  0.9745  0.9393  0.9393  0.8016  0.8940

 Free energy of the ion-electron system (eV)
  ---------------------------------------------------
  alpha Z        PSCENC =         0.06064420
  Ewald energy   TEWEN  =      2285.68246481
  -Hartree energ DENC   =     -3052.56094068
  -exchange      EXHF   =         0.00000000
  -V(xc)+E(xc)   XCENC  =       102.12819623
  PAW double counting   =      9406.81454943    -9413.46650826
  entropy T*S    EENTRO =        -0.00000000
  eigenvalues    EBANDS =      -362.45052352
  atomic energy  EATOM  =       957.86496585
  Solvation  Ediel_sol  =         0.00000000
  ---------------------------------------------------
  free energy    TOTEN  =       -75.92715193 eV

  energy without entropy =      -75.92715193  energy(sigma->0) =      -75.92715193


--------------------------------------------------------------------------------------------------------




----------------------------------------- Iteration    1(  22)  ---------------------------------------


    POTLOK:  cpu time   25.0531: real time   25.1140
    SETDIJ:  cpu time    0.0940: real time    0.0942
     EDDAV:  cpu time   23.2015: real time   23.2580
       DOS:  cpu time    0.0000: real time    0.0000
    CHARGE:  cpu time    3.6428: real time    3.6517
    MIXING:  cpu time    1.2344: real time    1.2374
    --------------------------------------------
      LOOP:  cpu time   53.2274: real time   53.3593

 eigenvalue-minimisations  :    64
 total energy-change (2. order) :-0.3070939E-04  (-0.5086990E-08)
 number of electron      30.0000000 magnetization 
 augmentation part        1.2636706 magnetization 

 Broyden mixing:
  rms(total) = 0.20055E-03    rms(broyden)= 0.20055E-03
  rms(prec ) = 0.20363E-03
  weight for this iteration     100.00

 eigenvalues of (default mixing * dielectric matrix)
  average eigenvalue GAMMA=   2.3589
  9.0945  6.2259  4.3646  2.7977  2.3801  2.3801  1.5835  1.5835  1.6802  1.2410
  1.2410  0.9455  0.9455  0.9747  0.9747  0.8047  0.8845

 Free energy of the ion-electron system (eV)
  ---------------------------------------------------
  alpha Z        PSCENC =         0.06064420
  Ewald energy   TEWEN  =      2285.68246481
  -Hartree energ DENC   =     -3052.56470761
  -exchange      EXHF   =         0.00000000
  -V(xc)+E(xc)   XCENC  =       102.12815449
  PAW double counting   =      9407.59717052    -9414.24918057
  entropy T*S    EENTRO =        -0.00000000
  eigenvalues    EBANDS =      -362.44669433
  atomic energy  EATOM  =       957.86496585
  Solvation  Ediel_sol  =         0.00000000
  ---------------------------------------------------
  free energy    TOTEN  =       -75.92718264 eV

  energy without entropy =      -75.92718264  energy(sigma->0) =      -75.92718264


--------------------------------------------------------------------------------------------------------




----------------------------------------- Iteration    1(  23)  ---------------------------------------


    POTLOK:  cpu time   25.0302: real time   25.0910
    SETDIJ:  cpu time    0.0940: real time    0.0942
     EDDAV:  cpu time   19.9113: real time   19.9597
       DOS:  cpu time    0.0000: real time    0.0000
    CHARGE:  cpu time    3.6580: real time    3.6669
    MIXING:  cpu time    1.2829: real time    1.2861
    --------------------------------------------
      LOOP:  cpu time   49.9778: real time   50.1017

 eigenvalue-minimisations  :    52
 total energy-change (2. order) :-0.4484704E-04  (-0.1653951E-07)
 number of electron      30.0000000 magnetization 
 augmentation part        1.2636664 magnetization 

 Broyden mixing:
  rms(total) = 0.56787E-04    rms(broyden)= 0.56787E-04
  rms(prec ) = 0.59206E-04
  weight for this iteration     100.00

 eigenvalues of (default mixing * dielectric matrix)
  average eigenvalue GAMMA=   2.3342
  9.1783  6.4464  4.6873  3.0378  2.4016  2.4016  2.0674  1.4967  1.4367  1.4367
  1.0534  1.0534  0.9448  0.9448  0.9584  0.8750  0.8207  0.7754

 Free energy of the ion-electron system (eV)
  ---------------------------------------------------
  alpha Z        PSCENC =         0.06064420
  Ewald energy   TEWEN  =      2285.68246481
  -Hartree energ DENC   =     -3052.57290169
  -exchange      EXHF   =         0.00000000
  -V(xc)+E(xc)   XCENC  =       102.12816442
  PAW double counting   =      9407.91243313    -9414.56446570
  entropy T*S    EENTRO =        -0.00000000
  eigenvalues    EBANDS =      -362.43853251
  atomic energy  EATOM  =       957.86496585
  Solvation  Ediel_sol  =         0.00000000
  ---------------------------------------------------
  free energy    TOTEN  =       -75.92722749 eV

  energy without entropy =      -75.92722749  energy(sigma->0) =      -75.92722749


--------------------------------------------------------------------------------------------------------




----------------------------------------- Iteration    1(  24)  ---------------------------------------


    POTLOK:  cpu time   25.0150: real time   25.0758
    SETDIJ:  cpu time    0.0940: real time    0.0942
     EDDAV:  cpu time   23.1018: real time   23.1580
       DOS:  cpu time    0.0000: real time    0.0000
    CHARGE:  cpu time    3.6414: real time    3.6503
    MIXING:  cpu time    1.3291: real time    1.3324
    --------------------------------------------
      LOOP:  cpu time   53.1829: real time   53.3145

 eigenvalue-minimisations  :    64
 total energy-change (2. order) :-0.1133290E-04  (-0.2719647E-08)
 number of electron      30.0000000 magnetization 
 augmentation part        1.2636706 magnetization 

 Broyden mixing:
  rms(total) = 0.14395E-03    rms(broyden)= 0.14395E-03
  rms(prec ) = 0.14440E-03
  weight for this iteration     100.00

 eigenvalues of (default mixing * dielectric matrix)
  average eigenvalue GAMMA=   2.2956
  9.1873  6.6081  4.8300  3.1529  2.5179  2.2793  2.2376  1.3648  1.3648  1.4200
  1.2016  1.0894  1.0894  0.9475  0.9475  0.9513  0.8010  0.8134  0.8134

 Free energy of the ion-electron system (eV)
  ---------------------------------------------------
  alpha Z        PSCENC =         0.06064420
  Ewald energy   TEWEN  =      2285.68246481
  -Hartree energ DENC   =     -3052.57372599
  -exchange      EXHF   =         0.00000000
  -V(xc)+E(xc)   XCENC  =       102.12813704
  PAW double counting   =      9408.14355706    -9414.79559972
  entropy T*S    EENTRO =        -0.00000000
  eigenvalues    EBANDS =      -362.43768207
  atomic energy  EATOM  =       957.86496585
  Solvation  Ediel_sol  =         0.00000000
  ---------------------------------------------------
  free energy    TOTEN  =       -75.92723882 eV

  energy without entropy =      -75.92723882  energy(sigma->0) =      -75.92723882


--------------------------------------------------------------------------------------------------------




----------------------------------------- Iteration    1(  25)  ---------------------------------------


    POTLOK:  cpu time   25.0469: real time   25.1078
    SETDIJ:  cpu time    0.0940: real time    0.0943
     EDDAV:  cpu time   19.8350: real time   19.8833
       DOS:  cpu time    0.0000: real time    0.0000
    CHARGE:  cpu time    3.6554: real time    3.6643
    MIXING:  cpu time    1.3833: real time    1.3867
    --------------------------------------------
      LOOP:  cpu time   50.0163: real time   50.1405

 eigenvalue-minimisations  :    52
 total energy-change (2. order) :-0.5606777E-05  (-0.8074394E-09)
 number of electron      30.0000000 magnetization 
 augmentation part        1.2636677 magnetization 

 Broyden mixing:
  rms(total) = 0.73084E-04    rms(broyden)= 0.73084E-04
  rms(prec ) = 0.73560E-04
  weight for this iteration     100.00

 eigenvalues of (default mixing * dielectric matrix)
  average eigenvalue GAMMA=   2.3589
  9.3623  6.8894  5.2072  3.7084  2.6221  2.1829  2.1829  2.1645  1.5467  1.5467
  1.3546  1.1691  0.9432  0.9432  1.0261  1.0261  0.9529  0.8417  0.7998  0.7072

 Free energy of the ion-electron system (eV)
  ---------------------------------------------------
  alpha Z        PSCENC =         0.06064420
  Ewald energy   TEWEN  =      2285.68246481
  -Hartree energ DENC   =     -3052.57446461
  -exchange      EXHF   =         0.00000000
  -V(xc)+E(xc)   XCENC  =       102.12816058
  PAW double counting   =      9408.03801303    -9414.69005266
  entropy T*S    EENTRO =        -0.00000000
  eigenvalues    EBANDS =      -362.43697563
  atomic energy  EATOM  =       957.86496585
  Solvation  Ediel_sol  =         0.00000000
  ---------------------------------------------------
  free energy    TOTEN  =       -75.92724443 eV

  energy without entropy =      -75.92724443  energy(sigma->0) =      -75.92724443


--------------------------------------------------------------------------------------------------------




----------------------------------------- Iteration    1(  26)  ---------------------------------------


    POTLOK:  cpu time   25.0747: real time   25.1357
    SETDIJ:  cpu time    0.0936: real time    0.0939
     EDDAV:  cpu time   15.4722: real time   15.5099
       DOS:  cpu time    0.0000: real time    0.0000
    CHARGE:  cpu time    3.6506: real time    3.6595
    MIXING:  cpu time    1.4386: real time    1.4421
    --------------------------------------------
      LOOP:  cpu time   45.7313: real time   45.8451

 eigenvalue-minimisations  :    36
 total energy-change (2. order) :-0.6866107E-05  (-0.1706894E-08)
 number of electron      30.0000000 magnetization 
 augmentation part        1.2636695 magnetization 

 Broyden mixing:
  rms(total) = 0.38573E-04    rms(broyden)= 0.38573E-04
  rms(prec ) = 0.38767E-04
  weight for this iteration     100.00

 eigenvalues of (default mixing * dielectric matrix)
  average eigenvalue GAMMA=   2.3202
  9.3473  7.1100  5.3101  3.9395  2.7156  2.3079  2.3079  2.0454  1.5056  1.5056
  1.4038  1.1299  0.9460  0.9460  0.9375  0.9375  0.9949  0.9949  0.8058  0.8895
  0.6426

 Free energy of the ion-electron system (eV)
  ---------------------------------------------------
  alpha Z        PSCENC =         0.06064420
  Ewald energy   TEWEN  =      2285.68246481
  -Hartree energ DENC   =     -3052.57394417
  -exchange      EXHF   =         0.00000000
  -V(xc)+E(xc)   XCENC  =       102.12813765
  PAW double counting   =      9407.87643850    -9414.52846220
  entropy T*S    EENTRO =        -0.00000000
  eigenvalues    EBANDS =      -362.43749594
  atomic energy  EATOM  =       957.86496585
  Solvation  Ediel_sol  =         0.00000000
  ---------------------------------------------------
  free energy    TOTEN  =       -75.92725129 eV

  energy without entropy =      -75.92725129  energy(sigma->0) =      -75.92725129


--------------------------------------------------------------------------------------------------------




----------------------------------------- Iteration    1(  27)  ---------------------------------------


    POTLOK:  cpu time   25.0946: real time   25.1556
    SETDIJ:  cpu time    0.0940: real time    0.0942
     EDDAV:  cpu time   23.1154: real time   23.1716
       DOS:  cpu time    0.0000: real time    0.0000
    CHARGE:  cpu time    3.6458: real time    3.6547
    MIXING:  cpu time    1.4947: real time    1.4983
    --------------------------------------------
      LOOP:  cpu time   53.4461: real time   53.5786

 eigenvalue-minimisations  :    64
 total energy-change (2. order) :-0.1356162E-05  (-0.4973693E-09)
 number of electron      30.0000000 magnetization 
 augmentation part        1.2636687 magnetization 

 Broyden mixing:
  rms(total) = 0.30560E-04    rms(broyden)= 0.30560E-04
  rms(prec ) = 0.30696E-04
  weight for this iteration     100.00

 eigenvalues of (default mixing * dielectric matrix)
  average eigenvalue GAMMA=   2.2802
  9.3533  7.2435  5.4175  4.0529  2.8263  2.4459  2.0967  1.8078  1.5887  1.4893
  1.4893  1.2545  1.2545  1.0337  1.0337  0.9462  0.9462  0.9637  0.8454  0.8069
  0.7068  0.5611

 Free energy of the ion-electron system (eV)
  ---------------------------------------------------
  alpha Z        PSCENC =         0.06064420
  Ewald energy   TEWEN  =      2285.68246481
  -Hartree energ DENC   =     -3052.57402884
  -exchange      EXHF   =         0.00000000
  -V(xc)+E(xc)   XCENC  =       102.12813782
  PAW double counting   =      9407.86839350    -9414.52041847
  entropy T*S    EENTRO =        -0.00000000
  eigenvalues    EBANDS =      -362.43741153
  atomic energy  EATOM  =       957.86496585
  Solvation  Ediel_sol  =         0.00000000
  ---------------------------------------------------
  free energy    TOTEN  =       -75.92725265 eV

  energy without entropy =      -75.92725265  energy(sigma->0) =      -75.92725265


--------------------------------------------------------------------------------------------------------




----------------------------------------- Iteration    1(  28)  ---------------------------------------


    POTLOK:  cpu time   25.1232: real time   25.1843
    SETDIJ:  cpu time    0.0940: real time    0.0943
     EDDAV:  cpu time   13.3169: real time   13.3494
       DOS:  cpu time    0.0000: real time    0.0000
    CHARGE:  cpu time    3.6428: real time    3.6517
    MIXING:  cpu time    1.5499: real time    1.5537
    --------------------------------------------
      LOOP:  cpu time   43.7284: real time   43.8372

 eigenvalue-minimisations  :    28
 total energy-change (2. order) :-0.8208426E-06  (-0.3586091E-09)
 number of electron      30.0000000 magnetization 
 augmentation part        1.2636692 magnetization 

 Broyden mixing:
  rms(total) = 0.95878E-05    rms(broyden)= 0.95878E-05
  rms(prec ) = 0.98206E-05
  weight for this iteration     100.00

 eigenvalues of (default mixing * dielectric matrix)
  average eigenvalue GAMMA=   2.2956
  9.3888  7.4058  5.5658  4.2614  2.8851  2.4684  2.2697  1.6370  1.6370  1.8631
  1.8631  1.3341  1.3341  1.0522  1.0522  0.9499  0.9499  0.9694  0.9694  0.8097
  0.7751  0.7751  0.5816

 Free energy of the ion-electron system (eV)
  ---------------------------------------------------
  alpha Z        PSCENC =         0.06064420
  Ewald energy   TEWEN  =      2285.68246481
  -Hartree energ DENC   =     -3052.57420813
  -exchange      EXHF   =         0.00000000
  -V(xc)+E(xc)   XCENC  =       102.12813742
  PAW double counting   =      9407.89615304    -9414.54818075
  entropy T*S    EENTRO =        -0.00000000
  eigenvalues    EBANDS =      -362.43722991
  atomic energy  EATOM  =       957.86496585
  Solvation  Ediel_sol  =         0.00000000
  ---------------------------------------------------
  free energy    TOTEN  =       -75.92725347 eV

  energy without entropy =      -75.92725347  energy(sigma->0) =      -75.92725347


--------------------------------------------------------------------------------------------------------




----------------------------------------- Iteration    1(  29)  ---------------------------------------


    POTLOK:  cpu time   25.1236: real time   25.1846
    SETDIJ:  cpu time    0.0940: real time    0.0942
     EDDAV:  cpu time   19.8464: real time   19.8947
       DOS:  cpu time    0.0000: real time    0.0000
    CHARGE:  cpu time    3.6456: real time    3.6545
    MIXING:  cpu time    1.6177: real time    1.6217
    --------------------------------------------
      LOOP:  cpu time   50.3288: real time   50.4530

 eigenvalue-minimisations  :    52
 total energy-change (2. order) :-0.1042672E-05  (-0.4884502E-09)
 number of electron      30.0000000 magnetization 
 augmentation part        1.2636688 magnetization 

 Broyden mixing:
  rms(total) = 0.51438E-05    rms(broyden)= 0.51438E-05
  rms(prec ) = 0.52699E-05
  weight for this iteration     100.00

 eigenvalues of (default mixing * dielectric matrix)
  average eigenvalue GAMMA=   2.3062
  9.4890  7.5914  5.8569  4.5951  3.2328  2.6725  2.2629  2.2629  1.6235  1.6235
  1.5341  1.5341  1.1739  1.1739  1.0401  1.0401  0.9424  0.9424  0.9407  0.9228
  0.8416  0.8019  0.7058  0.5440

 Free energy of the ion-electron system (eV)
  ---------------------------------------------------
  alpha Z        PSCENC =         0.06064420
  Ewald energy   TEWEN  =      2285.68246481
  -Hartree energ DENC   =     -3052.57430256
  -exchange      EXHF   =         0.00000000
  -V(xc)+E(xc)   XCENC  =       102.12813603
  PAW double counting   =      9407.89823029    -9414.55025981
  entropy T*S    EENTRO =        -0.00000000
  eigenvalues    EBANDS =      -362.43713331
  atomic energy  EATOM  =       957.86496585
  Solvation  Ediel_sol  =         0.00000000
  ---------------------------------------------------
  free energy    TOTEN  =       -75.92725451 eV

  energy without entropy =      -75.92725451  energy(sigma->0) =      -75.92725451


--------------------------------------------------------------------------------------------------------




----------------------------------------- Iteration    1(  30)  ---------------------------------------


    POTLOK:  cpu time   25.0640: real time   25.1250
    SETDIJ:  cpu time    0.0939: real time    0.0941
     EDDAV:  cpu time   19.8364: real time   19.8849
       DOS:  cpu time    0.0000: real time    0.0000
    CHARGE:  cpu time    3.6426: real time    3.6515
    MIXING:  cpu time    1.6750: real time    1.6791
    --------------------------------------------
      LOOP:  cpu time   50.3135: real time   50.4383

 eigenvalue-minimisations  :    52
 total energy-change (2. order) :-0.3195746E-06  (-0.3688001E-09)
 number of electron      30.0000000 magnetization 
 augmentation part        1.2636693 magnetization 

 Broyden mixing:
  rms(total) = 0.21061E-05    rms(broyden)= 0.21061E-05
  rms(prec ) = 0.22304E-05
  weight for this iteration     100.00

 eigenvalues of (default mixing * dielectric matrix)
  average eigenvalue GAMMA=   2.2855
  9.4659  7.7331  5.9103  4.7157  3.3297  2.8495  2.3864  1.9505  1.4978  1.4978
  1.5706  1.5706  1.6105  1.3322  1.1563  1.0458  0.9416  0.9416  0.9006  0.9006
  0.9058  0.7992  0.7822  0.7822  0.5611

 Free energy of the ion-electron system (eV)
  ---------------------------------------------------
  alpha Z        PSCENC =         0.06064420
  Ewald energy   TEWEN  =      2285.68246481
  -Hartree energ DENC   =     -3052.57425331
  -exchange      EXHF   =         0.00000000
  -V(xc)+E(xc)   XCENC  =       102.12813212
  PAW double counting   =      9407.90529811    -9414.55732756
  entropy T*S    EENTRO =        -0.00000000
  eigenvalues    EBANDS =      -362.43717905
  atomic energy  EATOM  =       957.86496585
  Solvation  Ediel_sol  =         0.00000000
  ---------------------------------------------------
  free energy    TOTEN  =       -75.92725483 eV

  energy without entropy =      -75.92725483  energy(sigma->0) =      -75.92725483


--------------------------------------------------------------------------------------------------------




----------------------------------------- Iteration    1(  31)  ---------------------------------------


    POTLOK:  cpu time   25.0090: real time   25.0699
    SETDIJ:  cpu time    0.0940: real time    0.0942
     EDDAV:  cpu time   16.4509: real time   16.4909
       DOS:  cpu time    0.0000: real time    0.0000
    CHARGE:  cpu time    3.6498: real time    3.6587
    MIXING:  cpu time    1.7381: real time    1.7423
    --------------------------------------------
      LOOP:  cpu time   46.9434: real time   47.0597

 eigenvalue-minimisations  :    40
 total energy-change (2. order) :-0.1610624E-06  (-0.2904113E-09)
 number of electron      30.0000000 magnetization 
 augmentation part        1.2636689 magnetization 

 Broyden mixing:
  rms(total) = 0.27815E-05    rms(broyden)= 0.27815E-05
  rms(prec ) = 0.28259E-05
  weight for this iteration     100.00

 eigenvalues of (default mixing * dielectric matrix)
  average eigenvalue GAMMA=   2.3065
  9.5154  7.8714  6.1754  4.8304  3.6910  2.6025  2.6025  2.2311  2.2311  1.6566
  1.6566  1.5529  1.3113  1.3113  1.1349  1.1349  0.9693  0.9693  0.9420  0.9420
  0.9518  0.8446  0.8090  0.7424  0.7424  0.5475

 Free energy of the ion-electron system (eV)
  ---------------------------------------------------
  alpha Z        PSCENC =         0.06064420
  Ewald energy   TEWEN  =      2285.68246481
  -Hartree energ DENC   =     -3052.57431506
  -exchange      EXHF   =         0.00000000
  -V(xc)+E(xc)   XCENC  =       102.12813306
  PAW double counting   =      9407.90901992    -9414.56104972
  entropy T*S    EENTRO =        -0.00000000
  eigenvalues    EBANDS =      -362.43711805
  atomic energy  EATOM  =       957.86496585
  Solvation  Ediel_sol  =         0.00000000
  ---------------------------------------------------
  free energy    TOTEN  =       -75.92725499 eV

  energy without entropy =      -75.92725499  energy(sigma->0) =      -75.92725499


--------------------------------------------------------------------------------------------------------




----------------------------------------- Iteration    1(  32)  ---------------------------------------


    POTLOK:  cpu time   25.0081: real time   25.0690
    SETDIJ:  cpu time    0.0939: real time    0.0941
     EDDAV:  cpu time   13.3274: real time   13.3599
       DOS:  cpu time    0.0000: real time    0.0000
    CHARGE:  cpu time    3.6376: real time    3.6465
    MIXING:  cpu time    1.8106: real time    1.8150
    --------------------------------------------
      LOOP:  cpu time   43.8792: real time   43.9885

 eigenvalue-minimisations  :    28
 total energy-change (2. order) :-0.1587814E-06  (-0.2126690E-09)
 number of electron      30.0000000 magnetization 
 augmentation part        1.2636693 magnetization 

 Broyden mixing:
  rms(total) = 0.55631E-05    rms(broyden)= 0.55631E-05
  rms(prec ) = 0.55712E-05
  weight for this iteration     100.00

 eigenvalues of (default mixing * dielectric matrix)
  average eigenvalue GAMMA=   2.2565
  9.5166  7.9483  6.2364  4.9340  3.8314  2.6252  2.6252  2.2698  2.2698  1.6536
  1.6536  1.4181  1.4181  1.2779  1.2779  1.0375  1.0375  0.9467  0.9467  0.8865
  0.8865  0.8634  0.8165  0.7848  0.7848  0.5544  0.4246

 Free energy of the ion-electron system (eV)
  ---------------------------------------------------
  alpha Z        PSCENC =         0.06064420
  Ewald energy   TEWEN  =      2285.68246481
  -Hartree energ DENC   =     -3052.57439878
  -exchange      EXHF   =         0.00000000
  -V(xc)+E(xc)   XCENC  =       102.12813404
  PAW double counting   =      9407.91867816    -9414.57070797
  entropy T*S    EENTRO =        -0.00000000
  eigenvalues    EBANDS =      -362.43703546
  atomic energy  EATOM  =       957.86496585
  Solvation  Ediel_sol  =         0.00000000
  ---------------------------------------------------
  free energy    TOTEN  =       -75.92725515 eV

  energy without entropy =      -75.92725515  energy(sigma->0) =      -75.92725515


--------------------------------------------------------------------------------------------------------




----------------------------------------- Iteration    1(  33)  ---------------------------------------


    POTLOK:  cpu time   25.0357: real time   25.0966
    SETDIJ:  cpu time    0.0940: real time    0.0942
     EDDAV:  cpu time   16.5986: real time   16.6390
       DOS:  cpu time    0.0000: real time    0.0000
    --------------------------------------------
      LOOP:  cpu time   41.7299: real time   41.8336

 eigenvalue-minimisations  :    40
 total energy-change (2. order) :-0.2929482E-07  (-0.1539231E-09)
 number of electron      30.0000000 magnetization 
 augmentation part        1.2636693 magnetization 

 Free energy of the ion-electron system (eV)
  ---------------------------------------------------
  alpha Z        PSCENC =         0.06064420
  Ewald energy   TEWEN  =      2285.68246481
  -Hartree energ DENC   =     -3052.57440821
  -exchange      EXHF   =         0.00000000
  -V(xc)+E(xc)   XCENC  =       102.12813460
  PAW double counting   =      9407.91353612    -9414.56556575
  entropy T*S    EENTRO =        -0.00000000
  eigenvalues    EBANDS =      -362.43702681
  atomic energy  EATOM  =       957.86496585
  Solvation  Ediel_sol  =         0.00000000
  ---------------------------------------------------
  free energy    TOTEN  =       -75.92725518 eV

  energy without entropy =      -75.92725518  energy(sigma->0) =      -75.92725518


--------------------------------------------------------------------------------------------------------




 average (electrostatic) potential at core
  the test charge radii are     0.8471  0.6256
  (the norm of the test charge is              1.0000)
       1 -83.4984       2 -83.4994       3 -83.4999       4 -83.4994       5 -83.4982
       6 -83.4981       7 -38.5816       8 -38.5828       9 -38.5845      10 -38.5826
      11 -38.5822      12 -38.5944
 
 
 
 E-fermi :  -6.2313     XC(G=0):  -0.0481     alpha+bet : -0.0192


 k-point     1 :       0.0000    0.0000    0.0000
  band No.  band energies     occupation 
      1     -21.2172      2.00000
      2     -18.4299      2.00000
      3     -18.4264      2.00000
      4     -14.8190      2.00000
      5     -14.8183      2.00000
      6     -12.9059      2.00000
      7     -11.1902      2.00000
      8     -10.8764      2.00000
      9     -10.2175      2.00000
     10     -10.2113      2.00000
     11      -9.0602      2.00000
     12      -8.2076      2.00000
     13      -8.1970      2.00000
     14      -6.3213      2.00000
     15      -6.3203      2.00000
     16      -1.2006      0.00000
     17      -1.1986      0.00000
     18      -0.4967      0.00000
     19      -0.0296      0.00000
     20      -0.0293      0.00000
     21       0.0145      0.00000
     22       0.1125      0.00000


--------------------------------------------------------------------------------------------------------


 soft charge-density along one line, spin component           1
         0         1         2         3         4         5         6         7         8         9
 total charge-density along one line
 
 pseudopotential strength for first ion, spin component:           1
 19.672  23.154   0.003   0.000   0.002   0.004   0.000   0.004
 23.154  27.256   0.003   0.000   0.003   0.005   0.000   0.004
  0.003   0.003  -2.921  -0.014   0.003  -3.566  -0.019   0.004
  0.000   0.000  -0.014  -2.844   0.009  -0.019  -3.461   0.012
  0.002   0.003   0.003   0.009  -2.924   0.004   0.012  -3.570
  0.004   0.005  -3.566  -0.019   0.004  -4.276  -0.025   0.006
  0.000   0.000  -0.019  -3.461   0.012  -0.025  -4.135   0.017
  0.004   0.004   0.004   0.012  -3.570   0.006   0.017  -4.281
 total augmentation occupancy for first ion, spin component:           1
 18.801 -11.739  -1.429  -0.074  -1.197   0.943   0.050   0.791
-11.739   7.439   1.077   0.058   0.904  -0.707  -0.039  -0.593
 -1.429   1.077  12.266   1.295  -0.677  -6.434  -0.759   0.433
 -0.074   0.058   1.295   5.206  -0.925  -0.759  -2.317   0.546
 -1.197   0.904  -0.677  -0.925  12.664   0.432   0.546  -6.680
  0.943  -0.707  -6.434  -0.759   0.432   3.405   0.438  -0.274
  0.050  -0.039  -0.759  -2.317   0.546   0.438   1.045  -0.318
  0.791  -0.593   0.433   0.546  -6.680  -0.274  -0.318   3.554


------------------------ aborting loop because EDIFF is reached ----------------------------------------


    CHARGE:  cpu time    3.6491: real time    3.6581
    FORLOC:  cpu time    3.1836: real time    3.1914
    FORNL :  cpu time    2.1196: real time    2.1248
    STRESS:  cpu time    8.0216: real time    8.0411
    FORHAR:  cpu time    8.7619: real time    8.7833
    MIXING:  cpu time    1.8704: real time    1.8750
    OFIELD:  cpu time    0.0000: real time    0.0000

  FORCE on cell =-STRESS in cart. coord.  units (eV):
  Direction    XX          YY          ZZ          XY          YZ          ZX
  --------------------------------------------------------------------------------------
  Alpha Z     0.06064     0.06064     0.06064
  Ewald    1215.18741  1194.61540  -124.12123    23.18829   221.75582  -143.44324
  Hartree  1279.46465  1267.52745   505.58226    13.39084   127.63336   -82.60256
  E(xc)    -105.41407  -105.46410  -108.65452     0.05644     0.54075    -0.34932
  Local   -2858.48937 -2826.72209  -796.09529   -35.71751  -340.87318   220.55280
  n-local    68.46777    68.49968    69.86144    -0.02972    -0.23523     0.15159
  augment    27.95619    27.91733    25.72846     0.04149     0.37049    -0.23965
  Kinetic   375.29633   376.02097   427.73009    -0.86497    -8.79105     5.67025
  Fock        0.00000     0.00000     0.00000     0.00000     0.00000     0.00000
  -------------------------------------------------------------------------------------
  Total       2.52956     2.45528     0.09185     0.06485     0.40097    -0.26013
  in kB       0.09453     0.09175     0.00343     0.00242     0.01498    -0.00972
  external pressure =        0.06 kB  Pullay stress =        0.00 kB


 VOLUME and BASIS-vectors are now :
 -----------------------------------------------------------------------------
  energy-cutoff  :     1000.00
  volume of cell :    42875.00
      direct lattice vectors                 reciprocal lattice vectors
    35.000000000  0.000000000  0.000000000     0.028571429  0.000000000  0.000000000
     0.000000000 35.000000000  0.000000000     0.000000000  0.028571429  0.000000000
     0.000000000  0.000000000 35.000000000     0.000000000  0.000000000  0.028571429

  length of vectors
    35.000000000 35.000000000 35.000000000     0.028571429  0.028571429  0.028571429


 FORCES acting on ions
    electron-ion (+dipol)            ewald-force                    non-local-force                 convergence-correction
 -----------------------------------------------------------------------------------------------
   -.116E+03 -.138E+03 -.930E+01   0.116E+03 0.138E+03 0.936E+01   -.196E+00 -.182E+00 -.435E-01   -.492E-05 -.527E-05 -.495E-06
   -.176E+03 0.287E+02 0.239E+02   0.177E+03 -.288E+02 -.239E+02   -.262E+00 0.722E-01 0.122E-01   -.658E-05 -.916E-07 0.523E-06
   -.604E+02 0.167E+03 0.335E+02   0.604E+02 -.167E+03 -.335E+02   -.956E-01 0.250E+00 0.125E-01   -.182E-05 0.630E-05 0.983E-06
   0.116E+03 0.137E+03 0.107E+02   -.116E+03 -.138E+03 -.107E+02   0.153E+00 0.224E+00 -.560E-02   0.441E-05 0.602E-05 0.302E-06
   0.176E+03 -.290E+02 -.225E+02   -.177E+03 0.290E+02 0.226E+02   0.267E+00 -.992E-02 -.631E-01   0.656E-05 -.156E-07 -.913E-06
   0.604E+02 -.167E+03 -.329E+02   -.605E+02 0.167E+03 0.330E+02   0.110E+00 -.317E+00 -.563E-01   0.512E-06 -.679E-05 -.141E-05
   -.521E+02 -.618E+02 -.493E+01   0.562E+02 0.666E+02 0.531E+01   -.378E+01 -.449E+01 -.372E+00   -.584E-06 -.645E-06 -.637E-07
   -.793E+02 0.130E+02 0.103E+02   0.854E+02 -.140E+02 -.111E+02   -.575E+01 0.947E+00 0.738E+00   -.113E-05 0.122E-06 0.115E-06
   -.272E+02 0.749E+02 0.147E+02   0.293E+02 -.807E+02 -.158E+02   -.197E+01 0.544E+01 0.106E+01   -.415E-06 0.115E-05 0.196E-06
   0.521E+02 0.619E+02 0.436E+01   -.561E+02 -.666E+02 -.469E+01   0.378E+01 0.449E+01 0.307E+00   0.618E-06 0.803E-06 0.328E-07
   0.792E+02 -.130E+02 -.109E+02   -.853E+02 0.140E+02 0.118E+02   0.575E+01 -.946E+00 -.809E+00   0.142E-05 -.155E-06 -.205E-06
   0.270E+02 -.746E+02 -.164E+02   -.291E+02 0.804E+02 0.177E+02   0.196E+01 -.542E+01 -.123E+01   0.302E-06 -.118E-05 -.257E-06
 -----------------------------------------------------------------------------------------------
   0.448E-01 -.620E-01 0.450E+00   -.533E-13 -.142E-13 -.711E-14   -.448E-01 0.620E-01 -.450E+00   -.164E-05 0.256E-06 -.119E-05
 
 
 POSITION                                       TOTAL-FORCE (eV/Angst)
 -----------------------------------------------------------------------------------
      0.96408      0.87509      0.37801        -0.073222     -0.043202      0.017101
      1.43106     34.58687      0.11899        -0.069551      0.030361      0.009390
      0.53413     33.52236      0.04242        -0.027316      0.067391      0.007043
     34.16967     33.74640      0.22086         0.034159      0.067017      0.006633
     33.70241      0.03441      0.48024         0.091790      0.017701      0.011763
     34.59955      1.09978      0.56160         0.053411     -0.159922      0.007350
      1.65983      1.69993      0.44604         0.257682      0.293302      0.015128
      2.48952     34.41279     34.98299         0.378917     -0.060335     -0.054252
      0.89696     32.52261     34.84799         0.130244     -0.360372     -0.077566
     33.47424     32.92038      0.16412        -0.250465     -0.294647     -0.026225
     32.64560      0.20802      0.62856        -0.385858      0.053177      0.042029
     34.23954      2.09377      0.78476        -0.139793      0.389530      0.041606
 -----------------------------------------------------------------------------------
    total drift:                               -0.000018      0.000057     -0.000021


--------------------------------------------------------------------------------------------------------



  FREE ENERGIE OF THE ION-ELECTRON SYSTEM (eV)
  ---------------------------------------------------
  free  energy   TOTEN  =       -75.92725518 eV

  energy  without entropy=      -75.92725518  energy(sigma->0) =      -75.92725518
 


--------------------------------------------------------------------------------------------------------


    POTLOK:  cpu time   25.1978: real time   25.2592


--------------------------------------------------------------------------------------------------------


 writing wavefunctions
     LOOP+:  cpu time 1908.7006: real time 1913.4731
    4ORBIT:  cpu time    0.0000: real time    0.0000

 total amount of memory used by VASP on root node  5444910. kBytes
========================================================================

   base      :      30000. kBytes
   nonl-proj :      61569. kBytes
   fftplans  :    1964666. kBytes
   grid      :    3320944. kBytes
   one-center:          3. kBytes
   wavefun   :      67728. kBytes
 
  
  
 General timing and accounting informations for this job:
 ========================================================
  
                  Total CPU time used (sec):     2310.698
                            User time (sec):     2136.829
                          System time (sec):      173.868
                         Elapsed time (sec):     2316.442
  
                   Maximum memory used (kb):     8621072.
                   Average memory used (kb):           0.
  
                          Minor page faults:       264259
                          Major page faults:            8
                 Voluntary context switches:          733
 
 PROFILE, used timers:      14
 =============================
 
 index                 routine                    time                            calls level
----------------------------------------------------------------------------------------------
    1    total_time                         2316.442883                                1   1
    2      w1_copy                               5.725696                           8044   2
    3      fftwav_mpi                          321.015945                           3131   2
    4      fftext_mpi                            1.506310                             22   2
    5      overl                                 0.002470                           4623   2
    6      orth1                                 7.775355                           1106   2
    7      lincom                                0.474116                             34   2
    8      eccp                                 11.119558                            726   2
    9      hamiltmu                            344.110513                            368   2
   10        vhamil                               66.143699                         2674   3
   11        overl1                                0.002292                         2674   3
   12        kinhamil                            187.009078                         2674   3
   13          fftext_mpi                          185.248854                       2674   4
   14      pdssyex_zheevx                        0.040549                             33   2
 
 Flat profile
 ============
 
             routine name                   CPU           calls
 ---------------------------------------------------------------
 total_time                           1624.672370           1
 fftwav_mpi                            321.015945        3131
 fftext_mpi                            186.755164        2696
 hamiltmu                               90.955444         368
 vhamil                                 66.143699        2674
 eccp                                   11.119558         726
 orth1                                   7.775355        1106
 w1_copy                                 5.725696        8044
 kinhamil                                1.760224        2674
 lincom                                  0.474116          34
 pdssyex_zheevx                          0.040549          33
 overl                                   0.002470        4623
 overl1                                  0.002292        2674
 ---------------------------------------------------------------
  summed up times    2316.44288301468     
 
Profiling took   0.013396  0.007458  0.003266  0.003262 seconds
Profiling took   0.011271 seconds
