 vasp.5.4.1 24Jun15 (build Jan 02 2020 16:21:29) gamma-only                     
  
 executed on           IFC15_impi date 2020.04.14  11:24:59
 running on    8 total cores
 distrk:  each k-point on    8 cores,    1 groups
 distr:  one band on NCORES_PER_BAND=   8 cores,    1 groups


--------------------------------------------------------------------------------------------------------


 INCAR:
 POTCAR:    PAW_PBE C_s 06Sep2000                 
 POTCAR:    PAW_PBE H_s 15May2010                 

 ----------------------------------------------------------------------------- 
|                                                                             |
|           W    W    AA    RRRRR   N    N  II  N    N   GGGG   !!!           |
|           W    W   A  A   R    R  NN   N  II  NN   N  G    G  !!!           |
|           W    W  A    A  R    R  N N  N  II  N N  N  G       !!!           |
|           W WW W  AAAAAA  RRRRR   N  N N  II  N  N N  G  GGG   !            |
|           WW  WW  A    A  R   R   N   NN  II  N   NN  G    G                |
|           W    W  A    A  R    R  N    N  II  N    N   GGGG   !!!           |
|                                                                             |
|      For optimal performance we recommend to set                            |
|        NCORE= 4 - approx SQRT( number of cores)                             |
|      NCORE specifies how many cores store one orbital (NPAR=cpu/NCORE).     |
|      This setting can  greatly improve the performance of VASP for DFT.     |
|      The default, NPAR=number of cores might be grossly inefficient         |
|      on modern multi-core architectures or massively parallel machines.     |
|      Do your own testing !!!!                                               |
|      Unfortunately you need to use the default for GW and RPA calculations. |
|      (for HF NCORE is supported but not extensively tested yet)             |
|                                                                             |
 ----------------------------------------------------------------------------- 

 POTCAR:    PAW_PBE C_s 06Sep2000                 
   VRHFIN =C: s2p2                                                              
   LEXCH  = PE                                                                  
   EATOM  =   147.1560 eV,   10.8157 Ry                                         
                                                                                
   TITEL  = PAW_PBE C_s 06Sep2000                                               
   LULTRA =        F    use ultrasoft PP ?                                      
   IUNSCR =        0    unscreen: 0-lin 1-nonlin 2-no                           
   RPACOR =    0.000    partial core radius                                     
   POMASS =   12.011; ZVAL   =    4.000    mass and valenz                      
   RCORE  =    1.850    outmost cutoff radius                                   
   RWIGS  =    1.890; RWIGS  =    1.000    wigner-seitz radius (au A)           
   ENMAX  =  273.911; ENMIN  =  205.433 eV                                      
   RCLOC  =    0.804    cutoff for local pot                                    
   LCOR   =        T    correct aug charges                                     
   LPAW   =        T    paw PP                                                  
   EAUG   =  439.243                                                            
   DEXC   =    0.000                                                            
   RMAX   =    1.897    core radius for proj-oper                               
   RAUG   =    1.300    factor for augmentation sphere                          
   RDEP   =    1.940    radius for radial grids                                 
   RDEPT  =    1.573    core radius for aug-charge                              
                                                                                
   Atomic configuration                                                         
    4 entries                                                                   
     n  l   j            E        occ.                                          
     1  0  0.50      -273.3789   2.0000                                         
     2  0  0.50       -13.7508   2.0000                                         
     2  1  0.50        -5.2854   2.0000                                         
     3  2  1.50        -1.3606   0.0000                                         
   Description                                                                  
     l       E           TYP  RCUT    TYP  RCUT                                 
     0    -13.7508457     23  1.500                                             
     0    -11.0934578     23  1.500                                             
     1     -5.2854381     23  1.850                                             
     1     -1.3099858     23  1.850                                             
  local pseudopotential read in
  atomic valenz-charges read in
  non local Contribution for L=           0  read in
    real space projection operators read in
  non local Contribution for L=           0  read in
    real space projection operators read in
  non local Contribution for L=           1  read in
    real space projection operators read in
  non local Contribution for L=           1  read in
    real space projection operators read in
    PAW grid and wavefunctions read in
 
   number of l-projection  operators is LMAX  =           4
   number of lm-projection operators is LMMAX =           8
 
 POTCAR:    PAW_PBE H_s 15May2010                 
   VRHFIN =H: ultrasoft test                                                    
   LEXCH  = PE                                                                  
   EATOM  =    12.4884 eV,    0.9179 Ry                                         
                                                                                
   TITEL  = PAW_PBE H_s 15May2010                                               
   LULTRA =        F    use ultrasoft PP ?                                      
   IUNSCR =        0    unscreen: 0-lin 1-nonlin 2-no                           
   RPACOR =    0.000    partial core radius                                     
   POMASS =    1.000; ZVAL   =    1.000    mass and valenz                      
   RCORE  =    1.300    outmost cutoff radius                                   
   RWIGS  =    0.700; RWIGS  =    0.370    wigner-seitz radius (au A)           
   ENMAX  =  200.000; ENMIN  =  150.000 eV                                      
   RCLOC  =    0.701    cutoff for local pot                                    
   LCOR   =        T    correct aug charges                                     
   LPAW   =        T    paw PP                                                  
   EAUG   =  300.000                                                            
   RMAX   =    1.330    core radius for proj-oper                               
   RAUG   =    1.200    factor for augmentation sphere                          
   RDEP   =    1.337    radius for radial grids                                 
   RDEPT  =    1.114    core radius for aug-charge                              
                                                                                
   Atomic configuration                                                         
    2 entries                                                                   
     n  l   j            E        occ.                                          
     1  0  0.50        -6.4927   1.0000                                         
     2  1  0.50        -3.4015   0.0000                                         
   Description                                                                  
     l       E           TYP  RCUT    TYP  RCUT                                 
     0     -6.4927494     23  1.300                                             
     0      6.8029130     23  1.300                                             
     1     -4.0817478     23  1.300                                             
  local pseudopotential read in
  atomic valenz-charges read in
  non local Contribution for L=           0  read in
    real space projection operators read in
  non local Contribution for L=           0  read in
    real space projection operators read in
  non local Contribution for L=           1  read in
    real space projection operators read in
    PAW grid and wavefunctions read in
 
   number of l-projection  operators is LMAX  =           3
   number of lm-projection operators is LMMAX =           5
 
  PAW_PBE C_s 06Sep2000                 :
 energy of atom  1       EATOM= -147.1560
 kinetic energy error for atom=    0.0002 (will be added to EATOM!!)
  PAW_PBE H_s 15May2010                 :
 energy of atom  2       EATOM=  -12.4884
 kinetic energy error for atom=    0.0000 (will be added to EATOM!!)
 
 
 POSCAR: C H                                     
  positions in cartesian coordinates
  No initial velocities read in
 exchange correlation table for  LEXCH =        8
   RHO(1)=    0.500       N(1)  =     2000
   RHO(2)=  100.500       N(2)  =     4000
 


--------------------------------------------------------------------------------------------------------


 ion  position               nearest neighbor table
   1  0.022  0.029  0.011-   7 1.08   6 1.39   2 1.39
   2  0.036  0.992  0.012-   8 1.08   3 1.39   1 1.39
   3  0.011  0.961  0.012-   9 1.08   4 1.39   2 1.39
   4  0.972  0.967  0.011-  10 1.08   3 1.39   5 1.39
   5  0.957  0.004  0.010-  11 1.08   4 1.39   6 1.39
   6  0.982  0.035  0.010-  12 1.08   5 1.39   1 1.39
   7  0.041  0.054  0.011-   1 1.08
   8  0.067  0.988  0.013-   2 1.08
   9  0.023  0.933  0.013-   3 1.08
  10  0.953  0.943  0.011-   4 1.08
  11  0.927  0.009  0.009-   5 1.08
  12  0.971  0.064  0.009-   6 1.08
 
  LATTYP: Found a simple cubic cell.
 ALAT       =    35.0000000000
  
  Lattice vectors:
  
 A1 = (  35.0000000000,   0.0000000000,   0.0000000000)
 A2 = (   0.0000000000,  35.0000000000,   0.0000000000)
 A3 = (   0.0000000000,   0.0000000000,  35.0000000000)


Analysis of symmetry for initial positions (statically):
=====================================================================
 Subroutine PRICEL returns:
 Original cell was already a primitive cell.
 

 Routine SETGRP: Setting up the symmetry group for a 
 simple cubic supercell.


 Subroutine GETGRP returns: Found  1 space group operations
 (whereof  1 operations were pure point group operations)
 out of a pool of 48 trial point group operations.


The static configuration has the point symmetry C_1 .


Analysis of symmetry for dynamics (positions and initial velocities):
=====================================================================
 Subroutine PRICEL returns:
 Original cell was already a primitive cell.
 

 Routine SETGRP: Setting up the symmetry group for a 
 simple cubic supercell.


 Subroutine GETGRP returns: Found  1 space group operations
 (whereof  1 operations were pure point group operations)
 out of a pool of 48 trial point group operations.


The dynamic configuration has the point symmetry C_1 .
 
 
 KPOINTS: automatic mesh                          

Automatic generation of k-mesh.
Space group operators:
 irot       det(A)        alpha          n_x          n_y          n_z        tau_x        tau_y        tau_z
    1     1.000000     0.000000     1.000000     0.000000     0.000000     0.000000     0.000000     0.000000
 
 Subroutine IBZKPT returns following result:
 ===========================================
 
 Found      1 irreducible k-points:
 
 Following reciprocal coordinates:
            Coordinates               Weight
  0.000000  0.000000  0.000000      1.000000
 
 Following cartesian coordinates:
            Coordinates               Weight
  0.000000  0.000000  0.000000      1.000000
 


--------------------------------------------------------------------------------------------------------




 Dimension of arrays:
   k-points           NKPTS =      1   k-points in BZ     NKDIM =      1   number of bands    NBANDS=     22
   number of dos      NEDOS =    301   number of ions     NIONS =     12
   non local maximal  LDIM  =      4   non local SUM 2l+1 LMDIM =      8
   total plane-waves  NPLWV = ******
   max r-space proj   IRMAX =      1   max aug-charges    IRDMAX=  26641
   dimension x,y,z NGX =   378 NGY =  378 NGZ =  378
   dimension x,y,z NGXF=   756 NGYF=  756 NGZF=  756
   support grid    NGXF=   756 NGYF=  756 NGZF=  756
   ions per type =               6   6
 NGX,Y,Z   is equivalent  to a cutoff of  17.95, 17.95, 17.95 a.u.
 NGXF,Y,Z  is equivalent  to a cutoff of  35.91, 35.91, 35.91 a.u.


 I would recommend the setting:
   dimension x,y,z NGX =   361 NGY =  361 NGZ =  361
 SYSTEM =  C                                       
 POSCAR =  C H                                     

 Startparameter for this run:
   NWRITE =      2    write-flag & timer
   PREC   = acc       normal or accurate (medium, high low for compatibility)
   ISTART =      0    job   : 0-new  1-cont  2-samecut
   ICHARG =      2    charge: 1-file 2-atom 10-const
   ISPIN  =      1    spin polarized calculation?
   LNONCOLLINEAR =      F non collinear calculations
   LSORBIT =      F    spin-orbit coupling
   INIWAV =      1    electr: 0-lowe 1-rand  2-diag
   LASPH  =      T    aspherical Exc in radial PAW
   METAGGA=      F    non-selfconsistent MetaGGA calc.

 Electronic Relaxation 1
   ENCUT  = 1000.0 eV  73.50 Ry    8.57 a.u.  90.25 90.25 90.25*2*pi/ulx,y,z
   ENINI  = 1000.0     initial cutoff
   ENAUG  =  439.2 eV  augmentation charge cutoff
   NELM   =     60;   NELMIN=  2; NELMDL= -5     # of ELM steps 
   EDIFF  = 0.1E-06   stopping-criterion for ELM
   LREAL  =      F    real-space projection
   NLSPLINE    = F    spline interpolate recip. space projectors
   LCOMPAT=      F    compatible to vasp.4.4
   GGA_COMPAT  = T    GGA compatible to vasp.4.4-vasp.4.6
   LMAXPAW     = -100 max onsite density
   LMAXMIX     =    2 max onsite mixed and CHGCAR
   VOSKOWN=      0    Vosko Wilk Nusair interpolation
   ROPT   =    0.00000   0.00000
 Ionic relaxation
   EDIFFG = 0.1E-05   stopping-criterion for IOM
   NSW    =      0    number of steps for IOM
   NBLOCK =      1;   KBLOCK =      1    inner block; outer block 
   IBRION =     -1    ionic relax: 0-MD 1-quasi-New 2-CG
   NFREE  =      0    steps in history (QN), initial steepest desc. (CG)
   ISIF   =      2    stress and relaxation
   IWAVPR =     10    prediction:  0-non 1-charg 2-wave 3-comb
   ISYM   =      2    0-nonsym 1-usesym 2-fastsym
   LCORR  =      T    Harris-Foulkes like correction to forces

   POTIM  = 0.5000    time-step for ionic-motion
   TEIN   =    0.0    initial temperature
   TEBEG  =    0.0;   TEEND  =   0.0 temperature during run
   SMASS  =  -3.00    Nose mass-parameter (am)
   estimated Nose-frequenzy (Omega)   =  0.10E-29 period in steps =****** mass=  -0.280E-25a.u.
   SCALEE = 1.0000    scale energy and forces
   NPACO  =    256;   APACO  = 16.0  distance and # of slots for P.C.
   PSTRESS=    0.0 pullay stress

  Mass of Ions in am
   POMASS =  12.01  1.00
  Ionic Valenz
   ZVAL   =   4.00  1.00
  Atomic Wigner-Seitz radii
   RWIGS  =  -1.00 -1.00
  virtual crystal weights 
   VCA    =   1.00  1.00
   NELECT =      30.0000    total number of electrons
   NUPDOWN=      -1.0000    fix difference up-down

 DOS related values:
   EMIN   =  10.00;   EMAX   =-10.00  energy-range for DOS
   EFERMI =   0.00
   ISMEAR =     0;   SIGMA  =   0.01  broadening in eV -4-tet -1-fermi 0-gaus

 Electronic relaxation 2 (details)
   IALGO  =     38    algorithm
   LDIAG  =      T    sub-space diagonalisation (order eigenvalues)
   LSUBROT=      F    optimize rotation matrix (better conditioning)
   TURBO    =      0    0=normal 1=particle mesh
   IRESTART =      0    0=no restart 2=restart with 2 vectors
   NREBOOT  =      0    no. of reboots
   NMIN     =      0    reboot dimension
   EREF     =   0.00    reference energy to select bands
   IMIX   =      4    mixing-type and parameters
     AMIX     =   0.40;   BMIX     =  1.00
     AMIX_MAG =   1.60;   BMIX_MAG =  1.00
     AMIN     =   0.10
     WC   =   100.;   INIMIX=   1;  MIXPRE=   1;  MAXMIX= -45

 Intra band minimization:
   WEIMIN = 0.0000     energy-eigenvalue tresh-hold
   EBREAK =  0.11E-08  absolut break condition
   DEPER  =   0.30     relativ break condition  

   TIME   =   0.40     timestep for ELM

  volume/ion in A,a.u.               =    3572.92     24111.23
  Fermi-wavevector in a.u.,A,eV,Ry     =   0.145338  0.274650  0.287399  0.021123
  Thomas-Fermi vector in A             =   0.812913
 
 Write flags
   LWAVE  =      T    write WAVECAR
   LCHARG =      T    write CHGCAR
   LVTOT  =      F    write LOCPOT, total local potential
   LVHAR  =      F    write LOCPOT, Hartree potential only
   LELF   =      F    write electronic localiz. function (ELF)
   LORBIT =      0    0 simple, 1 ext, 2 COOP (PROOUT)


 Dipole corrections
   LMONO  =      F    monopole corrections only (constant potential shift)
   LDIPOL =      F    correct potential (dipole corrections)
   IDIPOL =      0    1-x, 2-y, 3-z, 4-all directions 
   EPSILON=  1.0000000 bulk dielectric constant

 Exchange correlation treatment:
   GGA     =    --    GGA type
   LEXCH   =     8    internal setting for exchange type
   VOSKOWN=      0    Vosko Wilk Nusair interpolation
   LHFCALC =     F    Hartree Fock is set to
   LHFONE  =     F    Hartree Fock one center treatment
   AEXX    =    0.0000 exact exchange contribution

 Linear response parameters
   LEPSILON=     F    determine dielectric tensor
   LRPA    =     F    only Hartree local field effects (RPA)
   LNABLA  =     F    use nabla operator in PAW spheres
   LVEL    =     F    velocity operator in full k-point grid
   LINTERFAST=   F  fast interpolation
   KINTER  =     0    interpolate to denser k-point grid
   CSHIFT  =0.1000    complex shift for real part using Kramers Kronig
   OMEGAMAX=  -1.0    maximum frequency
   DEG_THRESHOLD= 0.2000000E-02 threshold for treating states as degnerate
   RTIME   =    0.100 relaxation time in fs

 Orbital magnetization related:
   ORBITALMAG=     F  switch on orbital magnetization
   LCHIMAG   =     F  perturbation theory with respect to B field
   DQ        =  0.001000  dq finite difference perturbation B field



--------------------------------------------------------------------------------------------------------


 Static calculation
 charge density and potential will be updated during run
 non-spin polarized calculation
 Variant of blocked Davidson
 Davidson routine will perform the subspace rotation
 perform sub-space diagonalisation
    after iterative eigenvector-optimisation
 modified Broyden-mixing scheme, WC =      100.0
 initial mixing is a Kerker type mixing with AMIX =  0.4000 and BMIX =      1.0000
 Hartree-type preconditioning will be used
 using additional bands            7
 reciprocal scheme for non local part
 calculate Harris-corrections to forces 
   (improved forces if not selfconsistent)
 use gradient corrections 
 use of overlap-Matrix (Vanderbilt PP)
 Gauss-broadening in eV      SIGMA  =   0.01


--------------------------------------------------------------------------------------------------------


  energy-cutoff  :     1000.00
  volume of cell :    42875.00
      direct lattice vectors                 reciprocal lattice vectors
    35.000000000  0.000000000  0.000000000     0.028571429  0.000000000  0.000000000
     0.000000000 35.000000000  0.000000000     0.000000000  0.028571429  0.000000000
     0.000000000  0.000000000 35.000000000     0.000000000  0.000000000  0.028571429

  length of vectors
    35.000000000 35.000000000 35.000000000     0.028571429  0.028571429  0.028571429


 
 k-points in units of 2pi/SCALE and weight: automatic mesh                          
   0.00000000  0.00000000  0.00000000       1.000
 
 k-points in reciprocal lattice and weights: automatic mesh                          
   0.00000000  0.00000000  0.00000000       1.000
 
 position of ions in fractional coordinates (direct lattice) 
   0.02170712  0.02946500  0.01067921
   0.03618908  0.99236108  0.01203637
   0.01129487  0.96125740  0.01214015
   0.97193698  0.96723845  0.01089344
   0.95744725  0.00431857  0.00964492
   0.98232071  0.03543803  0.00953954
   0.04100046  0.05359041  0.01070585
   0.06671188  0.98773771  0.01312664
   0.02253320  0.93250021  0.01322959
   0.95263839  0.94311028  0.01100346
   0.92691580  0.00896430  0.00879197
   0.97109253  0.06420305  0.00869626
 
 position of ions in cartesian coordinates  (Angst):
   0.75974918  1.03127506  0.37377239
   1.26661779 34.73263766  0.42127308
   0.39532054 33.64400884  0.42490511
  34.01779436 33.85334559  0.38127024
  33.51065388  0.15114979  0.33757234
  34.38122484  1.24033121  0.33388373
   1.43501626  1.87566427  0.37470462
   2.33491597 34.57081981  0.45943234
   0.78866193 32.63750741  0.46303549
  33.34234368 33.00885981  0.38512100
  32.44205296  0.31375049  0.30771900
  33.98823838  2.24710690  0.30436921
 


--------------------------------------------------------------------------------------------------------


 use parallel FFT for wavefunctions z direction half grid
 k-point  1 :   0.0000 0.0000 0.0000  plane waves: 1539209

 maximum and minimum number of plane-waves per node :    192406   192397

 maximum number of plane-waves:   1539209
 maximum index in each direction: 
   IXMAX=   90   IYMAX=   90   IZMAX=   90
   IXMIN=  -90   IYMIN=  -90   IZMIN=    0

 NGX is ok and might be reduce to 362
 NGY is ok and might be reduce to 362
 NGZ is ok and might be reduce to 362

 parallel 3D FFT for wavefunctions:
    minimum data exchange during FFTs selected (reduces bandwidth)
 parallel 3D FFT for charge:
    minimum data exchange during FFTs selected (reduces bandwidth)


 total amount of memory used by VASP on root node  5444910. kBytes
========================================================================

   base      :      30000. kBytes
   nonl-proj :      61569. kBytes
   fftplans  :    1964666. kBytes
   grid      :    3320944. kBytes
   one-center:          3. kBytes
   wavefun   :      67728. kBytes
 
     INWAV:  cpu time    0.0001: real time    0.0003
 Broyden mixing: mesh for mixing (old mesh)
   NGX =181   NGY =181   NGZ =181
  (NGX  =756   NGY  =756   NGZ  =756)
  gives a total of ****** points

 initial charge density was supplied:
 charge density of overlapping atoms calculated
 number of electron      30.0000000 magnetization 
 keeping initial charge density in first step


--------------------------------------------------------------------------------------------------------


 Maximum index for augmentation-charges         3603 (set IRDMAX)


--------------------------------------------------------------------------------------------------------


 First call to EWALD:  gamma=   0.051
 Maximum number of real-space cells 3x 3x 3
 Maximum number of reciprocal cells 3x 3x 3

 FEWALD executed in parallel
    FEWALD:  cpu time    0.0060: real time    0.0061


----------------------------------------- Iteration    1(   1)  ---------------------------------------


    POTLOK:  cpu time   30.0412: real time   30.1142
    SETDIJ:  cpu time    0.3687: real time    0.3697
     EDDAV:  cpu time   17.1266: real time   17.1684
       DOS:  cpu time    0.0001: real time    0.0001
    --------------------------------------------
      LOOP:  cpu time   47.5380: real time   47.6555

 eigenvalue-minimisations  :    44
 total energy-change (2. order) : 0.3797989E+03  (-0.3798454E+03)
 number of electron      30.0000000 magnetization 
 augmentation part       30.0000000 magnetization 

 Free energy of the ion-electron system (eV)
  ---------------------------------------------------
  alpha Z        PSCENC =         0.06064420
  Ewald energy   TEWEN  =      2285.86051661
  -Hartree energ DENC   =     -2898.18537719
  -exchange      EXHF   =         0.00000000
  -V(xc)+E(xc)   XCENC  =        95.15199187
  PAW double counting   =       668.84887174     -673.42566271
  entropy T*S    EENTRO =        -0.00000000
  eigenvalues    EBANDS =       -56.37700573
  atomic energy  EATOM  =       957.86496585
  Solvation  Ediel_sol  =         0.00000000
  ---------------------------------------------------
  free energy    TOTEN  =       379.79894465 eV

  energy without entropy =      379.79894465  energy(sigma->0) =      379.79894465


--------------------------------------------------------------------------------------------------------




----------------------------------------- Iteration    1(   2)  ---------------------------------------


     EDDAV:  cpu time   23.3085: real time   23.3652
       DOS:  cpu time    0.0000: real time    0.0000
    --------------------------------------------
      LOOP:  cpu time   23.3186: real time   23.3780

 eigenvalue-minimisations  :    68
 total energy-change (2. order) :-0.2176450E+03  (-0.2158442E+03)
 number of electron      30.0000000 magnetization 
 augmentation part       30.0000000 magnetization 

 Free energy of the ion-electron system (eV)
  ---------------------------------------------------
  alpha Z        PSCENC =         0.06064420
  Ewald energy   TEWEN  =      2285.86051661
  -Hartree energ DENC   =     -2898.18537719
  -exchange      EXHF   =         0.00000000
  -V(xc)+E(xc)   XCENC  =        95.15199187
  PAW double counting   =       668.84887174     -673.42566271
  entropy T*S    EENTRO =        -0.00000000
  eigenvalues    EBANDS =      -274.02203515
  atomic energy  EATOM  =       957.86496585
  Solvation  Ediel_sol  =         0.00000000
  ---------------------------------------------------
  free energy    TOTEN  =       162.15391522 eV

  energy without entropy =      162.15391522  energy(sigma->0) =      162.15391522


--------------------------------------------------------------------------------------------------------




----------------------------------------- Iteration    1(   3)  ---------------------------------------


     EDDAV:  cpu time   24.4094: real time   24.4687
       DOS:  cpu time    0.0000: real time    0.0000
    --------------------------------------------
      LOOP:  cpu time   24.4173: real time   24.4796

 eigenvalue-minimisations  :    72
 total energy-change (2. order) :-0.1927269E+03  (-0.1914391E+03)
 number of electron      30.0000000 magnetization 
 augmentation part       30.0000000 magnetization 

 Free energy of the ion-electron system (eV)
  ---------------------------------------------------
  alpha Z        PSCENC =         0.06064420
  Ewald energy   TEWEN  =      2285.86051661
  -Hartree energ DENC   =     -2898.18537719
  -exchange      EXHF   =         0.00000000
  -V(xc)+E(xc)   XCENC  =        95.15199187
  PAW double counting   =       668.84887174     -673.42566271
  entropy T*S    EENTRO =        -0.00000000
  eigenvalues    EBANDS =      -466.74890375
  atomic energy  EATOM  =       957.86496585
  Solvation  Ediel_sol  =         0.00000000
  ---------------------------------------------------
  free energy    TOTEN  =       -30.57295338 eV

  energy without entropy =      -30.57295338  energy(sigma->0) =      -30.57295338


--------------------------------------------------------------------------------------------------------




----------------------------------------- Iteration    1(   4)  ---------------------------------------


     EDDAV:  cpu time   20.0729: real time   20.1217
       DOS:  cpu time    0.0000: real time    0.0000
    --------------------------------------------
      LOOP:  cpu time   20.0810: real time   20.1324

 eigenvalue-minimisations  :    56
 total energy-change (2. order) :-0.5079678E+02  (-0.5077949E+02)
 number of electron      30.0000000 magnetization 
 augmentation part       30.0000000 magnetization 

 Free energy of the ion-electron system (eV)
  ---------------------------------------------------
  alpha Z        PSCENC =         0.06064420
  Ewald energy   TEWEN  =      2285.86051661
  -Hartree energ DENC   =     -2898.18537719
  -exchange      EXHF   =         0.00000000
  -V(xc)+E(xc)   XCENC  =        95.15199187
  PAW double counting   =       668.84887174     -673.42566271
  entropy T*S    EENTRO =        -0.00000000
  eigenvalues    EBANDS =      -517.54568615
  atomic energy  EATOM  =       957.86496585
  Solvation  Ediel_sol  =         0.00000000
  ---------------------------------------------------
  free energy    TOTEN  =       -81.36973578 eV

  energy without entropy =      -81.36973578  energy(sigma->0) =      -81.36973578


--------------------------------------------------------------------------------------------------------




----------------------------------------- Iteration    1(   5)  ---------------------------------------


     EDDAV:  cpu time   24.2594: real time   24.3184
       DOS:  cpu time    0.0000: real time    0.0000
    CHARGE:  cpu time    3.7463: real time    3.7555
    MIXING:  cpu time    0.7426: real time    0.7445
    --------------------------------------------
      LOOP:  cpu time   28.7564: real time   28.8291

 eigenvalue-minimisations  :    72
 total energy-change (2. order) :-0.3032711E+01  (-0.3031791E+01)
 number of electron      30.0000000 magnetization 
 augmentation part        1.5631231 magnetization 

 Broyden mixing:
  rms(total) = 0.30156E+01    rms(broyden)= 0.30156E+01
  rms(prec ) = 0.30380E+01
  weight for this iteration     100.00

 Free energy of the ion-electron system (eV)
  ---------------------------------------------------
  alpha Z        PSCENC =         0.06064420
  Ewald energy   TEWEN  =      2285.86051661
  -Hartree energ DENC   =     -2898.18537719
  -exchange      EXHF   =         0.00000000
  -V(xc)+E(xc)   XCENC  =        95.15199187
  PAW double counting   =       668.84887174     -673.42566271
  entropy T*S    EENTRO =        -0.00000000
  eigenvalues    EBANDS =      -520.57839699
  atomic energy  EATOM  =       957.86496585
  Solvation  Ediel_sol  =         0.00000000
  ---------------------------------------------------
  free energy    TOTEN  =       -84.40244661 eV

  energy without entropy =      -84.40244661  energy(sigma->0) =      -84.40244661


--------------------------------------------------------------------------------------------------------




----------------------------------------- Iteration    1(   6)  ---------------------------------------


    POTLOK:  cpu time   29.5303: real time   29.6021
    SETDIJ:  cpu time    0.3668: real time    0.3677
     EDDAV:  cpu time   26.5310: real time   26.5956
       DOS:  cpu time    0.0000: real time    0.0000
    CHARGE:  cpu time    3.6772: real time    3.6862
    MIXING:  cpu time    0.7653: real time    0.7672
    --------------------------------------------
      LOOP:  cpu time   60.8722: real time   61.0228

 eigenvalue-minimisations  :    80
 total energy-change (2. order) : 0.6393861E+01  (-0.8559581E+00)
 number of electron      30.0000000 magnetization 
 augmentation part        1.3889121 magnetization 

 Broyden mixing:
  rms(total) = 0.22624E+01    rms(broyden)= 0.22624E+01
  rms(prec ) = 0.22698E+01
  weight for this iteration     100.00

 eigenvalues of (default mixing * dielectric matrix)
  average eigenvalue GAMMA=   2.7399
  2.7399

 Free energy of the ion-electron system (eV)
  ---------------------------------------------------
  alpha Z        PSCENC =         0.06064420
  Ewald energy   TEWEN  =      2285.86051661
  -Hartree energ DENC   =     -2961.55379937
  -exchange      EXHF   =         0.00000000
  -V(xc)+E(xc)   XCENC  =        98.07558194
  PAW double counting   =      2411.91370226    -2417.36345571
  entropy T*S    EENTRO =        -0.00000000
  eigenvalues    EBANDS =      -452.86674106
  atomic energy  EATOM  =       957.86496585
  Solvation  Ediel_sol  =         0.00000000
  ---------------------------------------------------
  free energy    TOTEN  =       -78.00858528 eV

  energy without entropy =      -78.00858528  energy(sigma->0) =      -78.00858528


--------------------------------------------------------------------------------------------------------




----------------------------------------- Iteration    1(   7)  ---------------------------------------


    POTLOK:  cpu time   29.5575: real time   29.6292
    SETDIJ:  cpu time    0.3667: real time    0.3676
     EDDAV:  cpu time   24.4101: real time   24.4693
       DOS:  cpu time    0.0000: real time    0.0000
    CHARGE:  cpu time    3.6748: real time    3.6838
    MIXING:  cpu time    0.7782: real time    0.7801
    --------------------------------------------
      LOOP:  cpu time   58.7890: real time   58.9340

 eigenvalue-minimisations  :    72
 total energy-change (2. order) : 0.1719655E+01  (-0.1383484E+01)
 number of electron      30.0000000 magnetization 
 augmentation part        1.1944846 magnetization 

 Broyden mixing:
  rms(total) = 0.58094E+00    rms(broyden)= 0.58094E+00
  rms(prec ) = 0.58796E+00
  weight for this iteration     100.00

 eigenvalues of (default mixing * dielectric matrix)
  average eigenvalue GAMMA=   2.0439
  1.6538  2.4341

 Free energy of the ion-electron system (eV)
  ---------------------------------------------------
  alpha Z        PSCENC =         0.06064420
  Ewald energy   TEWEN  =      2285.86051661
  -Hartree energ DENC   =     -3051.77634453
  -exchange      EXHF   =         0.00000000
  -V(xc)+E(xc)   XCENC  =       102.77883748
  PAW double counting   =      9263.65584560    -9270.58597991
  entropy T*S    EENTRO =        -0.00000000
  eigenvalues    EBANDS =      -364.14741520
  atomic energy  EATOM  =       957.86496585
  Solvation  Ediel_sol  =         0.00000000
  ---------------------------------------------------
  free energy    TOTEN  =       -76.28892990 eV

  energy without entropy =      -76.28892990  energy(sigma->0) =      -76.28892990


--------------------------------------------------------------------------------------------------------




----------------------------------------- Iteration    1(   8)  ---------------------------------------


    POTLOK:  cpu time   29.6050: real time   29.6770
    SETDIJ:  cpu time    0.3670: real time    0.3679
     EDDAV:  cpu time   24.4345: real time   24.4939
       DOS:  cpu time    0.0000: real time    0.0000
    CHARGE:  cpu time    3.6671: real time    3.6760
    MIXING:  cpu time    0.8172: real time    0.8192
    --------------------------------------------
      LOOP:  cpu time   58.8923: real time   59.0382

 eigenvalue-minimisations  :    72
 total energy-change (2. order) : 0.3658619E+00  (-0.2114579E+00)
 number of electron      30.0000000 magnetization 
 augmentation part        1.2746270 magnetization 

 Broyden mixing:
  rms(total) = 0.13212E+00    rms(broyden)= 0.13212E+00
  rms(prec ) = 0.13429E+00
  weight for this iteration     100.00

 eigenvalues of (default mixing * dielectric matrix)
  average eigenvalue GAMMA=   1.7557
  2.6106  1.3283  1.3283

 Free energy of the ion-electron system (eV)
  ---------------------------------------------------
  alpha Z        PSCENC =         0.06064420
  Ewald energy   TEWEN  =      2285.86051661
  -Hartree energ DENC   =     -3032.86096512
  -exchange      EXHF   =         0.00000000
  -V(xc)+E(xc)   XCENC  =       101.79704461
  PAW double counting   =      9536.63804329    -9543.29043003
  entropy T*S    EENTRO =        -0.00000000
  eigenvalues    EBANDS =      -381.99288746
  atomic energy  EATOM  =       957.86496585
  Solvation  Ediel_sol  =         0.00000000
  ---------------------------------------------------
  free energy    TOTEN  =       -75.92306805 eV

  energy without entropy =      -75.92306805  energy(sigma->0) =      -75.92306805


--------------------------------------------------------------------------------------------------------




----------------------------------------- Iteration    1(   9)  ---------------------------------------


    POTLOK:  cpu time   29.6409: real time   29.7128
    SETDIJ:  cpu time    0.3670: real time    0.3679
     EDDAV:  cpu time   24.4570: real time   24.5164
       DOS:  cpu time    0.0000: real time    0.0000
    CHARGE:  cpu time    3.6755: real time    3.6844
    MIXING:  cpu time    0.8299: real time    0.8319
    --------------------------------------------
      LOOP:  cpu time   58.9719: real time   59.1174

 eigenvalue-minimisations  :    72
 total energy-change (2. order) : 0.1105967E-01  (-0.6388765E-02)
 number of electron      30.0000000 magnetization 
 augmentation part        1.2661616 magnetization 

 Broyden mixing:
  rms(total) = 0.53650E-01    rms(broyden)= 0.53650E-01
  rms(prec ) = 0.56873E-01
  weight for this iteration     100.00

 eigenvalues of (default mixing * dielectric matrix)
  average eigenvalue GAMMA=   1.5557
  2.1756  1.8353  1.1060  1.1060

 Free energy of the ion-electron system (eV)
  ---------------------------------------------------
  alpha Z        PSCENC =         0.06064420
  Ewald energy   TEWEN  =      2285.86051661
  -Hartree energ DENC   =     -3038.29780787
  -exchange      EXHF   =         0.00000000
  -V(xc)+E(xc)   XCENC  =       101.96928881
  PAW double counting   =      9682.42275805    -9689.11324123
  entropy T*S    EENTRO =        -0.00000000
  eigenvalues    EBANDS =      -376.67913280
  atomic energy  EATOM  =       957.86496585
  Solvation  Ediel_sol  =         0.00000000
  ---------------------------------------------------
  free energy    TOTEN  =       -75.91200837 eV

  energy without entropy =      -75.91200837  energy(sigma->0) =      -75.91200837


--------------------------------------------------------------------------------------------------------




----------------------------------------- Iteration    1(  10)  ---------------------------------------


    POTLOK:  cpu time   29.6547: real time   29.7267
    SETDIJ:  cpu time    0.3671: real time    0.3680
     EDDAV:  cpu time   24.4452: real time   24.5046
       DOS:  cpu time    0.0000: real time    0.0000
    CHARGE:  cpu time    3.6654: real time    3.6743
    MIXING:  cpu time    0.8656: real time    0.8677
    --------------------------------------------
      LOOP:  cpu time   58.9997: real time   59.1454

 eigenvalue-minimisations  :    72
 total energy-change (2. order) : 0.6802126E-04  (-0.3345399E-03)
 number of electron      30.0000000 magnetization 
 augmentation part        1.2674724 magnetization 

 Broyden mixing:
  rms(total) = 0.20326E-01    rms(broyden)= 0.20326E-01
  rms(prec ) = 0.26256E-01
  weight for this iteration     100.00

 eigenvalues of (default mixing * dielectric matrix)
  average eigenvalue GAMMA=   1.4456
  2.0358  2.0358  1.1985  1.1985  0.7595

 Free energy of the ion-electron system (eV)
  ---------------------------------------------------
  alpha Z        PSCENC =         0.06064420
  Ewald energy   TEWEN  =      2285.86051661
  -Hartree energ DENC   =     -3039.02246475
  -exchange      EXHF   =         0.00000000
  -V(xc)+E(xc)   XCENC  =       101.92305161
  PAW double counting   =      9450.79708703    -9457.45249594
  entropy T*S    EENTRO =        -0.00000000
  eigenvalues    EBANDS =      -375.94324496
  atomic energy  EATOM  =       957.86496585
  Solvation  Ediel_sol  =         0.00000000
  ---------------------------------------------------
  free energy    TOTEN  =       -75.91194035 eV

  energy without entropy =      -75.91194035  energy(sigma->0) =      -75.91194035


--------------------------------------------------------------------------------------------------------




----------------------------------------- Iteration    1(  11)  ---------------------------------------


    POTLOK:  cpu time   29.6561: real time   29.7280
    SETDIJ:  cpu time    0.3670: real time    0.3679
     EDDAV:  cpu time   21.2411: real time   21.2927
       DOS:  cpu time    0.0000: real time    0.0000
    CHARGE:  cpu time    3.6713: real time    3.6802
    MIXING:  cpu time    0.8836: real time    0.8858
    --------------------------------------------
      LOOP:  cpu time   55.8207: real time   55.9587

 eigenvalue-minimisations  :    60
 total energy-change (2. order) : 0.4142435E-02  (-0.2004252E-03)
 number of electron      30.0000000 magnetization 
 augmentation part        1.2664913 magnetization 

 Broyden mixing:
  rms(total) = 0.12976E-01    rms(broyden)= 0.12976E-01
  rms(prec ) = 0.18229E-01
  weight for this iteration     100.00

 eigenvalues of (default mixing * dielectric matrix)
  average eigenvalue GAMMA=   1.7859
  3.3044  2.4924  1.5253  1.2502  1.2502  0.8929

 Free energy of the ion-electron system (eV)
  ---------------------------------------------------
  alpha Z        PSCENC =         0.06064420
  Ewald energy   TEWEN  =      2285.86051661
  -Hartree energ DENC   =     -3042.23429184
  -exchange      EXHF   =         0.00000000
  -V(xc)+E(xc)   XCENC  =       101.99104218
  PAW double counting   =      9439.04857266    -9445.70176168
  entropy T*S    EENTRO =        -0.00000000
  eigenvalues    EBANDS =      -372.79748590
  atomic energy  EATOM  =       957.86496585
  Solvation  Ediel_sol  =         0.00000000
  ---------------------------------------------------
  free energy    TOTEN  =       -75.90779792 eV

  energy without entropy =      -75.90779792  energy(sigma->0) =      -75.90779792


--------------------------------------------------------------------------------------------------------




----------------------------------------- Iteration    1(  12)  ---------------------------------------


    POTLOK:  cpu time   29.6784: real time   29.7504
    SETDIJ:  cpu time    0.3655: real time    0.3663
     EDDAV:  cpu time   17.0111: real time   17.0524
       DOS:  cpu time    0.0000: real time    0.0000
    CHARGE:  cpu time    3.6737: real time    3.6826
    MIXING:  cpu time    0.9059: real time    0.9081
    --------------------------------------------
      LOOP:  cpu time   51.6362: real time   51.7769

 eigenvalue-minimisations  :    44
 total energy-change (2. order) : 0.6112515E-02  (-0.1038432E-02)
 number of electron      30.0000000 magnetization 
 augmentation part        1.2639286 magnetization 

 Broyden mixing:
  rms(total) = 0.99751E-02    rms(broyden)= 0.99751E-02
  rms(prec ) = 0.11559E-01
  weight for this iteration     100.00

 eigenvalues of (default mixing * dielectric matrix)
  average eigenvalue GAMMA=   1.8301
  4.0209  2.3632  1.4488  1.4488  1.5841  0.9725  0.9725

 Free energy of the ion-electron system (eV)
  ---------------------------------------------------
  alpha Z        PSCENC =         0.06064420
  Ewald energy   TEWEN  =      2285.86051661
  -Hartree energ DENC   =     -3049.03982446
  -exchange      EXHF   =         0.00000000
  -V(xc)+E(xc)   XCENC  =       102.13320655
  PAW double counting   =      9425.84285500    -9432.49652612
  entropy T*S    EENTRO =        -0.00000000
  eigenvalues    EBANDS =      -366.12752304
  atomic energy  EATOM  =       957.86496585
  Solvation  Ediel_sol  =         0.00000000
  ---------------------------------------------------
  free energy    TOTEN  =       -75.90168540 eV

  energy without entropy =      -75.90168540  energy(sigma->0) =      -75.90168540


--------------------------------------------------------------------------------------------------------




----------------------------------------- Iteration    1(  13)  ---------------------------------------


    POTLOK:  cpu time   29.6828: real time   29.7548
    SETDIJ:  cpu time    0.3666: real time    0.3675
     EDDAV:  cpu time   24.4078: real time   24.4672
       DOS:  cpu time    0.0000: real time    0.0000
    CHARGE:  cpu time    3.6868: real time    3.6957
    MIXING:  cpu time    0.9300: real time    0.9323
    --------------------------------------------
      LOOP:  cpu time   59.0755: real time   59.2215

 eigenvalue-minimisations  :    72
 total energy-change (2. order) :-0.4803523E-02  (-0.1087830E-03)
 number of electron      30.0000000 magnetization 
 augmentation part        1.2639232 magnetization 

 Broyden mixing:
  rms(total) = 0.84052E-02    rms(broyden)= 0.84052E-02
  rms(prec ) = 0.92703E-02
  weight for this iteration     100.00

 eigenvalues of (default mixing * dielectric matrix)
  average eigenvalue GAMMA=   1.7825
  4.3196  2.4256  1.6534  1.6534  1.5881  0.9918  0.9918  0.6364

 Free energy of the ion-electron system (eV)
  ---------------------------------------------------
  alpha Z        PSCENC =         0.06064420
  Ewald energy   TEWEN  =      2285.86051661
  -Hartree energ DENC   =     -3050.79777471
  -exchange      EXHF   =         0.00000000
  -V(xc)+E(xc)   XCENC  =       102.15117073
  PAW double counting   =      9445.30339465    -9451.95807501
  entropy T*S    EENTRO =        -0.00000000
  eigenvalues    EBANDS =      -364.39133125
  atomic energy  EATOM  =       957.86496585
  Solvation  Ediel_sol  =         0.00000000
  ---------------------------------------------------
  free energy    TOTEN  =       -75.90648893 eV

  energy without entropy =      -75.90648893  energy(sigma->0) =      -75.90648893


--------------------------------------------------------------------------------------------------------




----------------------------------------- Iteration    1(  14)  ---------------------------------------


    POTLOK:  cpu time   29.7070: real time   29.7791
    SETDIJ:  cpu time    0.3664: real time    0.3673
     EDDAV:  cpu time   24.4278: real time   24.4870
       DOS:  cpu time    0.0000: real time    0.0000
    CHARGE:  cpu time    3.6702: real time    3.6792
    MIXING:  cpu time    0.9650: real time    0.9674
    --------------------------------------------
      LOOP:  cpu time   59.1381: real time   59.2839

 eigenvalue-minimisations  :    72
 total energy-change (2. order) :-0.5963453E-02  (-0.3717641E-04)
 number of electron      30.0000000 magnetization 
 augmentation part        1.2640166 magnetization 

 Broyden mixing:
  rms(total) = 0.62681E-02    rms(broyden)= 0.62681E-02
  rms(prec ) = 0.68559E-02
  weight for this iteration     100.00

 eigenvalues of (default mixing * dielectric matrix)
  average eigenvalue GAMMA=   2.0112
  5.7757  3.0915  2.3586  1.5355  1.2206  1.2206  0.9035  0.9972  0.9972

 Free energy of the ion-electron system (eV)
  ---------------------------------------------------
  alpha Z        PSCENC =         0.06064420
  Ewald energy   TEWEN  =      2285.86051661
  -Hartree energ DENC   =     -3051.43585328
  -exchange      EXHF   =         0.00000000
  -V(xc)+E(xc)   XCENC  =       102.14398176
  PAW double counting   =      9428.37784274    -9435.03083471
  entropy T*S    EENTRO =        -0.00000000
  eigenvalues    EBANDS =      -363.75371556
  atomic energy  EATOM  =       957.86496585
  Solvation  Ediel_sol  =         0.00000000
  ---------------------------------------------------
  free energy    TOTEN  =       -75.91245238 eV

  energy without entropy =      -75.91245238  energy(sigma->0) =      -75.91245238


--------------------------------------------------------------------------------------------------------




----------------------------------------- Iteration    1(  15)  ---------------------------------------


    POTLOK:  cpu time   29.7098: real time   29.7819
    SETDIJ:  cpu time    0.3665: real time    0.3674
     EDDAV:  cpu time   24.3915: real time   24.4507
       DOS:  cpu time    0.0000: real time    0.0000
    CHARGE:  cpu time    3.6714: real time    3.6803
    MIXING:  cpu time    0.9947: real time    0.9971
    --------------------------------------------
      LOOP:  cpu time   59.1356: real time   59.2818

 eigenvalue-minimisations  :    72
 total energy-change (2. order) :-0.7475769E-02  (-0.8124281E-04)
 number of electron      30.0000000 magnetization 
 augmentation part        1.2638977 magnetization 

 Broyden mixing:
  rms(total) = 0.40633E-02    rms(broyden)= 0.40633E-02
  rms(prec ) = 0.43042E-02
  weight for this iteration     100.00

 eigenvalues of (default mixing * dielectric matrix)
  average eigenvalue GAMMA=   2.0163
  6.0814  3.0789  2.4454  1.5937  1.5937  1.5222  1.0298  1.0298  0.8939  0.8939

 Free energy of the ion-electron system (eV)
  ---------------------------------------------------
  alpha Z        PSCENC =         0.06064420
  Ewald energy   TEWEN  =      2285.86051661
  -Hartree energ DENC   =     -3052.27613873
  -exchange      EXHF   =         0.00000000
  -V(xc)+E(xc)   XCENC  =       102.13816521
  PAW double counting   =      9416.14696513    -9422.79936380
  entropy T*S    EENTRO =        -0.00000000
  eigenvalues    EBANDS =      -362.91568262
  atomic energy  EATOM  =       957.86496585
  Solvation  Ediel_sol  =         0.00000000
  ---------------------------------------------------
  free energy    TOTEN  =       -75.91992815 eV

  energy without entropy =      -75.91992815  energy(sigma->0) =      -75.91992815


--------------------------------------------------------------------------------------------------------




----------------------------------------- Iteration    1(  16)  ---------------------------------------


    POTLOK:  cpu time   29.7046: real time   29.7766
    SETDIJ:  cpu time    0.3657: real time    0.3666
     EDDAV:  cpu time   24.2537: real time   24.3126
       DOS:  cpu time    0.0000: real time    0.0000
    CHARGE:  cpu time    3.6738: real time    3.6827
    MIXING:  cpu time    1.0205: real time    1.0230
    --------------------------------------------
      LOOP:  cpu time   59.0199: real time   59.1659

 eigenvalue-minimisations  :    72
 total energy-change (2. order) :-0.3613845E-02  (-0.2793364E-04)
 number of electron      30.0000000 magnetization 
 augmentation part        1.2636715 magnetization 

 Broyden mixing:
  rms(total) = 0.25849E-02    rms(broyden)= 0.25849E-02
  rms(prec ) = 0.27347E-02
  weight for this iteration     100.00

 eigenvalues of (default mixing * dielectric matrix)
  average eigenvalue GAMMA=   2.1941
  7.1751  4.2004  2.4711  2.4711  1.4099  1.4099  1.1011  1.1011  0.8928  0.9511
  0.9511

 Free energy of the ion-electron system (eV)
  ---------------------------------------------------
  alpha Z        PSCENC =         0.06064420
  Ewald energy   TEWEN  =      2285.86051661
  -Hartree energ DENC   =     -3052.50173559
  -exchange      EXHF   =         0.00000000
  -V(xc)+E(xc)   XCENC  =       102.13708152
  PAW double counting   =      9409.70180146    -9416.35396955
  entropy T*S    EENTRO =        -0.00000000
  eigenvalues    EBANDS =      -362.69284648
  atomic energy  EATOM  =       957.86496585
  Solvation  Ediel_sol  =         0.00000000
  ---------------------------------------------------
  free energy    TOTEN  =       -75.92354199 eV

  energy without entropy =      -75.92354199  energy(sigma->0) =      -75.92354199


--------------------------------------------------------------------------------------------------------




----------------------------------------- Iteration    1(  17)  ---------------------------------------


    POTLOK:  cpu time   29.6969: real time   29.7689
    SETDIJ:  cpu time    0.3665: real time    0.3674
     EDDAV:  cpu time   21.2270: real time   21.2786
       DOS:  cpu time    0.0000: real time    0.0000
    CHARGE:  cpu time    3.6616: real time    3.6705
    MIXING:  cpu time    1.0581: real time    1.0607
    --------------------------------------------
      LOOP:  cpu time   56.0118: real time   56.1499

 eigenvalue-minimisations  :    60
 total energy-change (2. order) :-0.2601019E-02  (-0.2680640E-04)
 number of electron      30.0000000 magnetization 
 augmentation part        1.2637478 magnetization 

 Broyden mixing:
  rms(total) = 0.42246E-02    rms(broyden)= 0.42246E-02
  rms(prec ) = 0.42460E-02
  weight for this iteration     100.00

 eigenvalues of (default mixing * dielectric matrix)
  average eigenvalue GAMMA=   2.2228
  7.4744  4.5384  2.5856  2.3874  1.5873  1.5873  1.7003  1.0440  1.0440  0.9442
  0.8907  0.8907

 Free energy of the ion-electron system (eV)
  ---------------------------------------------------
  alpha Z        PSCENC =         0.06064420
  Ewald energy   TEWEN  =      2285.86051661
  -Hartree energ DENC   =     -3052.60605894
  -exchange      EXHF   =         0.00000000
  -V(xc)+E(xc)   XCENC  =       102.13090991
  PAW double counting   =      9404.14721826    -9410.79865467
  entropy T*S    EENTRO =        -0.00000000
  eigenvalues    EBANDS =      -362.58568424
  atomic energy  EATOM  =       957.86496585
  Solvation  Ediel_sol  =         0.00000000
  ---------------------------------------------------
  free energy    TOTEN  =       -75.92614301 eV

  energy without entropy =      -75.92614301  energy(sigma->0) =      -75.92614301


--------------------------------------------------------------------------------------------------------




----------------------------------------- Iteration    1(  18)  ---------------------------------------


    POTLOK:  cpu time   29.6695: real time   29.7415
    SETDIJ:  cpu time    0.3670: real time    0.3679
     EDDAV:  cpu time   24.3208: real time   24.3798
       DOS:  cpu time    0.0000: real time    0.0000
    CHARGE:  cpu time    3.6736: real time    3.6825
    MIXING:  cpu time    1.0838: real time    1.0865
    --------------------------------------------
      LOOP:  cpu time   59.1163: real time   59.2621

 eigenvalue-minimisations  :    72
 total energy-change (2. order) :-0.7497467E-03  (-0.2201871E-05)
 number of electron      30.0000000 magnetization 
 augmentation part        1.2636995 magnetization 

 Broyden mixing:
  rms(total) = 0.86649E-03    rms(broyden)= 0.86649E-03
  rms(prec ) = 0.90725E-03
  weight for this iteration     100.00

 eigenvalues of (default mixing * dielectric matrix)
  average eigenvalue GAMMA=   2.2759
  8.1738  4.8395  2.9316  2.5055  2.0928  1.4729  1.4729  1.1464  1.1464  1.0011
  1.0011  0.9012  0.9012

 Free energy of the ion-electron system (eV)
  ---------------------------------------------------
  alpha Z        PSCENC =         0.06064420
  Ewald energy   TEWEN  =      2285.86051661
  -Hartree energ DENC   =     -3052.70178428
  -exchange      EXHF   =         0.00000000
  -V(xc)+E(xc)   XCENC  =       102.13150672
  PAW double counting   =      9412.38284359    -9419.03528064
  entropy T*S    EENTRO =        -0.00000000
  eigenvalues    EBANDS =      -362.49030481
  atomic energy  EATOM  =       957.86496585
  Solvation  Ediel_sol  =         0.00000000
  ---------------------------------------------------
  free energy    TOTEN  =       -75.92689276 eV

  energy without entropy =      -75.92689276  energy(sigma->0) =      -75.92689276


--------------------------------------------------------------------------------------------------------




----------------------------------------- Iteration    1(  19)  ---------------------------------------


    POTLOK:  cpu time   29.6627: real time   29.7346
    SETDIJ:  cpu time    0.3668: real time    0.3677
     EDDAV:  cpu time   22.8089: real time   22.8643
       DOS:  cpu time    0.0000: real time    0.0000
    CHARGE:  cpu time    3.6680: real time    3.6769
    MIXING:  cpu time    1.1233: real time    1.1261
    --------------------------------------------
      LOOP:  cpu time   57.6313: real time   57.7736

 eigenvalue-minimisations  :    66
 total energy-change (2. order) :-0.5574891E-03  (-0.1890481E-05)
 number of electron      30.0000000 magnetization 
 augmentation part        1.2637603 magnetization 

 Broyden mixing:
  rms(total) = 0.16866E-02    rms(broyden)= 0.16866E-02
  rms(prec ) = 0.16930E-02
  weight for this iteration     100.00

 eigenvalues of (default mixing * dielectric matrix)
  average eigenvalue GAMMA=   2.2695
  8.2027  5.3151  3.1743  2.3226  2.3226  1.5188  1.5188  1.5428  1.1476  0.9951
  0.9951  0.9025  0.9074  0.9074

 Free energy of the ion-electron system (eV)
  ---------------------------------------------------
  alpha Z        PSCENC =         0.06064420
  Ewald energy   TEWEN  =      2285.86051661
  -Hartree energ DENC   =     -3052.71651228
  -exchange      EXHF   =         0.00000000
  -V(xc)+E(xc)   XCENC  =       102.13015874
  PAW double counting   =      9413.68346426    -9420.33574092
  entropy T*S    EENTRO =        -0.00000000
  eigenvalues    EBANDS =      -362.47494671
  atomic energy  EATOM  =       957.86496585
  Solvation  Ediel_sol  =         0.00000000
  ---------------------------------------------------
  free energy    TOTEN  =       -75.92745025 eV

  energy without entropy =      -75.92745025  energy(sigma->0) =      -75.92745025


--------------------------------------------------------------------------------------------------------




----------------------------------------- Iteration    1(  20)  ---------------------------------------


    POTLOK:  cpu time   29.6389: real time   29.7108
    SETDIJ:  cpu time    0.3663: real time    0.3672
     EDDAV:  cpu time   24.3880: real time   24.4472
       DOS:  cpu time    0.0000: real time    0.0000
    CHARGE:  cpu time    3.6621: real time    3.6710
    MIXING:  cpu time    1.1752: real time    1.1781
    --------------------------------------------
      LOOP:  cpu time   59.2322: real time   59.3788

 eigenvalue-minimisations  :    72
 total energy-change (2. order) :-0.1938357E-03  (-0.3228785E-06)
 number of electron      30.0000000 magnetization 
 augmentation part        1.2637235 magnetization 

 Broyden mixing:
  rms(total) = 0.31741E-03    rms(broyden)= 0.31741E-03
  rms(prec ) = 0.33030E-03
  weight for this iteration     100.00

 eigenvalues of (default mixing * dielectric matrix)
  average eigenvalue GAMMA=   2.3155
  8.6037  5.6891  3.5869  2.4991  2.3800  1.7904  1.6009  1.6009  1.1274  1.1274
  1.0048  1.0048  0.9494  0.8837  0.8837

 Free energy of the ion-electron system (eV)
  ---------------------------------------------------
  alpha Z        PSCENC =         0.06064420
  Ewald energy   TEWEN  =      2285.86051661
  -Hartree energ DENC   =     -3052.72818180
  -exchange      EXHF   =         0.00000000
  -V(xc)+E(xc)   XCENC  =       102.13032041
  PAW double counting   =      9411.98281783    -9418.63493124
  entropy T*S    EENTRO =        -0.00000000
  eigenvalues    EBANDS =      -362.46379595
  atomic energy  EATOM  =       957.86496585
  Solvation  Ediel_sol  =         0.00000000
  ---------------------------------------------------
  free energy    TOTEN  =       -75.92764408 eV

  energy without entropy =      -75.92764408  energy(sigma->0) =      -75.92764408


--------------------------------------------------------------------------------------------------------




----------------------------------------- Iteration    1(  21)  ---------------------------------------


    POTLOK:  cpu time   29.6228: real time   29.6947
    SETDIJ:  cpu time    0.3687: real time    0.3696
     EDDAV:  cpu time   22.2940: real time   22.3481
       DOS:  cpu time    0.0000: real time    0.0000
    CHARGE:  cpu time    3.6801: real time    3.6890
    MIXING:  cpu time    1.2078: real time    1.2108
    --------------------------------------------
      LOOP:  cpu time   57.1750: real time   57.3163

 eigenvalue-minimisations  :    64
 total energy-change (2. order) :-0.1366671E-03  (-0.1375137E-06)
 number of electron      30.0000000 magnetization 
 augmentation part        1.2637135 magnetization 

 Broyden mixing:
  rms(total) = 0.37689E-03    rms(broyden)= 0.37689E-03
  rms(prec ) = 0.38033E-03
  weight for this iteration     100.00

 eigenvalues of (default mixing * dielectric matrix)
  average eigenvalue GAMMA=   2.3089
  8.7210  5.9940  3.7814  2.7375  2.4706  1.7836  1.5287  1.5287  1.4490  1.1913
  1.0343  1.0343  0.9454  0.9454  0.8989  0.8989

 Free energy of the ion-electron system (eV)
  ---------------------------------------------------
  alpha Z        PSCENC =         0.06064420
  Ewald energy   TEWEN  =      2285.86051661
  -Hartree energ DENC   =     -3052.73691725
  -exchange      EXHF   =         0.00000000
  -V(xc)+E(xc)   XCENC  =       102.13016054
  PAW double counting   =      9410.82837717    -9417.48037140
  entropy T*S    EENTRO =        -0.00000000
  eigenvalues    EBANDS =      -362.45515647
  atomic energy  EATOM  =       957.86496585
  Solvation  Ediel_sol  =         0.00000000
  ---------------------------------------------------
  free energy    TOTEN  =       -75.92778075 eV

  energy without entropy =      -75.92778075  energy(sigma->0) =      -75.92778075


--------------------------------------------------------------------------------------------------------




----------------------------------------- Iteration    1(  22)  ---------------------------------------


    POTLOK:  cpu time   29.5028: real time   29.5743
    SETDIJ:  cpu time    0.3673: real time    0.3682
     EDDAV:  cpu time   19.1583: real time   19.2048
       DOS:  cpu time    0.0000: real time    0.0000
    CHARGE:  cpu time    3.6596: real time    3.6686
    MIXING:  cpu time    1.2581: real time    1.2611
    --------------------------------------------
      LOOP:  cpu time   53.9476: real time   54.0810

 eigenvalue-minimisations  :    52
 total energy-change (2. order) :-0.5302002E-04  (-0.1782941E-07)
 number of electron      30.0000000 magnetization 
 augmentation part        1.2637234 magnetization 

 Broyden mixing:
  rms(total) = 0.13258E-03    rms(broyden)= 0.13258E-03
  rms(prec ) = 0.13625E-03
  weight for this iteration     100.00

 eigenvalues of (default mixing * dielectric matrix)
  average eigenvalue GAMMA=   2.3070
  8.9587  6.2307  4.2202  2.7170  2.2943  2.2943  1.5671  1.5671  1.6400  0.9681
  0.9681  1.0718  1.0718  1.0099  0.8652  0.8652  0.9087

 Free energy of the ion-electron system (eV)
  ---------------------------------------------------
  alpha Z        PSCENC =         0.06064420
  Ewald energy   TEWEN  =      2285.86051661
  -Hartree energ DENC   =     -3052.74144191
  -exchange      EXHF   =         0.00000000
  -V(xc)+E(xc)   XCENC  =       102.13007739
  PAW double counting   =      9411.19449984    -9417.84655800
  entropy T*S    EENTRO =        -0.00000000
  eigenvalues    EBANDS =      -362.45053776
  atomic energy  EATOM  =       957.86496585
  Solvation  Ediel_sol  =         0.00000000
  ---------------------------------------------------
  free energy    TOTEN  =       -75.92783377 eV

  energy without entropy =      -75.92783377  energy(sigma->0) =      -75.92783377


--------------------------------------------------------------------------------------------------------




----------------------------------------- Iteration    1(  23)  ---------------------------------------


    POTLOK:  cpu time   29.5042: real time   29.5757
    SETDIJ:  cpu time    0.3661: real time    0.3670
     EDDAV:  cpu time   22.3113: real time   22.3654
       DOS:  cpu time    0.0000: real time    0.0000
    CHARGE:  cpu time    3.6619: real time    3.6709
    MIXING:  cpu time    1.3026: real time    1.3058
    --------------------------------------------
      LOOP:  cpu time   57.1477: real time   57.2891

 eigenvalue-minimisations  :    64
 total energy-change (2. order) :-0.2660915E-04  (-0.7312002E-08)
 number of electron      30.0000000 magnetization 
 augmentation part        1.2637206 magnetization 

 Broyden mixing:
  rms(total) = 0.42733E-04    rms(broyden)= 0.42733E-04
  rms(prec ) = 0.47347E-04
  weight for this iteration     100.00

 eigenvalues of (default mixing * dielectric matrix)
  average eigenvalue GAMMA=   2.3562
  9.1826  6.5212  4.6955  3.1694  2.4217  2.4217  1.8728  1.5407  1.5407  1.3345
  1.0637  1.0637  1.0742  0.9213  0.9213  0.9466  0.9466  0.7741

 Free energy of the ion-electron system (eV)
  ---------------------------------------------------
  alpha Z        PSCENC =         0.06064420
  Ewald energy   TEWEN  =      2285.86051661
  -Hartree energ DENC   =     -3052.74514002
  -exchange      EXHF   =         0.00000000
  -V(xc)+E(xc)   XCENC  =       102.13006965
  PAW double counting   =      9411.09628279    -9417.74835849
  entropy T*S    EENTRO =        -0.00000000
  eigenvalues    EBANDS =      -362.44684097
  atomic energy  EATOM  =       957.86496585
  Solvation  Ediel_sol  =         0.00000000
  ---------------------------------------------------
  free energy    TOTEN  =       -75.92786038 eV

  energy without entropy =      -75.92786038  energy(sigma->0) =      -75.92786038


--------------------------------------------------------------------------------------------------------




----------------------------------------- Iteration    1(  24)  ---------------------------------------


    POTLOK:  cpu time   29.4895: real time   29.5612
    SETDIJ:  cpu time    0.3664: real time    0.3673
     EDDAV:  cpu time   19.1399: real time   19.1865
       DOS:  cpu time    0.0000: real time    0.0000
    CHARGE:  cpu time    3.6655: real time    3.6744
    MIXING:  cpu time    1.3441: real time    1.3474
    --------------------------------------------
      LOOP:  cpu time   54.0071: real time   54.1413

 eigenvalue-minimisations  :    52
 total energy-change (2. order) :-0.2135700E-04  (-0.7226566E-08)
 number of electron      30.0000000 magnetization 
 augmentation part        1.2637270 magnetization 

 Broyden mixing:
  rms(total) = 0.90284E-04    rms(broyden)= 0.90284E-04
  rms(prec ) = 0.90939E-04
  weight for this iteration     100.00

 eigenvalues of (default mixing * dielectric matrix)
  average eigenvalue GAMMA=   2.3594
  9.2705  6.7376  4.9421  3.3976  2.4945  2.4945  2.0556  1.5799  1.5799  1.6276
  1.1323  0.9875  0.9875  1.0579  1.0579  0.9268  0.8903  0.8903  0.7178

 Free energy of the ion-electron system (eV)
  ---------------------------------------------------
  alpha Z        PSCENC =         0.06064420
  Ewald energy   TEWEN  =      2285.86051661
  -Hartree energ DENC   =     -3052.74652559
  -exchange      EXHF   =         0.00000000
  -V(xc)+E(xc)   XCENC  =       102.13001034
  PAW double counting   =      9411.21058702    -9417.86268205
  entropy T*S    EENTRO =        -0.00000000
  eigenvalues    EBANDS =      -362.44539812
  atomic energy  EATOM  =       957.86496585
  Solvation  Ediel_sol  =         0.00000000
  ---------------------------------------------------
  free energy    TOTEN  =       -75.92788174 eV

  energy without entropy =      -75.92788174  energy(sigma->0) =      -75.92788174


--------------------------------------------------------------------------------------------------------




----------------------------------------- Iteration    1(  25)  ---------------------------------------


    POTLOK:  cpu time   29.4970: real time   29.5685
    SETDIJ:  cpu time    0.3662: real time    0.3671
     EDDAV:  cpu time   22.2747: real time   22.3288
       DOS:  cpu time    0.0000: real time    0.0000
    CHARGE:  cpu time    3.6713: real time    3.6802
    MIXING:  cpu time    1.3903: real time    1.3937
    --------------------------------------------
      LOOP:  cpu time   57.2011: real time   57.3428

 eigenvalue-minimisations  :    64
 total energy-change (2. order) :-0.7481511E-05  (-0.1434756E-08)
 number of electron      30.0000000 magnetization 
 augmentation part        1.2637227 magnetization 

 Broyden mixing:
  rms(total) = 0.31634E-04    rms(broyden)= 0.31634E-04
  rms(prec ) = 0.32234E-04
  weight for this iteration     100.00

 eigenvalues of (default mixing * dielectric matrix)
  average eigenvalue GAMMA=   2.3843
  9.2833  7.0970  5.2175  3.9067  2.7161  2.3197  2.3197  1.8587  1.5785  1.5785
  1.2629  1.0428  1.0428  1.0550  0.9996  0.9996  0.9080  0.9080  0.8839  0.7068

 Free energy of the ion-electron system (eV)
  ---------------------------------------------------
  alpha Z        PSCENC =         0.06064420
  Ewald energy   TEWEN  =      2285.86051661
  -Hartree energ DENC   =     -3052.74740338
  -exchange      EXHF   =         0.00000000
  -V(xc)+E(xc)   XCENC  =       102.13002527
  PAW double counting   =      9411.07130976    -9417.72338520
  entropy T*S    EENTRO =        -0.00000000
  eigenvalues    EBANDS =      -362.44456233
  atomic energy  EATOM  =       957.86496585
  Solvation  Ediel_sol  =         0.00000000
  ---------------------------------------------------
  free energy    TOTEN  =       -75.92788922 eV

  energy without entropy =      -75.92788922  energy(sigma->0) =      -75.92788922


--------------------------------------------------------------------------------------------------------




----------------------------------------- Iteration    1(  26)  ---------------------------------------


    POTLOK:  cpu time   29.5174: real time   29.5891
    SETDIJ:  cpu time    0.3670: real time    0.3678
     EDDAV:  cpu time   17.0404: real time   17.0819
       DOS:  cpu time    0.0000: real time    0.0000
    CHARGE:  cpu time    3.6666: real time    3.6756
    MIXING:  cpu time    1.4381: real time    1.4416
    --------------------------------------------
      LOOP:  cpu time   52.0311: real time   52.1605

 eigenvalue-minimisations  :    44
 total energy-change (2. order) :-0.4074749E-05  (-0.1072259E-08)
 number of electron      30.0000000 magnetization 
 augmentation part        1.2637222 magnetization 

 Broyden mixing:
  rms(total) = 0.45644E-04    rms(broyden)= 0.45644E-04
  rms(prec ) = 0.45783E-04
  weight for this iteration     100.00

 eigenvalues of (default mixing * dielectric matrix)
  average eigenvalue GAMMA=   2.3846
  9.3322  7.2417  5.4189  4.0220  2.9114  2.3975  2.3975  1.9099  1.5653  1.5653
  1.5455  1.2008  1.2008  1.0000  1.0000  0.9766  0.9766  0.9407  0.8877  0.8877
  0.6981

 Free energy of the ion-electron system (eV)
  ---------------------------------------------------
  alpha Z        PSCENC =         0.06064420
  Ewald energy   TEWEN  =      2285.86051661
  -Hartree energ DENC   =     -3052.74773879
  -exchange      EXHF   =         0.00000000
  -V(xc)+E(xc)   XCENC  =       102.13002885
  PAW double counting   =      9411.09612011    -9417.74818968
  entropy T*S    EENTRO =        -0.00000000
  eigenvalues    EBANDS =      -362.44424045
  atomic energy  EATOM  =       957.86496585
  Solvation  Ediel_sol  =         0.00000000
  ---------------------------------------------------
  free energy    TOTEN  =       -75.92789329 eV

  energy without entropy =      -75.92789329  energy(sigma->0) =      -75.92789329


--------------------------------------------------------------------------------------------------------




----------------------------------------- Iteration    1(  27)  ---------------------------------------


    POTLOK:  cpu time   29.5758: real time   29.6477
    SETDIJ:  cpu time    0.3654: real time    0.3662
     EDDAV:  cpu time   22.3163: real time   22.3706
       DOS:  cpu time    0.0000: real time    0.0000
    CHARGE:  cpu time    3.6682: real time    3.6771
    MIXING:  cpu time    1.4921: real time    1.4957
    --------------------------------------------
      LOOP:  cpu time   57.4194: real time   57.5619

 eigenvalue-minimisations  :    64
 total energy-change (2. order) :-0.1836646E-05  (-0.5587832E-09)
 number of electron      30.0000000 magnetization 
 augmentation part        1.2637220 magnetization 

 Broyden mixing:
  rms(total) = 0.53713E-05    rms(broyden)= 0.53713E-05
  rms(prec ) = 0.57546E-05
  weight for this iteration     100.00

 eigenvalues of (default mixing * dielectric matrix)
  average eigenvalue GAMMA=   2.3881
  9.4645  7.3548  5.7688  4.2292  3.2041  2.6362  2.2022  2.2022  1.5971  1.5971
  1.7274  1.2286  1.0249  1.0249  1.0731  1.0731  0.8955  0.8955  0.8943  0.8943
  0.8593  0.6908

 Free energy of the ion-electron system (eV)
  ---------------------------------------------------
  alpha Z        PSCENC =         0.06064420
  Ewald energy   TEWEN  =      2285.86051661
  -Hartree energ DENC   =     -3052.74821152
  -exchange      EXHF   =         0.00000000
  -V(xc)+E(xc)   XCENC  =       102.13003334
  PAW double counting   =      9411.16494431    -9417.81701929
  entropy T*S    EENTRO =        -0.00000000
  eigenvalues    EBANDS =      -362.44376863
  atomic energy  EATOM  =       957.86496585
  Solvation  Ediel_sol  =         0.00000000
  ---------------------------------------------------
  free energy    TOTEN  =       -75.92789513 eV

  energy without entropy =      -75.92789513  energy(sigma->0) =      -75.92789513


--------------------------------------------------------------------------------------------------------




----------------------------------------- Iteration    1(  28)  ---------------------------------------


    POTLOK:  cpu time   29.5692: real time   29.6409
    SETDIJ:  cpu time    0.3659: real time    0.3668
     EDDAV:  cpu time   19.1699: real time   19.2165
       DOS:  cpu time    0.0000: real time    0.0000
    CHARGE:  cpu time    3.6609: real time    3.6698
    MIXING:  cpu time    1.5420: real time    1.5458
    --------------------------------------------
      LOOP:  cpu time   54.3094: real time   54.4440

 eigenvalue-minimisations  :    52
 total energy-change (2. order) :-0.7468698E-06  (-0.4601795E-09)
 number of electron      30.0000000 magnetization 
 augmentation part        1.2637226 magnetization 

 Broyden mixing:
  rms(total) = 0.19585E-04    rms(broyden)= 0.19585E-04
  rms(prec ) = 0.19627E-04
  weight for this iteration     100.00

 eigenvalues of (default mixing * dielectric matrix)
  average eigenvalue GAMMA=   2.3910
  9.4615  7.5867  5.8721  4.4810  3.2873  2.4784  2.4784  2.0757  2.0491  1.5703
  1.5703  1.3855  1.3855  0.9949  0.9949  1.0489  1.0489  0.9797  0.9797  0.8862
  0.8862  0.8007  0.6903

 Free energy of the ion-electron system (eV)
  ---------------------------------------------------
  alpha Z        PSCENC =         0.06064420
  Ewald energy   TEWEN  =      2285.86051661
  -Hartree energ DENC   =     -3052.74825114
  -exchange      EXHF   =         0.00000000
  -V(xc)+E(xc)   XCENC  =       102.13002847
  PAW double counting   =      9411.18253933    -9417.83461573
  entropy T*S    EENTRO =        -0.00000000
  eigenvalues    EBANDS =      -362.44372346
  atomic energy  EATOM  =       957.86496585
  Solvation  Ediel_sol  =         0.00000000
  ---------------------------------------------------
  free energy    TOTEN  =       -75.92789588 eV

  energy without entropy =      -75.92789588  energy(sigma->0) =      -75.92789588


--------------------------------------------------------------------------------------------------------




----------------------------------------- Iteration    1(  29)  ---------------------------------------


    POTLOK:  cpu time   29.5243: real time   29.5959
    SETDIJ:  cpu time    0.3656: real time    0.3665
     EDDAV:  cpu time   12.8716: real time   12.9029
       DOS:  cpu time    0.0000: real time    0.0000
    CHARGE:  cpu time    3.6653: real time    3.6742
    MIXING:  cpu time    1.5959: real time    1.5998
    --------------------------------------------
      LOOP:  cpu time   48.0243: real time   48.1442

 eigenvalue-minimisations  :    28
 total energy-change (2. order) :-0.4314425E-06  (-0.3586216E-09)
 number of electron      30.0000000 magnetization 
 augmentation part        1.2637225 magnetization 

 Broyden mixing:
  rms(total) = 0.59244E-05    rms(broyden)= 0.59244E-05
  rms(prec ) = 0.59699E-05
  weight for this iteration     100.00

 eigenvalues of (default mixing * dielectric matrix)
  average eigenvalue GAMMA=   2.3562
  9.4917  7.6532  5.9466  4.5960  3.3912  2.4676  2.4676  2.0119  2.0119  1.5882
  1.5882  1.5727  1.5727  1.1128  1.1128  0.9997  0.9997  0.9349  0.9276  0.9276
  0.8842  0.8842  0.7319  0.6748

 Free energy of the ion-electron system (eV)
  ---------------------------------------------------
  alpha Z        PSCENC =         0.06064420
  Ewald energy   TEWEN  =      2285.86051661
  -Hartree energ DENC   =     -3052.74820061
  -exchange      EXHF   =         0.00000000
  -V(xc)+E(xc)   XCENC  =       102.13002894
  PAW double counting   =      9411.15847879    -9417.81055491
  entropy T*S    EENTRO =        -0.00000000
  eigenvalues    EBANDS =      -362.44377517
  atomic energy  EATOM  =       957.86496585
  Solvation  Ediel_sol  =         0.00000000
  ---------------------------------------------------
  free energy    TOTEN  =       -75.92789631 eV

  energy without entropy =      -75.92789631  energy(sigma->0) =      -75.92789631


--------------------------------------------------------------------------------------------------------




----------------------------------------- Iteration    1(  30)  ---------------------------------------


    POTLOK:  cpu time   29.4640: real time   29.5355
    SETDIJ:  cpu time    0.3659: real time    0.3668
     EDDAV:  cpu time   20.2242: real time   20.2733
       DOS:  cpu time    0.0000: real time    0.0000
    CHARGE:  cpu time    3.6641: real time    3.6731
    MIXING:  cpu time    1.6525: real time    1.6566
    --------------------------------------------
      LOOP:  cpu time   55.3725: real time   55.5097

 eigenvalue-minimisations  :    56
 total energy-change (2. order) :-0.1404824E-06  (-0.3241034E-09)
 number of electron      30.0000000 magnetization 
 augmentation part        1.2637225 magnetization 

 Broyden mixing:
  rms(total) = 0.19634E-05    rms(broyden)= 0.19634E-05
  rms(prec ) = 0.20324E-05
  weight for this iteration     100.00

 eigenvalues of (default mixing * dielectric matrix)
  average eigenvalue GAMMA=   2.3683
  9.5301  7.8639  6.1368  4.9334  3.6007  2.7075  2.4836  2.4836  2.0428  1.5869
  1.5869  1.7239  1.3009  1.1161  1.1161  1.0050  1.0050  0.9553  0.9553  1.0280
  0.9610  0.8718  0.8718  0.6978  0.6435

 Free energy of the ion-electron system (eV)
  ---------------------------------------------------
  alpha Z        PSCENC =         0.06064420
  Ewald energy   TEWEN  =      2285.86051661
  -Hartree energ DENC   =     -3052.74818327
  -exchange      EXHF   =         0.00000000
  -V(xc)+E(xc)   XCENC  =       102.13002835
  PAW double counting   =      9411.14575202    -9417.79782724
  entropy T*S    EENTRO =        -0.00000000
  eigenvalues    EBANDS =      -362.44379297
  atomic energy  EATOM  =       957.86496585
  Solvation  Ediel_sol  =         0.00000000
  ---------------------------------------------------
  free energy    TOTEN  =       -75.92789645 eV

  energy without entropy =      -75.92789645  energy(sigma->0) =      -75.92789645


--------------------------------------------------------------------------------------------------------




----------------------------------------- Iteration    1(  31)  ---------------------------------------


    POTLOK:  cpu time   29.4711: real time   29.5426
    SETDIJ:  cpu time    0.3667: real time    0.3676
     EDDAV:  cpu time   12.7645: real time   12.7955
       DOS:  cpu time    0.0000: real time    0.0000
    CHARGE:  cpu time    3.6640: real time    3.6729
    MIXING:  cpu time    1.7072: real time    1.7114
    --------------------------------------------
      LOOP:  cpu time   47.9752: real time   48.0944

 eigenvalue-minimisations  :    28
 total energy-change (2. order) :-0.1476619E-06  (-0.2298339E-09)
 number of electron      30.0000000 magnetization 
 augmentation part        1.2637226 magnetization 

 Broyden mixing:
  rms(total) = 0.39229E-05    rms(broyden)= 0.39229E-05
  rms(prec ) = 0.39369E-05
  weight for this iteration     100.00

 eigenvalues of (default mixing * dielectric matrix)
  average eigenvalue GAMMA=   2.3495
  9.5225  7.9886  6.1705  5.1221  3.6165  3.1838  2.3991  2.3991  2.2255  1.7849
  1.5816  1.5816  1.1442  1.1442  1.1625  1.1625  1.0220  1.0220  1.0282  0.9276
  0.9276  0.8906  0.8906  0.8833  0.6986  0.6082

 Free energy of the ion-electron system (eV)
  ---------------------------------------------------
  alpha Z        PSCENC =         0.06064420
  Ewald energy   TEWEN  =      2285.86051661
  -Hartree energ DENC   =     -3052.74812248
  -exchange      EXHF   =         0.00000000
  -V(xc)+E(xc)   XCENC  =       102.13002562
  PAW double counting   =      9411.13853837    -9417.79061343
  entropy T*S    EENTRO =        -0.00000000
  eigenvalues    EBANDS =      -362.44385134
  atomic energy  EATOM  =       957.86496585
  Solvation  Ediel_sol  =         0.00000000
  ---------------------------------------------------
  free energy    TOTEN  =       -75.92789660 eV

  energy without entropy =      -75.92789660  energy(sigma->0) =      -75.92789660


--------------------------------------------------------------------------------------------------------




----------------------------------------- Iteration    1(  32)  ---------------------------------------


    POTLOK:  cpu time   29.5057: real time   29.5774
    SETDIJ:  cpu time    0.3659: real time    0.3668
     EDDAV:  cpu time   15.9259: real time   15.9647
       DOS:  cpu time    0.0000: real time    0.0000
    --------------------------------------------
      LOOP:  cpu time   45.7990: real time   45.9131

 eigenvalue-minimisations  :    40
 total energy-change (2. order) :-0.7069866E-07  (-0.1359712E-09)
 number of electron      30.0000000 magnetization 
 augmentation part        1.2637226 magnetization 

 Free energy of the ion-electron system (eV)
  ---------------------------------------------------
  alpha Z        PSCENC =         0.06064420
  Ewald energy   TEWEN  =      2285.86051661
  -Hartree energ DENC   =     -3052.74811557
  -exchange      EXHF   =         0.00000000
  -V(xc)+E(xc)   XCENC  =       102.13002464
  PAW double counting   =      9411.13704384    -9417.78911882
  entropy T*S    EENTRO =        -0.00000000
  eigenvalues    EBANDS =      -362.44385743
  atomic energy  EATOM  =       957.86496585
  Solvation  Ediel_sol  =         0.00000000
  ---------------------------------------------------
  free energy    TOTEN  =       -75.92789667 eV

  energy without entropy =      -75.92789667  energy(sigma->0) =      -75.92789667


--------------------------------------------------------------------------------------------------------




 average (electrostatic) potential at core
  the test charge radii are     0.8471  0.6256
  (the norm of the test charge is              1.0000)
       1 -83.4984       2 -83.4986       3 -83.4991       4 -83.4994       5 -83.4991
       6 -83.4986       7 -38.5841       8 -38.5840       9 -38.5822      10 -38.5811
      11 -38.5821      12 -38.5840
 
 
 
 E-fermi :  -6.2318     XC(G=0):  -0.0478     alpha+bet : -0.0192


 k-point     1 :       0.0000    0.0000    0.0000
  band No.  band energies     occupation 
      1     -21.2192      2.00000
      2     -18.4291      2.00000
      3     -18.4285      2.00000
      4     -14.8187      2.00000
      5     -14.8183      2.00000
      6     -12.9062      2.00000
      7     -11.1881      2.00000
      8     -10.8774      2.00000
      9     -10.2144      2.00000
     10     -10.2140      2.00000
     11      -9.0615      2.00000
     12      -8.2021      2.00000
     13      -8.2015      2.00000
     14      -6.3216      2.00000
     15      -6.3212      2.00000
     16      -1.1989      0.00000
     17      -1.1983      0.00000
     18      -0.4970      0.00000
     19      -0.0294      0.00000
     20      -0.0294      0.00000
     21       0.0148      0.00000
     22       0.1126      0.00000


--------------------------------------------------------------------------------------------------------


 soft charge-density along one line, spin component           1
         0         1         2         3         4         5         6         7         8         9
 total charge-density along one line
 
 pseudopotential strength for first ion, spin component:           1
 19.672  23.154   0.003  -0.000   0.002   0.004  -0.000   0.003
 23.154  27.256   0.003  -0.000   0.003   0.005  -0.000   0.004
  0.003   0.003  -2.923   0.002   0.005  -3.568   0.003   0.006
 -0.000  -0.000   0.002  -2.841  -0.002   0.003  -3.457  -0.003
  0.002   0.003   0.005  -0.002  -2.925   0.006  -0.003  -3.571
  0.004   0.005  -3.568   0.003   0.006  -4.279   0.004   0.008
 -0.000  -0.000   0.003  -3.457  -0.003   0.004  -4.129  -0.004
  0.003   0.004   0.006  -0.003  -3.571   0.008  -0.004  -4.283
 total augmentation occupancy for first ion, spin component:           1
 18.799 -11.738  -1.459   0.032  -1.168   0.964  -0.020   0.771
-11.738   7.438   1.101  -0.023   0.882  -0.722   0.014  -0.578
 -1.459   1.101  12.433  -0.202  -0.801  -6.531   0.119   0.505
  0.032  -0.023  -0.202   4.905   0.234   0.119  -2.140  -0.138
 -1.168   0.882  -0.801   0.234  12.795   0.505  -0.138  -6.759
  0.964  -0.722  -6.531   0.119   0.505   3.459  -0.069  -0.315
 -0.020   0.014   0.119  -2.140  -0.138  -0.069   0.943   0.080
  0.771  -0.578   0.505  -0.138  -6.759  -0.315   0.080   3.601


------------------------ aborting loop because EDIFF is reached ----------------------------------------


    CHARGE:  cpu time    3.6655: real time    3.6744
    FORLOC:  cpu time    3.2640: real time    3.2719
    FORNL :  cpu time    2.1128: real time    2.1180
    STRESS:  cpu time    7.8785: real time    7.8976
    FORHAR:  cpu time    9.9850: real time   10.0092
    MIXING:  cpu time    1.8210: real time    1.8255
    OFIELD:  cpu time    0.0000: real time    0.0000

  FORCE on cell =-STRESS in cart. coord.  units (eV):
  Direction    XX          YY          ZZ          XY          YZ          ZX
  --------------------------------------------------------------------------------------
  Alpha Z     0.06064     0.06064     0.06064
  Ewald    1229.90160  1230.08743  -174.12939     0.93865   -34.17691    37.57754
  Hartree  1287.91277  1288.01492   476.82051     0.53134   -19.74562    21.61868
  E(xc)    -105.37991  -105.37939  -108.77847     0.00232    -0.08244     0.09176
  Local   -2881.06305 -2881.34221  -719.26846    -1.43167    52.63610   -57.75043
  n-local    68.46102    68.46082    69.91859    -0.00038     0.03415    -0.04042
  augment    27.98024    27.98052    25.64702     0.00162    -0.05664     0.06298
  Kinetic   374.68021   374.66984   429.73129    -0.03843     1.33021    -1.49072
  Fock        0.00000     0.00000     0.00000     0.00000     0.00000     0.00000
  -------------------------------------------------------------------------------------
  Total       2.55352     2.55256     0.00174     0.00346    -0.06115     0.06941
  in kB       0.09542     0.09539     0.00007     0.00013    -0.00229     0.00259
  external pressure =        0.06 kB  Pullay stress =        0.00 kB


 VOLUME and BASIS-vectors are now :
 -----------------------------------------------------------------------------
  energy-cutoff  :     1000.00
  volume of cell :    42875.00
      direct lattice vectors                 reciprocal lattice vectors
    35.000000000  0.000000000  0.000000000     0.028571429  0.000000000  0.000000000
     0.000000000 35.000000000  0.000000000     0.000000000  0.028571429  0.000000000
     0.000000000  0.000000000 35.000000000     0.000000000  0.000000000  0.028571429

  length of vectors
    35.000000000 35.000000000 35.000000000     0.028571429  0.028571429  0.028571429


 FORCES acting on ions
    electron-ion (+dipol)            ewald-force                    non-local-force                 convergence-correction
 -----------------------------------------------------------------------------------------------
   -.113E+03 -.141E+03 0.116E+01   0.113E+03 0.141E+03 -.115E+01   -.179E+00 -.225E+00 0.739E-02   0.353E-05 0.354E-05 0.801E-06
   -.178E+03 0.270E+02 -.529E+01   0.178E+03 -.270E+02 0.532E+01   -.272E+00 0.632E-01 -.222E-01   0.575E-05 -.783E-06 0.851E-06
   -.656E+02 0.168E+03 -.588E+01   0.656E+02 -.168E+03 0.590E+01   -.767E-01 0.247E+00 -.314E-01   0.747E-06 -.465E-05 0.870E-06
   0.113E+03 0.141E+03 0.158E-01   -.113E+03 -.141E+03 -.132E-01   0.155E+00 0.196E+00 0.527E-02   -.343E-05 -.357E-05 0.536E-06
   0.178E+03 -.271E+02 0.540E+01   -.178E+03 0.271E+02 -.539E+01   0.259E+00 -.228E-01 -.172E-01   -.575E-05 0.186E-06 0.427E-06
   0.655E+02 -.168E+03 0.600E+01   -.656E+02 0.168E+03 -.599E+01   0.123E+00 -.251E+00 -.286E-02   -.310E-05 0.436E-05 0.436E-06
   -.506E+02 -.633E+02 0.350E-01   0.545E+02 0.681E+02 -.352E-01   -.367E+01 -.459E+01 -.655E-02   0.102E-05 0.119E-05 0.100E-06
   -.800E+02 0.121E+02 -.278E+01   0.862E+02 -.131E+02 0.299E+01   -.581E+01 0.879E+00 -.210E+00   0.115E-05 -.766E-07 0.110E-06
   -.295E+02 0.754E+02 -.282E+01   0.317E+02 -.812E+02 0.304E+01   -.214E+01 0.547E+01 -.208E+00   0.373E-06 -.119E-05 0.138E-06
   0.506E+02 0.633E+02 -.235E+00   -.545E+02 -.681E+02 0.256E+00   0.367E+01 0.459E+01 -.214E-01   -.683E-06 -.803E-06 0.727E-07
   0.800E+02 -.122E+02 0.227E+01   -.862E+02 0.131E+02 -.245E+01   0.581E+01 -.885E+00 0.162E+00   -.937E-06 0.120E-06 0.328E-07
   0.295E+02 -.754E+02 0.229E+01   -.317E+02 0.813E+02 -.247E+01   0.214E+01 -.548E+01 0.158E+00   -.565E-06 0.123E-05 0.315E-07
 -----------------------------------------------------------------------------------------------
   -.520E-02 0.440E-02 0.186E+00   -.497E-13 -.114E-12 0.311E-14   0.524E-02 -.453E-02 -.186E+00   -.190E-05 -.448E-06 0.441E-05
 
 
 POSITION                                       TOTAL-FORCE (eV/Angst)
 -----------------------------------------------------------------------------------
      0.75975      1.03128      0.37377        -0.063958     -0.079845      0.020687
      1.26662     34.73264      0.42127        -0.086224      0.036225     -0.000233
      0.39532     33.64401      0.42491        -0.007460      0.067947     -0.005899
     34.01779     33.85335      0.38127         0.033245      0.043376      0.007910
     33.51065      0.15115      0.33757         0.067552      0.005990     -0.003418
     34.38122      1.24033      0.33388         0.054732     -0.075111      0.006691
      1.43502      1.87566      0.37470         0.243363      0.304380     -0.006798
      2.33492     34.57082      0.45943         0.386753     -0.061211      0.004065
      0.78866     32.63751      0.46304         0.138520     -0.360925      0.011251
     33.34234     33.00886      0.38512        -0.239864     -0.299654     -0.001147
     32.44205      0.31375      0.30772        -0.382197      0.055502     -0.012382
     33.98824      2.24711      0.30437        -0.144461      0.363326     -0.020728
 -----------------------------------------------------------------------------------
    total drift:                                0.000033     -0.000131     -0.000050


--------------------------------------------------------------------------------------------------------



  FREE ENERGIE OF THE ION-ELECTRON SYSTEM (eV)
  ---------------------------------------------------
  free  energy   TOTEN  =       -75.92789667 eV

  energy  without entropy=      -75.92789667  energy(sigma->0) =      -75.92789667
 


--------------------------------------------------------------------------------------------------------


    POTLOK:  cpu time   29.9366: real time   30.0092


--------------------------------------------------------------------------------------------------------


 writing wavefunctions
     LOOP+:  cpu time 1993.2812: real time 1998.2724
    4ORBIT:  cpu time    0.0000: real time    0.0000

 total amount of memory used by VASP on root node  5444910. kBytes
========================================================================

   base      :      30000. kBytes
   nonl-proj :      61569. kBytes
   fftplans  :    1964666. kBytes
   grid      :    3320944. kBytes
   one-center:          3. kBytes
   wavefun   :      67728. kBytes
 
  
  
 General timing and accounting informations for this job:
 ========================================================
  
                  Total CPU time used (sec):     2402.707
                            User time (sec):     2222.290
                          System time (sec):      180.417
                         Elapsed time (sec):     2408.689
  
                   Maximum memory used (kb):     8595952.
                   Average memory used (kb):           0.
  
                          Minor page faults:       259354
                          Major page faults:            6
                 Voluntary context switches:          733
 
 PROFILE, used timers:      14
 =============================
 
 index                 routine                    time                            calls level
----------------------------------------------------------------------------------------------
    1    total_time                         2408.690479                                1   1
    2      w1_copy                               5.514626                           7984   2
    3      fftwav_mpi                          305.170166                           3096   2
    4      fftext_mpi                            1.491003                             22   2
    5      overl                                 0.002093                           4605   2
    6      orth1                                 7.696014                           1100   2
    7      lincom                                0.460647                             33   2
    8      eccp                                 10.613693                            704   2
    9      hamiltmu                            330.985601                            366   2
   10        vhamil                               61.656689                         2654   3
   11        overl1                                0.003110                         2654   3
   12        kinhamil                            183.436246                         2654   3
   13          fftext_mpi                          181.717350                       2654   4
   14      pdssyex_zheevx                        0.039075                             32   2
 
 Flat profile
 ============
 
             routine name                   CPU           calls
 ---------------------------------------------------------------
 total_time                           1746.717562           1
 fftwav_mpi                            305.170166        3096
 fftext_mpi                            183.208353        2676
 hamiltmu                               85.889556         366
 vhamil                                 61.656689        2654
 eccp                                   10.613693         704
 orth1                                   7.696014        1100
 w1_copy                                 5.514626        7984
 kinhamil                                1.718896        2654
 lincom                                  0.460647          33
 pdssyex_zheevx                          0.039075          32
 overl1                                  0.003110        2654
 overl                                   0.002093        4605
 ---------------------------------------------------------------
  summed up times    2408.69047880173     
 
Profiling took   0.013266  0.007280  0.003202  0.003194 seconds
Profiling took   0.011261 seconds
