 vasp.5.4.1 24Jun15 (build Jan 02 2020 16:21:29) gamma-only                     
  
 executed on           IFC15_impi date 2020.04.15  10:47:47
 running on    8 total cores
 distrk:  each k-point on    8 cores,    1 groups
 distr:  one band on NCORES_PER_BAND=   8 cores,    1 groups


--------------------------------------------------------------------------------------------------------


 INCAR:
 POTCAR:    PAW_PBE N_s 07Sep2000                 
 POTCAR:    PAW_PBE C_s 06Sep2000                 
 POTCAR:    PAW_PBE H_s 15May2010                 

 ----------------------------------------------------------------------------- 
|                                                                             |
|           W    W    AA    RRRRR   N    N  II  N    N   GGGG   !!!           |
|           W    W   A  A   R    R  NN   N  II  NN   N  G    G  !!!           |
|           W    W  A    A  R    R  N N  N  II  N N  N  G       !!!           |
|           W WW W  AAAAAA  RRRRR   N  N N  II  N  N N  G  GGG   !            |
|           WW  WW  A    A  R   R   N   NN  II  N   NN  G    G                |
|           W    W  A    A  R    R  N    N  II  N    N   GGGG   !!!           |
|                                                                             |
|      For optimal performance we recommend to set                            |
|        NCORE= 4 - approx SQRT( number of cores)                             |
|      NCORE specifies how many cores store one orbital (NPAR=cpu/NCORE).     |
|      This setting can  greatly improve the performance of VASP for DFT.     |
|      The default, NPAR=number of cores might be grossly inefficient         |
|      on modern multi-core architectures or massively parallel machines.     |
|      Do your own testing !!!!                                               |
|      Unfortunately you need to use the default for GW and RPA calculations. |
|      (for HF NCORE is supported but not extensively tested yet)             |
|                                                                             |
 ----------------------------------------------------------------------------- 

 POTCAR:    PAW_PBE N_s 07Sep2000                 
   VRHFIN =N: s2p3                                                              
   LEXCH  = PE                                                                  
   EATOM  =   264.5486 eV,   19.4438 Ry                                         
                                                                                
   TITEL  = PAW_PBE N_s 07Sep2000                                               
   LULTRA =        F    use ultrasoft PP ?                                      
   IUNSCR =        0    unscreen: 0-lin 1-nonlin 2-no                           
   RPACOR =    0.000    partial core radius                                     
   POMASS =   14.001; ZVAL   =    5.000    mass and valenz                      
   RCORE  =    1.850    outmost cutoff radius                                   
   RWIGS  =    1.850; RWIGS  =    0.979    wigner-seitz radius (au A)           
   ENMAX  =  279.692; ENMIN  =  209.769 eV                                      
   RCLOC  =    0.803    cutoff for local pot                                    
   LCOR   =        T    correct aug charges                                     
   LPAW   =        T    paw PP                                                  
   EAUG   =  384.743                                                            
   DEXC   =    0.000                                                            
   RMAX   =    1.893    core radius for proj-oper                               
   RAUG   =    1.300    factor for augmentation sphere                          
   RDEP   =    1.933    radius for radial grids                                 
   RDEPT  =    1.632    core radius for aug-charge                              
                                                                                
   Atomic configuration                                                         
    4 entries                                                                   
     n  l   j            E        occ.                                          
     1  0  0.50      -384.7179   2.0000                                         
     2  0  0.50       -18.5828   2.0000                                         
     2  1  0.50        -7.0898   3.0000                                         
     3  2  1.50        -1.3606   0.0000                                         
   Description                                                                  
     l       E           TYP  RCUT    TYP  RCUT                                 
     0    -18.5828119     23  1.500                                             
     0    -19.9433945     23  1.500                                             
     1     -7.0897853     23  1.850                                             
     1     -4.8150613     23  1.850                                             
  local pseudopotential read in
  atomic valenz-charges read in
  non local Contribution for L=           0  read in
    real space projection operators read in
  non local Contribution for L=           0  read in
    real space projection operators read in
  non local Contribution for L=           1  read in
    real space projection operators read in
  non local Contribution for L=           1  read in
    real space projection operators read in
    PAW grid and wavefunctions read in
 
   number of l-projection  operators is LMAX  =           4
   number of lm-projection operators is LMMAX =           8
 
 POTCAR:    PAW_PBE C_s 06Sep2000                 
   VRHFIN =C: s2p2                                                              
   LEXCH  = PE                                                                  
   EATOM  =   147.1560 eV,   10.8157 Ry                                         
                                                                                
   TITEL  = PAW_PBE C_s 06Sep2000                                               
   LULTRA =        F    use ultrasoft PP ?                                      
   IUNSCR =        0    unscreen: 0-lin 1-nonlin 2-no                           
   RPACOR =    0.000    partial core radius                                     
   POMASS =   12.011; ZVAL   =    4.000    mass and valenz                      
   RCORE  =    1.850    outmost cutoff radius                                   
   RWIGS  =    1.890; RWIGS  =    1.000    wigner-seitz radius (au A)           
   ENMAX  =  273.911; ENMIN  =  205.433 eV                                      
   RCLOC  =    0.804    cutoff for local pot                                    
   LCOR   =        T    correct aug charges                                     
   LPAW   =        T    paw PP                                                  
   EAUG   =  439.243                                                            
   DEXC   =    0.000                                                            
   RMAX   =    1.897    core radius for proj-oper                               
   RAUG   =    1.300    factor for augmentation sphere                          
   RDEP   =    1.940    radius for radial grids                                 
   RDEPT  =    1.573    core radius for aug-charge                              
                                                                                
   Atomic configuration                                                         
    4 entries                                                                   
     n  l   j            E        occ.                                          
     1  0  0.50      -273.3789   2.0000                                         
     2  0  0.50       -13.7508   2.0000                                         
     2  1  0.50        -5.2854   2.0000                                         
     3  2  1.50        -1.3606   0.0000                                         
   Description                                                                  
     l       E           TYP  RCUT    TYP  RCUT                                 
     0    -13.7508457     23  1.500                                             
     0    -11.0934578     23  1.500                                             
     1     -5.2854381     23  1.850                                             
     1     -1.3099858     23  1.850                                             
  local pseudopotential read in
  atomic valenz-charges read in
  non local Contribution for L=           0  read in
    real space projection operators read in
  non local Contribution for L=           0  read in
    real space projection operators read in
  non local Contribution for L=           1  read in
    real space projection operators read in
  non local Contribution for L=           1  read in
    real space projection operators read in
    PAW grid and wavefunctions read in
 
   number of l-projection  operators is LMAX  =           4
   number of lm-projection operators is LMMAX =           8
 
 POTCAR:    PAW_PBE H_s 15May2010                 
   VRHFIN =H: ultrasoft test                                                    
   LEXCH  = PE                                                                  
   EATOM  =    12.4884 eV,    0.9179 Ry                                         
                                                                                
   TITEL  = PAW_PBE H_s 15May2010                                               
   LULTRA =        F    use ultrasoft PP ?                                      
   IUNSCR =        0    unscreen: 0-lin 1-nonlin 2-no                           
   RPACOR =    0.000    partial core radius                                     
   POMASS =    1.000; ZVAL   =    1.000    mass and valenz                      
   RCORE  =    1.300    outmost cutoff radius                                   
   RWIGS  =    0.700; RWIGS  =    0.370    wigner-seitz radius (au A)           
   ENMAX  =  200.000; ENMIN  =  150.000 eV                                      
   RCLOC  =    0.701    cutoff for local pot                                    
   LCOR   =        T    correct aug charges                                     
   LPAW   =        T    paw PP                                                  
   EAUG   =  300.000                                                            
   RMAX   =    1.330    core radius for proj-oper                               
   RAUG   =    1.200    factor for augmentation sphere                          
   RDEP   =    1.337    radius for radial grids                                 
   RDEPT  =    1.114    core radius for aug-charge                              
                                                                                
   Atomic configuration                                                         
    2 entries                                                                   
     n  l   j            E        occ.                                          
     1  0  0.50        -6.4927   1.0000                                         
     2  1  0.50        -3.4015   0.0000                                         
   Description                                                                  
     l       E           TYP  RCUT    TYP  RCUT                                 
     0     -6.4927494     23  1.300                                             
     0      6.8029130     23  1.300                                             
     1     -4.0817478     23  1.300                                             
  local pseudopotential read in
  atomic valenz-charges read in
  non local Contribution for L=           0  read in
    real space projection operators read in
  non local Contribution for L=           0  read in
    real space projection operators read in
  non local Contribution for L=           1  read in
    real space projection operators read in
    PAW grid and wavefunctions read in
 
   number of l-projection  operators is LMAX  =           3
   number of lm-projection operators is LMMAX =           5
 
  PAW_PBE N_s 07Sep2000                 :
 energy of atom  1       EATOM= -264.5486
 kinetic energy error for atom=    0.0003 (will be added to EATOM!!)
  PAW_PBE C_s 06Sep2000                 :
 energy of atom  2       EATOM= -147.1560
 kinetic energy error for atom=    0.0002 (will be added to EATOM!!)
  PAW_PBE H_s 15May2010                 :
 energy of atom  3       EATOM=  -12.4884
 kinetic energy error for atom=    0.0000 (will be added to EATOM!!)
 
 
 POSCAR: N C H                                   
  positions in cartesian coordinates
  No initial velocities read in
 exchange correlation table for  LEXCH =        8
   RHO(1)=    0.500       N(1)  =     2000
   RHO(2)=  100.500       N(2)  =     4000
 


--------------------------------------------------------------------------------------------------------


 ion  position               nearest neighbor table
   1  0.985  0.001  0.994-   4 1.01   3 1.01   2 1.46
   2  0.998  0.030  0.021-   5 1.09   7 1.09   6 1.09   1 1.46
   3  0.002  0.978  0.996-   1 1.01
   4  0.958  0.992  0.002-   1 1.01
   5  0.979  0.055  0.019-   2 1.09
   6  0.999  0.021  0.051-   2 1.09
   7  0.026  0.039  0.013-   2 1.09
 
  LATTYP: Found a simple cubic cell.
 ALAT       =    35.0000000000
  
  Lattice vectors:
  
 A1 = (  35.0000000000,   0.0000000000,   0.0000000000)
 A2 = (   0.0000000000,  35.0000000000,   0.0000000000)
 A3 = (   0.0000000000,   0.0000000000,  35.0000000000)


Analysis of symmetry for initial positions (statically):
=====================================================================
 Subroutine PRICEL returns:
 Original cell was already a primitive cell.
 

 Routine SETGRP: Setting up the symmetry group for a 
 simple cubic supercell.


 Subroutine GETGRP returns: Found  1 space group operations
 (whereof  1 operations were pure point group operations)
 out of a pool of 48 trial point group operations.


The static configuration has the point symmetry C_1 .


Analysis of symmetry for dynamics (positions and initial velocities):
=====================================================================
 Subroutine PRICEL returns:
 Original cell was already a primitive cell.
 

 Routine SETGRP: Setting up the symmetry group for a 
 simple cubic supercell.


 Subroutine GETGRP returns: Found  1 space group operations
 (whereof  1 operations were pure point group operations)
 out of a pool of 48 trial point group operations.


The dynamic configuration has the point symmetry C_1 .
 
 
 KPOINTS: automatic mesh                          

Automatic generation of k-mesh.
Space group operators:
 irot       det(A)        alpha          n_x          n_y          n_z        tau_x        tau_y        tau_z
    1     1.000000     0.000000     1.000000     0.000000     0.000000     0.000000     0.000000     0.000000
 
 Subroutine IBZKPT returns following result:
 ===========================================
 
 Found      1 irreducible k-points:
 
 Following reciprocal coordinates:
            Coordinates               Weight
  0.000000  0.000000  0.000000      1.000000
 
 Following cartesian coordinates:
            Coordinates               Weight
  0.000000  0.000000  0.000000      1.000000
 


--------------------------------------------------------------------------------------------------------




 Dimension of arrays:
   k-points           NKPTS =      1   k-points in BZ     NKDIM =      1   number of bands    NBANDS=     11
   number of dos      NEDOS =    301   number of ions     NIONS =      7
   non local maximal  LDIM  =      4   non local SUM 2l+1 LMDIM =      8
   total plane-waves  NPLWV = ******
   max r-space proj   IRMAX =      1   max aug-charges    IRDMAX=  32454
   dimension x,y,z NGX =   378 NGY =  378 NGZ =  378
   dimension x,y,z NGXF=   756 NGYF=  756 NGZF=  756
   support grid    NGXF=   756 NGYF=  756 NGZF=  756
   ions per type =               1   1   5
 NGX,Y,Z   is equivalent  to a cutoff of  17.95, 17.95, 17.95 a.u.
 NGXF,Y,Z  is equivalent  to a cutoff of  35.91, 35.91, 35.91 a.u.


 I would recommend the setting:
   dimension x,y,z NGX =   361 NGY =  361 NGZ =  361
 SYSTEM =  C                                       
 POSCAR =  N C H                                   

 Startparameter for this run:
   NWRITE =      2    write-flag & timer
   PREC   = acc       normal or accurate (medium, high low for compatibility)
   ISTART =      0    job   : 0-new  1-cont  2-samecut
   ICHARG =      2    charge: 1-file 2-atom 10-const
   ISPIN  =      1    spin polarized calculation?
   LNONCOLLINEAR =      F non collinear calculations
   LSORBIT =      F    spin-orbit coupling
   INIWAV =      1    electr: 0-lowe 1-rand  2-diag
   LASPH  =      T    aspherical Exc in radial PAW
   METAGGA=      F    non-selfconsistent MetaGGA calc.

 Electronic Relaxation 1
   ENCUT  = 1000.0 eV  73.50 Ry    8.57 a.u.  90.25 90.25 90.25*2*pi/ulx,y,z
   ENINI  = 1000.0     initial cutoff
   ENAUG  =  439.2 eV  augmentation charge cutoff
   NELM   =     60;   NELMIN=  2; NELMDL= -5     # of ELM steps 
   EDIFF  = 0.1E-06   stopping-criterion for ELM
   LREAL  =      F    real-space projection
   NLSPLINE    = F    spline interpolate recip. space projectors
   LCOMPAT=      F    compatible to vasp.4.4
   GGA_COMPAT  = T    GGA compatible to vasp.4.4-vasp.4.6
   LMAXPAW     = -100 max onsite density
   LMAXMIX     =    2 max onsite mixed and CHGCAR
   VOSKOWN=      0    Vosko Wilk Nusair interpolation
   ROPT   =    0.00000   0.00000   0.00000
 Ionic relaxation
   EDIFFG = 0.1E-05   stopping-criterion for IOM
   NSW    =      0    number of steps for IOM
   NBLOCK =      1;   KBLOCK =      1    inner block; outer block 
   IBRION =     -1    ionic relax: 0-MD 1-quasi-New 2-CG
   NFREE  =      0    steps in history (QN), initial steepest desc. (CG)
   ISIF   =      2    stress and relaxation
   IWAVPR =     10    prediction:  0-non 1-charg 2-wave 3-comb
   ISYM   =      2    0-nonsym 1-usesym 2-fastsym
   LCORR  =      T    Harris-Foulkes like correction to forces

   POTIM  = 0.5000    time-step for ionic-motion
   TEIN   =    0.0    initial temperature
   TEBEG  =    0.0;   TEEND  =   0.0 temperature during run
   SMASS  =  -3.00    Nose mass-parameter (am)
   estimated Nose-frequenzy (Omega)   =  0.10E-29 period in steps =****** mass=  -0.280E-25a.u.
   SCALEE = 1.0000    scale energy and forces
   NPACO  =    256;   APACO  = 16.0  distance and # of slots for P.C.
   PSTRESS=    0.0 pullay stress

  Mass of Ions in am
   POMASS =  14.00 12.01  1.00
  Ionic Valenz
   ZVAL   =   5.00  4.00  1.00
  Atomic Wigner-Seitz radii
   RWIGS  =  -1.00 -1.00 -1.00
  virtual crystal weights 
   VCA    =   1.00  1.00  1.00
   NELECT =      14.0000    total number of electrons
   NUPDOWN=      -1.0000    fix difference up-down

 DOS related values:
   EMIN   =  10.00;   EMAX   =-10.00  energy-range for DOS
   EFERMI =   0.00
   ISMEAR =     0;   SIGMA  =   0.01  broadening in eV -4-tet -1-fermi 0-gaus

 Electronic relaxation 2 (details)
   IALGO  =     38    algorithm
   LDIAG  =      T    sub-space diagonalisation (order eigenvalues)
   LSUBROT=      F    optimize rotation matrix (better conditioning)
   TURBO    =      0    0=normal 1=particle mesh
   IRESTART =      0    0=no restart 2=restart with 2 vectors
   NREBOOT  =      0    no. of reboots
   NMIN     =      0    reboot dimension
   EREF     =   0.00    reference energy to select bands
   IMIX   =      4    mixing-type and parameters
     AMIX     =   0.40;   BMIX     =  1.00
     AMIX_MAG =   1.60;   BMIX_MAG =  1.00
     AMIN     =   0.10
     WC   =   100.;   INIMIX=   1;  MIXPRE=   1;  MAXMIX= -45

 Intra band minimization:
   WEIMIN = 0.0000     energy-eigenvalue tresh-hold
   EBREAK =  0.23E-08  absolut break condition
   DEPER  =   0.30     relativ break condition  

   TIME   =   0.40     timestep for ELM

  volume/ion in A,a.u.               =    6125.00     41333.54
  Fermi-wavevector in a.u.,A,eV,Ry     =   0.112733  0.213034  0.172911  0.012709
  Thomas-Fermi vector in A             =   0.715943
 
 Write flags
   LWAVE  =      T    write WAVECAR
   LCHARG =      T    write CHGCAR
   LVTOT  =      F    write LOCPOT, total local potential
   LVHAR  =      F    write LOCPOT, Hartree potential only
   LELF   =      F    write electronic localiz. function (ELF)
   LORBIT =      0    0 simple, 1 ext, 2 COOP (PROOUT)


 Dipole corrections
   LMONO  =      F    monopole corrections only (constant potential shift)
   LDIPOL =      F    correct potential (dipole corrections)
   IDIPOL =      0    1-x, 2-y, 3-z, 4-all directions 
   EPSILON=  1.0000000 bulk dielectric constant

 Exchange correlation treatment:
   GGA     =    --    GGA type
   LEXCH   =     8    internal setting for exchange type
   VOSKOWN=      0    Vosko Wilk Nusair interpolation
   LHFCALC =     F    Hartree Fock is set to
   LHFONE  =     F    Hartree Fock one center treatment
   AEXX    =    0.0000 exact exchange contribution

 Linear response parameters
   LEPSILON=     F    determine dielectric tensor
   LRPA    =     F    only Hartree local field effects (RPA)
   LNABLA  =     F    use nabla operator in PAW spheres
   LVEL    =     F    velocity operator in full k-point grid
   LINTERFAST=   F  fast interpolation
   KINTER  =     0    interpolate to denser k-point grid
   CSHIFT  =0.1000    complex shift for real part using Kramers Kronig
   OMEGAMAX=  -1.0    maximum frequency
   DEG_THRESHOLD= 0.2000000E-02 threshold for treating states as degnerate
   RTIME   =    0.100 relaxation time in fs

 Orbital magnetization related:
   ORBITALMAG=     F  switch on orbital magnetization
   LCHIMAG   =     F  perturbation theory with respect to B field
   DQ        =  0.001000  dq finite difference perturbation B field



--------------------------------------------------------------------------------------------------------


 Static calculation
 charge density and potential will be updated during run
 non-spin polarized calculation
 Variant of blocked Davidson
 Davidson routine will perform the subspace rotation
 perform sub-space diagonalisation
    after iterative eigenvector-optimisation
 modified Broyden-mixing scheme, WC =      100.0
 initial mixing is a Kerker type mixing with AMIX =  0.4000 and BMIX =      1.0000
 Hartree-type preconditioning will be used
 using additional bands            4
 reciprocal scheme for non local part
 calculate Harris-corrections to forces 
   (improved forces if not selfconsistent)
 use gradient corrections 
 use of overlap-Matrix (Vanderbilt PP)
 Gauss-broadening in eV      SIGMA  =   0.01


--------------------------------------------------------------------------------------------------------


  energy-cutoff  :     1000.00
  volume of cell :    42875.00
      direct lattice vectors                 reciprocal lattice vectors
    35.000000000  0.000000000  0.000000000     0.028571429  0.000000000  0.000000000
     0.000000000 35.000000000  0.000000000     0.000000000  0.028571429  0.000000000
     0.000000000  0.000000000 35.000000000     0.000000000  0.000000000  0.028571429

  length of vectors
    35.000000000 35.000000000 35.000000000     0.028571429  0.028571429  0.028571429


 
 k-points in units of 2pi/SCALE and weight: automatic mesh                          
   0.00000000  0.00000000  0.00000000       1.000
 
 k-points in reciprocal lattice and weights: automatic mesh                          
   0.00000000  0.00000000  0.00000000       1.000
 
 position of ions in fractional coordinates (direct lattice) 
   0.98454117  0.00084503  0.99402871
   0.99774859  0.02978258  0.02109882
   0.00158724  0.97753948  0.99627733
   0.95800945  0.99215119  0.00151838
   0.97942420  0.05484039  0.01919944
   0.99854977  0.02068066  0.05101470
   0.02646945  0.03876011  0.01319998
 
 position of ions in cartesian coordinates  (Angst):
  34.45894080  0.02957620 34.79100492
  34.92120073  1.04239036  0.73845886
   0.05555335 34.21388190 34.86970665
  33.53033060 34.72529155  0.05314338
  34.27984706  1.91941377  0.67198026
  34.94924181  0.72382293  1.78551453
   0.92643072  1.35660379  0.46199919
 


--------------------------------------------------------------------------------------------------------


 use parallel FFT for wavefunctions z direction half grid
 k-point  1 :   0.0000 0.0000 0.0000  plane waves: 1539209

 maximum and minimum number of plane-waves per node :    192406   192397

 maximum number of plane-waves:   1539209
 maximum index in each direction: 
   IXMAX=   90   IYMAX=   90   IZMAX=   90
   IXMIN=  -90   IYMIN=  -90   IZMIN=    0

 NGX is ok and might be reduce to 362
 NGY is ok and might be reduce to 362
 NGZ is ok and might be reduce to 362

 parallel 3D FFT for wavefunctions:
    minimum data exchange during FFTs selected (reduces bandwidth)
 parallel 3D FFT for charge:
    minimum data exchange during FFTs selected (reduces bandwidth)


 total amount of memory used by VASP on root node  5843482. kBytes
========================================================================

   base      :      30000. kBytes
   nonl-proj :      58491. kBytes
   fftplans  :    1964666. kBytes
   grid      :    3756461. kBytes
   one-center:          1. kBytes
   wavefun   :      33863. kBytes
 
     INWAV:  cpu time    0.0001: real time    0.0002
 Broyden mixing: mesh for mixing (old mesh)
   NGX =181   NGY =181   NGZ =181
  (NGX  =756   NGY  =756   NGZ  =756)
  gives a total of ****** points

 initial charge density was supplied:
 charge density of overlapping atoms calculated
 number of electron      14.0000000 magnetization 
 keeping initial charge density in first step


--------------------------------------------------------------------------------------------------------


 Maximum index for augmentation-charges         4342 (set IRDMAX)


--------------------------------------------------------------------------------------------------------


 First call to EWALD:  gamma=   0.051
 Maximum number of real-space cells 3x 3x 3
 Maximum number of reciprocal cells 3x 3x 3

 FEWALD executed in parallel
    FEWALD:  cpu time    0.0013: real time    0.0013


----------------------------------------- Iteration    1(   1)  ---------------------------------------


    POTLOK:  cpu time   26.0897: real time   26.1536
    SETDIJ:  cpu time    0.0538: real time    0.0539
     EDDAV:  cpu time   12.1659: real time   12.1960
       DOS:  cpu time    0.0001: real time    0.0001
    --------------------------------------------
      LOOP:  cpu time   38.3110: real time   38.4066

 eigenvalue-minimisations  :    38
 total energy-change (2. order) : 0.7568881E+02  (-0.2358659E+03)
 number of electron      14.0000000 magnetization 
 augmentation part       14.0000000 magnetization 

 Free energy of the ion-electron system (eV)
  ---------------------------------------------------
  alpha Z        PSCENC =         0.01272961
  Ewald energy   TEWEN  =       609.22644439
  -Hartree energ DENC   =      -924.37428301
  -exchange      EXHF   =         0.00000000
  -V(xc)+E(xc)   XCENC  =        45.27850559
  PAW double counting   =       328.91682829     -330.94596068
  entropy T*S    EENTRO =        -0.00000000
  eigenvalues    EBANDS =      -126.57140484
  atomic energy  EATOM  =       474.14594963
  Solvation  Ediel_sol  =         0.00000000
  ---------------------------------------------------
  free energy    TOTEN  =        75.68880899 eV

  energy without entropy =       75.68880899  energy(sigma->0) =       75.68880899


--------------------------------------------------------------------------------------------------------




----------------------------------------- Iteration    1(   2)  ---------------------------------------


     EDDAV:  cpu time   12.0135: real time   12.0430
       DOS:  cpu time    0.0000: real time    0.0000
    --------------------------------------------
      LOOP:  cpu time   12.0148: real time   12.0466

 eigenvalue-minimisations  :    38
 total energy-change (2. order) :-0.9590410E+02  (-0.9574001E+02)
 number of electron      14.0000000 magnetization 
 augmentation part       14.0000000 magnetization 

 Free energy of the ion-electron system (eV)
  ---------------------------------------------------
  alpha Z        PSCENC =         0.01272961
  Ewald energy   TEWEN  =       609.22644439
  -Hartree energ DENC   =      -924.37428301
  -exchange      EXHF   =         0.00000000
  -V(xc)+E(xc)   XCENC  =        45.27850559
  PAW double counting   =       328.91682829     -330.94596068
  entropy T*S    EENTRO =        -0.00000000
  eigenvalues    EBANDS =      -222.47550623
  atomic energy  EATOM  =       474.14594963
  Solvation  Ediel_sol  =         0.00000000
  ---------------------------------------------------
  free energy    TOTEN  =       -20.21529241 eV

  energy without entropy =      -20.21529241  energy(sigma->0) =      -20.21529241


--------------------------------------------------------------------------------------------------------




----------------------------------------- Iteration    1(   3)  ---------------------------------------


     EDDAV:  cpu time    9.5689: real time    9.5924
       DOS:  cpu time    0.0000: real time    0.0000
    --------------------------------------------
      LOOP:  cpu time    9.5703: real time    9.5960

 eigenvalue-minimisations  :    28
 total energy-change (2. order) :-0.1916161E+02  (-0.1915073E+02)
 number of electron      14.0000000 magnetization 
 augmentation part       14.0000000 magnetization 

 Free energy of the ion-electron system (eV)
  ---------------------------------------------------
  alpha Z        PSCENC =         0.01272961
  Ewald energy   TEWEN  =       609.22644439
  -Hartree energ DENC   =      -924.37428301
  -exchange      EXHF   =         0.00000000
  -V(xc)+E(xc)   XCENC  =        45.27850559
  PAW double counting   =       328.91682829     -330.94596068
  entropy T*S    EENTRO =        -0.00000000
  eigenvalues    EBANDS =      -241.63711389
  atomic energy  EATOM  =       474.14594963
  Solvation  Ediel_sol  =         0.00000000
  ---------------------------------------------------
  free energy    TOTEN  =       -39.37690007 eV

  energy without entropy =      -39.37690007  energy(sigma->0) =      -39.37690007


--------------------------------------------------------------------------------------------------------




----------------------------------------- Iteration    1(   4)  ---------------------------------------


     EDDAV:  cpu time    9.5652: real time    9.5889
       DOS:  cpu time    0.0000: real time    0.0000
    --------------------------------------------
      LOOP:  cpu time    9.5665: real time   10.2746

 eigenvalue-minimisations  :    28
 total energy-change (2. order) :-0.9552346E+00  (-0.9539306E+00)
 number of electron      14.0000000 magnetization 
 augmentation part       14.0000000 magnetization 

 Free energy of the ion-electron system (eV)
  ---------------------------------------------------
  alpha Z        PSCENC =         0.01272961
  Ewald energy   TEWEN  =       609.22644439
  -Hartree energ DENC   =      -924.37428301
  -exchange      EXHF   =         0.00000000
  -V(xc)+E(xc)   XCENC  =        45.27850559
  PAW double counting   =       328.91682829     -330.94596068
  entropy T*S    EENTRO =        -0.00000000
  eigenvalues    EBANDS =      -242.59234851
  atomic energy  EATOM  =       474.14594963
  Solvation  Ediel_sol  =         0.00000000
  ---------------------------------------------------
  free energy    TOTEN  =       -40.33213469 eV

  energy without entropy =      -40.33213469  energy(sigma->0) =      -40.33213469


--------------------------------------------------------------------------------------------------------




----------------------------------------- Iteration    1(   5)  ---------------------------------------


     EDDAV:  cpu time   13.3760: real time   13.4088
       DOS:  cpu time    0.0000: real time    0.0000
    CHARGE:  cpu time    2.7971: real time    2.8039
    MIXING:  cpu time    0.6844: real time    0.6861
    --------------------------------------------
      LOOP:  cpu time   16.8591: real time   16.9022

 eigenvalue-minimisations  :    44
 total energy-change (2. order) :-0.4719699E-01  (-0.4717807E-01)
 number of electron      14.0000000 magnetization 
 augmentation part        1.2145007 magnetization 

 Broyden mixing:
  rms(total) = 0.24004E+01    rms(broyden)= 0.24004E+01
  rms(prec ) = 0.24181E+01
  weight for this iteration     100.00

 Free energy of the ion-electron system (eV)
  ---------------------------------------------------
  alpha Z        PSCENC =         0.01272961
  Ewald energy   TEWEN  =       609.22644439
  -Hartree energ DENC   =      -924.37428301
  -exchange      EXHF   =         0.00000000
  -V(xc)+E(xc)   XCENC  =        45.27850559
  PAW double counting   =       328.91682829     -330.94596068
  entropy T*S    EENTRO =        -0.00000000
  eigenvalues    EBANDS =      -242.63954550
  atomic energy  EATOM  =       474.14594963
  Solvation  Ediel_sol  =         0.00000000
  ---------------------------------------------------
  free energy    TOTEN  =       -40.37933168 eV

  energy without entropy =      -40.37933168  energy(sigma->0) =      -40.37933168


--------------------------------------------------------------------------------------------------------




----------------------------------------- Iteration    1(   6)  ---------------------------------------


    POTLOK:  cpu time   25.5852: real time   25.6475
    SETDIJ:  cpu time    0.0495: real time    0.0496
     EDDAV:  cpu time   11.5976: real time   11.6260
       DOS:  cpu time    0.0000: real time    0.0000
    CHARGE:  cpu time    2.7094: real time    2.7160
    MIXING:  cpu time    0.7142: real time    0.7159
    --------------------------------------------
      LOOP:  cpu time   40.6573: real time   40.7585

 eigenvalue-minimisations  :    36
 total energy-change (2. order) : 0.3954306E+01  (-0.1058523E+01)
 number of electron      14.0000000 magnetization 
 augmentation part        1.0189149 magnetization 

 Broyden mixing:
  rms(total) = 0.25125E+01    rms(broyden)= 0.25125E+01
  rms(prec ) = 0.25152E+01
  weight for this iteration     100.00

 eigenvalues of (default mixing * dielectric matrix)
  average eigenvalue GAMMA=   0.1439
  0.1439

 Free energy of the ion-electron system (eV)
  ---------------------------------------------------
  alpha Z        PSCENC =         0.01272961
  Ewald energy   TEWEN  =       609.22644439
  -Hartree energ DENC   =      -960.14436052
  -exchange      EXHF   =         0.00000000
  -V(xc)+E(xc)   XCENC  =        47.17988861
  PAW double counting   =       920.69194698     -923.58379361
  entropy T*S    EENTRO =        -0.00000000
  eigenvalues    EBANDS =      -203.95383086
  atomic energy  EATOM  =       474.14594963
  Solvation  Ediel_sol  =         0.00000000
  ---------------------------------------------------
  free energy    TOTEN  =       -36.42502577 eV

  energy without entropy =      -36.42502577  energy(sigma->0) =      -36.42502577


--------------------------------------------------------------------------------------------------------




----------------------------------------- Iteration    1(   7)  ---------------------------------------


    POTLOK:  cpu time   25.6043: real time   25.6667
    SETDIJ:  cpu time    0.0496: real time    0.0497
     EDDAV:  cpu time   10.0505: real time   10.0750
       DOS:  cpu time    0.0000: real time    0.0000
    CHARGE:  cpu time    2.7170: real time    2.7236
    MIXING:  cpu time    0.7347: real time    0.7365
    --------------------------------------------
      LOOP:  cpu time   39.1577: real time   39.2553

 eigenvalue-minimisations  :    30
 total energy-change (2. order) : 0.1550870E+00  (-0.3175009E-01)
 number of electron      14.0000000 magnetization 
 augmentation part        1.0120550 magnetization 

 Broyden mixing:
  rms(total) = 0.23492E+01    rms(broyden)= 0.23492E+01
  rms(prec ) = 0.23515E+01
  weight for this iteration     100.00

 eigenvalues of (default mixing * dielectric matrix)
  average eigenvalue GAMMA=   1.5498
  1.5498  1.5498

 Free energy of the ion-electron system (eV)
  ---------------------------------------------------
  alpha Z        PSCENC =         0.01272961
  Ewald energy   TEWEN  =       609.22644439
  -Hartree energ DENC   =      -963.53756725
  -exchange      EXHF   =         0.00000000
  -V(xc)+E(xc)   XCENC  =        47.38159206
  PAW double counting   =      1103.03375096    -1106.00403879
  entropy T*S    EENTRO =        -0.00000000
  eigenvalues    EBANDS =      -200.52879940
  atomic energy  EATOM  =       474.14594963
  Solvation  Ediel_sol  =         0.00000000
  ---------------------------------------------------
  free energy    TOTEN  =       -36.26993878 eV

  energy without entropy =      -36.26993878  energy(sigma->0) =      -36.26993878


--------------------------------------------------------------------------------------------------------




----------------------------------------- Iteration    1(   8)  ---------------------------------------


    POTLOK:  cpu time   25.6708: real time   25.7333
    SETDIJ:  cpu time    0.0496: real time    0.0498
     EDDAV:  cpu time    9.5061: real time    9.5294
       DOS:  cpu time    0.0000: real time    0.0000
    CHARGE:  cpu time    2.7168: real time    2.7234
    MIXING:  cpu time    0.7528: real time    0.7547
    --------------------------------------------
      LOOP:  cpu time   38.6976: real time   38.7942

 eigenvalue-minimisations  :    28
 total energy-change (2. order) : 0.4941259E+00  (-0.8375889E-01)
 number of electron      14.0000000 magnetization 
 augmentation part        1.0241046 magnetization 

 Broyden mixing:
  rms(total) = 0.45066E+00    rms(broyden)= 0.45066E+00
  rms(prec ) = 0.45546E+00
  weight for this iteration     100.00

 eigenvalues of (default mixing * dielectric matrix)
  average eigenvalue GAMMA=   1.4362
  2.4626  0.9230  0.9230

 Free energy of the ion-electron system (eV)
  ---------------------------------------------------
  alpha Z        PSCENC =         0.01272961
  Ewald energy   TEWEN  =       609.22644439
  -Hartree energ DENC   =      -976.32338726
  -exchange      EXHF   =         0.00000000
  -V(xc)+E(xc)   XCENC  =        48.43306013
  PAW double counting   =      2858.54043910    -2861.98273370
  entropy T*S    EENTRO =        -0.00000000
  eigenvalues    EBANDS =      -187.82831478
  atomic energy  EATOM  =       474.14594963
  Solvation  Ediel_sol  =         0.00000000
  ---------------------------------------------------
  free energy    TOTEN  =       -35.77581287 eV

  energy without entropy =      -35.77581287  energy(sigma->0) =      -35.77581287


--------------------------------------------------------------------------------------------------------




----------------------------------------- Iteration    1(   9)  ---------------------------------------


    POTLOK:  cpu time   25.6594: real time   25.7219
    SETDIJ:  cpu time    0.0495: real time    0.0496
     EDDAV:  cpu time   11.5090: real time   11.5371
       DOS:  cpu time    0.0000: real time    0.0000
    CHARGE:  cpu time    2.7214: real time    2.7280
    MIXING:  cpu time    0.7738: real time    0.7757
    --------------------------------------------
      LOOP:  cpu time   40.7146: real time   40.8163

 eigenvalue-minimisations  :    36
 total energy-change (2. order) : 0.2013362E+00  (-0.6605854E-01)
 number of electron      14.0000000 magnetization 
 augmentation part        0.9859349 magnetization 

 Broyden mixing:
  rms(total) = 0.42658E+00    rms(broyden)= 0.42658E+00
  rms(prec ) = 0.42748E+00
  weight for this iteration     100.00

 eigenvalues of (default mixing * dielectric matrix)
  average eigenvalue GAMMA=   1.2171
  2.2484  1.1681  0.7260  0.7260

 Free energy of the ion-electron system (eV)
  ---------------------------------------------------
  alpha Z        PSCENC =         0.01272961
  Ewald energy   TEWEN  =       609.22644439
  -Hartree energ DENC   =      -987.92620944
  -exchange      EXHF   =         0.00000000
  -V(xc)+E(xc)   XCENC  =        49.09658297
  PAW double counting   =      3562.75362352    -3566.43130047
  entropy T*S    EENTRO =        -0.00000000
  eigenvalues    EBANDS =      -176.45229686
  atomic energy  EATOM  =       474.14594963
  Solvation  Ediel_sol  =         0.00000000
  ---------------------------------------------------
  free energy    TOTEN  =       -35.57447664 eV

  energy without entropy =      -35.57447664  energy(sigma->0) =      -35.57447664


--------------------------------------------------------------------------------------------------------




----------------------------------------- Iteration    1(  10)  ---------------------------------------


    POTLOK:  cpu time   25.6463: real time   25.7088
    SETDIJ:  cpu time    0.0495: real time    0.0496
     EDDAV:  cpu time    9.5527: real time    9.5761
       DOS:  cpu time    0.0000: real time    0.0000
    CHARGE:  cpu time    2.7118: real time    2.7184
    MIXING:  cpu time    0.8004: real time    0.8024
    --------------------------------------------
      LOOP:  cpu time   38.7624: real time   38.8587

 eigenvalue-minimisations  :    28
 total energy-change (2. order) : 0.8440966E-02  (-0.1649377E-02)
 number of electron      14.0000000 magnetization 
 augmentation part        0.9843895 magnetization 

 Broyden mixing:
  rms(total) = 0.29872E+00    rms(broyden)= 0.29872E+00
  rms(prec ) = 0.29954E+00
  weight for this iteration     100.00

 eigenvalues of (default mixing * dielectric matrix)
  average eigenvalue GAMMA=   1.4014
  2.1466  1.8639  1.0781  1.0781  0.8402

 Free energy of the ion-electron system (eV)
  ---------------------------------------------------
  alpha Z        PSCENC =         0.01272961
  Ewald energy   TEWEN  =       609.22644439
  -Hartree energ DENC   =      -987.95490032
  -exchange      EXHF   =         0.00000000
  -V(xc)+E(xc)   XCENC  =        49.04582917
  PAW double counting   =      3457.96401220    -3461.59892043
  entropy T*S    EENTRO =        -0.00000000
  eigenvalues    EBANDS =      -176.40717993
  atomic energy  EATOM  =       474.14594963
  Solvation  Ediel_sol  =         0.00000000
  ---------------------------------------------------
  free energy    TOTEN  =       -35.56603567 eV

  energy without entropy =      -35.56603567  energy(sigma->0) =      -35.56603567


--------------------------------------------------------------------------------------------------------




----------------------------------------- Iteration    1(  11)  ---------------------------------------


    POTLOK:  cpu time   25.6727: real time   25.7352
    SETDIJ:  cpu time    0.0496: real time    0.0497
     EDDAV:  cpu time   10.0645: real time   10.0891
       DOS:  cpu time    0.0000: real time    0.0000
    CHARGE:  cpu time    2.7168: real time    2.7235
    MIXING:  cpu time    0.8264: real time    0.8284
    --------------------------------------------
      LOOP:  cpu time   39.3315: real time   39.4295

 eigenvalue-minimisations  :    30
 total energy-change (2. order) : 0.1413431E-01  (-0.2849723E-02)
 number of electron      14.0000000 magnetization 
 augmentation part        0.9788995 magnetization 

 Broyden mixing:
  rms(total) = 0.11522E+00    rms(broyden)= 0.11522E+00
  rms(prec ) = 0.11588E+00
  weight for this iteration     100.00

 eigenvalues of (default mixing * dielectric matrix)
  average eigenvalue GAMMA=   1.3378
  2.0267  2.0267  1.1443  1.1443  0.8425  0.8425

 Free energy of the ion-electron system (eV)
  ---------------------------------------------------
  alpha Z        PSCENC =         0.01272961
  Ewald energy   TEWEN  =       609.22644439
  -Hartree energ DENC   =      -990.40173588
  -exchange      EXHF   =         0.00000000
  -V(xc)+E(xc)   XCENC  =        49.08907725
  PAW double counting   =      3472.14626671    -3475.73811134
  entropy T*S    EENTRO =        -0.00000000
  eigenvalues    EBANDS =      -174.03252175
  atomic energy  EATOM  =       474.14594963
  Solvation  Ediel_sol  =         0.00000000
  ---------------------------------------------------
  free energy    TOTEN  =       -35.55190137 eV

  energy without entropy =      -35.55190137  energy(sigma->0) =      -35.55190137


--------------------------------------------------------------------------------------------------------




----------------------------------------- Iteration    1(  12)  ---------------------------------------


    POTLOK:  cpu time   25.6798: real time   25.7423
    SETDIJ:  cpu time    0.0497: real time    0.0498
     EDDAV:  cpu time   11.5961: real time   11.6245
       DOS:  cpu time    0.0000: real time    0.0000
    CHARGE:  cpu time    2.7204: real time    2.7270
    MIXING:  cpu time    0.8553: real time    0.8574
    --------------------------------------------
      LOOP:  cpu time   40.9028: real time   41.0048

 eigenvalue-minimisations  :    36
 total energy-change (2. order) : 0.1032692E-02  (-0.7184207E-03)
 number of electron      14.0000000 magnetization 
 augmentation part        0.9762453 magnetization 

 Broyden mixing:
  rms(total) = 0.53439E-01    rms(broyden)= 0.53439E-01
  rms(prec ) = 0.54172E-01
  weight for this iteration     100.00

 eigenvalues of (default mixing * dielectric matrix)
  average eigenvalue GAMMA=   1.2618
  2.2287  2.2287  1.1056  1.1056  0.8130  0.8130  0.5377

 Free energy of the ion-electron system (eV)
  ---------------------------------------------------
  alpha Z        PSCENC =         0.01272961
  Ewald energy   TEWEN  =       609.22644439
  -Hartree energ DENC   =      -991.37891860
  -exchange      EXHF   =         0.00000000
  -V(xc)+E(xc)   XCENC  =        49.10780700
  PAW double counting   =      3447.22566233    -3450.80714090
  entropy T*S    EENTRO =        -0.00000000
  eigenvalues    EBANDS =      -173.08340214
  atomic energy  EATOM  =       474.14594963
  Solvation  Ediel_sol  =         0.00000000
  ---------------------------------------------------
  free energy    TOTEN  =       -35.55086868 eV

  energy without entropy =      -35.55086868  energy(sigma->0) =      -35.55086868


--------------------------------------------------------------------------------------------------------




----------------------------------------- Iteration    1(  13)  ---------------------------------------


    POTLOK:  cpu time   25.6955: real time   25.7581
    SETDIJ:  cpu time    0.0496: real time    0.0497
     EDDAV:  cpu time    9.6416: real time    9.6652
       DOS:  cpu time    0.0000: real time    0.0000
    CHARGE:  cpu time    2.7105: real time    2.7171
    MIXING:  cpu time    0.8841: real time    0.8862
    --------------------------------------------
      LOOP:  cpu time   38.9827: real time   39.0799

 eigenvalue-minimisations  :    28
 total energy-change (2. order) :-0.2904508E-03  (-0.1830270E-03)
 number of electron      14.0000000 magnetization 
 augmentation part        0.9747350 magnetization 

 Broyden mixing:
  rms(total) = 0.18796E-01    rms(broyden)= 0.18796E-01
  rms(prec ) = 0.20056E-01
  weight for this iteration     100.00

 eigenvalues of (default mixing * dielectric matrix)
  average eigenvalue GAMMA=   1.5254
  3.1718  2.5369  1.3697  1.3697  1.0228  1.0228  0.9955  0.7142

 Free energy of the ion-electron system (eV)
  ---------------------------------------------------
  alpha Z        PSCENC =         0.01272961
  Ewald energy   TEWEN  =       609.22644439
  -Hartree energ DENC   =      -992.12915586
  -exchange      EXHF   =         0.00000000
  -V(xc)+E(xc)   XCENC  =        49.11918994
  PAW double counting   =      3433.70990069    -3437.28098763
  entropy T*S    EENTRO =        -0.00000000
  eigenvalues    EBANDS =      -172.35522991
  atomic energy  EATOM  =       474.14594963
  Solvation  Ediel_sol  =         0.00000000
  ---------------------------------------------------
  free energy    TOTEN  =       -35.55115913 eV

  energy without entropy =      -35.55115913  energy(sigma->0) =      -35.55115913


--------------------------------------------------------------------------------------------------------




----------------------------------------- Iteration    1(  14)  ---------------------------------------


    POTLOK:  cpu time   25.7234: real time   25.7861
    SETDIJ:  cpu time    0.0496: real time    0.0497
     EDDAV:  cpu time    8.8929: real time    8.9146
       DOS:  cpu time    0.0000: real time    0.0000
    CHARGE:  cpu time    2.7245: real time    2.7312
    MIXING:  cpu time    0.9148: real time    0.9170
    --------------------------------------------
      LOOP:  cpu time   38.3068: real time   38.4020

 eigenvalue-minimisations  :    25
 total energy-change (2. order) :-0.3625346E-02  (-0.5757757E-03)
 number of electron      14.0000000 magnetization 
 augmentation part        0.9722728 magnetization 

 Broyden mixing:
  rms(total) = 0.34775E-01    rms(broyden)= 0.34775E-01
  rms(prec ) = 0.35008E-01
  weight for this iteration     100.00

 eigenvalues of (default mixing * dielectric matrix)
  average eigenvalue GAMMA=   1.5548
  4.1247  2.3222  1.4749  1.4749  0.9508  0.9508  1.1047  0.8457  0.7448

 Free energy of the ion-electron system (eV)
  ---------------------------------------------------
  alpha Z        PSCENC =         0.01272961
  Ewald energy   TEWEN  =       609.22644439
  -Hartree energ DENC   =      -994.04076228
  -exchange      EXHF   =         0.00000000
  -V(xc)+E(xc)   XCENC  =        49.16249194
  PAW double counting   =      3423.66598116    -3427.22841520
  entropy T*S    EENTRO =        -0.00000000
  eigenvalues    EBANDS =      -170.49920373
  atomic energy  EATOM  =       474.14594963
  Solvation  Ediel_sol  =         0.00000000
  ---------------------------------------------------
  free energy    TOTEN  =       -35.55478447 eV

  energy without entropy =      -35.55478447  energy(sigma->0) =      -35.55478447


--------------------------------------------------------------------------------------------------------




----------------------------------------- Iteration    1(  15)  ---------------------------------------


    POTLOK:  cpu time   25.7150: real time   25.7777
    SETDIJ:  cpu time    0.0495: real time    0.0497
     EDDAV:  cpu time    9.6300: real time    9.6536
       DOS:  cpu time    0.0000: real time    0.0000
    CHARGE:  cpu time    2.7208: real time    2.7275
    MIXING:  cpu time    0.9502: real time    0.9525
    --------------------------------------------
      LOOP:  cpu time   39.0671: real time   39.1644

 eigenvalue-minimisations  :    28
 total energy-change (2. order) :-0.1592812E-02  (-0.3599311E-04)
 number of electron      14.0000000 magnetization 
 augmentation part        0.9724497 magnetization 

 Broyden mixing:
  rms(total) = 0.27694E-01    rms(broyden)= 0.27694E-01
  rms(prec ) = 0.27866E-01
  weight for this iteration     100.00

 eigenvalues of (default mixing * dielectric matrix)
  average eigenvalue GAMMA=   1.5556
  4.2379  2.3429  1.5399  1.5399  1.5370  0.9938  0.9938  0.8024  0.7842  0.7842

 Free energy of the ion-electron system (eV)
  ---------------------------------------------------
  alpha Z        PSCENC =         0.01272961
  Ewald energy   TEWEN  =       609.22644439
  -Hartree energ DENC   =      -994.39574061
  -exchange      EXHF   =         0.00000000
  -V(xc)+E(xc)   XCENC  =        49.16841394
  PAW double counting   =      3425.60116279    -3429.16354998
  entropy T*S    EENTRO =        -0.00000000
  eigenvalues    EBANDS =      -170.15178706
  atomic energy  EATOM  =       474.14594963
  Solvation  Ediel_sol  =         0.00000000
  ---------------------------------------------------
  free energy    TOTEN  =       -35.55637729 eV

  energy without entropy =      -35.55637729  energy(sigma->0) =      -35.55637729


--------------------------------------------------------------------------------------------------------




----------------------------------------- Iteration    1(  16)  ---------------------------------------


    POTLOK:  cpu time   25.7417: real time   25.8044
    SETDIJ:  cpu time    0.0496: real time    0.0497
     EDDAV:  cpu time    9.6384: real time    9.6620
       DOS:  cpu time    0.0000: real time    0.0000
    CHARGE:  cpu time    2.7119: real time    2.7185
    MIXING:  cpu time    0.9888: real time    0.9912
    --------------------------------------------
      LOOP:  cpu time   39.1320: real time   39.2295

 eigenvalue-minimisations  :    28
 total energy-change (2. order) :-0.2509636E-02  (-0.4364332E-04)
 number of electron      14.0000000 magnetization 
 augmentation part        0.9730082 magnetization 

 Broyden mixing:
  rms(total) = 0.12122E-01    rms(broyden)= 0.12122E-01
  rms(prec ) = 0.12298E-01
  weight for this iteration     100.00

 eigenvalues of (default mixing * dielectric matrix)
  average eigenvalue GAMMA=   1.5139
  4.0105  2.5477  1.6811  1.5387  1.5387  1.0290  1.0290  0.8444  0.8444  0.8898
  0.6999

 Free energy of the ion-electron system (eV)
  ---------------------------------------------------
  alpha Z        PSCENC =         0.01272961
  Ewald energy   TEWEN  =       609.22644439
  -Hartree energ DENC   =      -994.51035577
  -exchange      EXHF   =         0.00000000
  -V(xc)+E(xc)   XCENC  =        49.16820365
  PAW double counting   =      3426.49317889    -3430.05884819
  entropy T*S    EENTRO =        -0.00000000
  eigenvalues    EBANDS =      -170.03618914
  atomic energy  EATOM  =       474.14594963
  Solvation  Ediel_sol  =         0.00000000
  ---------------------------------------------------
  free energy    TOTEN  =       -35.55888692 eV

  energy without entropy =      -35.55888692  energy(sigma->0) =      -35.55888692


--------------------------------------------------------------------------------------------------------




----------------------------------------- Iteration    1(  17)  ---------------------------------------


    POTLOK:  cpu time   25.7686: real time   25.8314
    SETDIJ:  cpu time    0.0495: real time    0.0497
     EDDAV:  cpu time   11.5257: real time   11.5539
       DOS:  cpu time    0.0000: real time    0.0000
    CHARGE:  cpu time    2.7168: real time    2.7234
    MIXING:  cpu time    1.0251: real time    1.0276
    --------------------------------------------
      LOOP:  cpu time   41.0874: real time   41.1900

 eigenvalue-minimisations  :    36
 total energy-change (2. order) :-0.1860368E-02  (-0.1885494E-04)
 number of electron      14.0000000 magnetization 
 augmentation part        0.9732964 magnetization 

 Broyden mixing:
  rms(total) = 0.38163E-02    rms(broyden)= 0.38163E-02
  rms(prec ) = 0.41436E-02
  weight for this iteration     100.00

 eigenvalues of (default mixing * dielectric matrix)
  average eigenvalue GAMMA=   1.5606
  3.4832  3.2566  2.0665  2.0665  1.1299  1.1299  1.0061  1.0061  1.0677  1.0677
  0.7233  0.7233

 Free energy of the ion-electron system (eV)
  ---------------------------------------------------
  alpha Z        PSCENC =         0.01272961
  Ewald energy   TEWEN  =       609.22644439
  -Hartree energ DENC   =      -994.54291039
  -exchange      EXHF   =         0.00000000
  -V(xc)+E(xc)   XCENC  =        49.16610495
  PAW double counting   =      3426.22606497    -3429.79371381
  entropy T*S    EENTRO =        -0.00000000
  eigenvalues    EBANDS =      -170.00141665
  atomic energy  EATOM  =       474.14594963
  Solvation  Ediel_sol  =         0.00000000
  ---------------------------------------------------
  free energy    TOTEN  =       -35.56074729 eV

  energy without entropy =      -35.56074729  energy(sigma->0) =      -35.56074729


--------------------------------------------------------------------------------------------------------




----------------------------------------- Iteration    1(  18)  ---------------------------------------


    POTLOK:  cpu time   25.7377: real time   25.8004
    SETDIJ:  cpu time    0.0554: real time    0.0556
     EDDAV:  cpu time    9.6232: real time    9.6468
       DOS:  cpu time    0.0000: real time    0.0000
    CHARGE:  cpu time    2.7189: real time    2.7255
    MIXING:  cpu time    1.0679: real time    1.0705
    --------------------------------------------
      LOOP:  cpu time   39.2046: real time   39.3024

 eigenvalue-minimisations  :    28
 total energy-change (2. order) :-0.2376158E-02  (-0.1944030E-04)
 number of electron      14.0000000 magnetization 
 augmentation part        0.9735253 magnetization 

 Broyden mixing:
  rms(total) = 0.35111E-02    rms(broyden)= 0.35111E-02
  rms(prec ) = 0.36775E-02
  weight for this iteration     100.00

 eigenvalues of (default mixing * dielectric matrix)
  average eigenvalue GAMMA=   1.7579
  6.3707  3.2915  2.3905  1.7546  1.0404  1.0404  1.1382  1.1382  1.1237  1.1237
  0.9959  0.7225  0.7225

 Free energy of the ion-electron system (eV)
  ---------------------------------------------------
  alpha Z        PSCENC =         0.01272961
  Ewald energy   TEWEN  =       609.22644439
  -Hartree energ DENC   =      -994.64059245
  -exchange      EXHF   =         0.00000000
  -V(xc)+E(xc)   XCENC  =        49.16339448
  PAW double counting   =      3425.91304461    -3429.48168027
  entropy T*S    EENTRO =        -0.00000000
  eigenvalues    EBANDS =      -169.90241345
  atomic energy  EATOM  =       474.14594963
  Solvation  Ediel_sol  =         0.00000000
  ---------------------------------------------------
  free energy    TOTEN  =       -35.56312345 eV

  energy without entropy =      -35.56312345  energy(sigma->0) =      -35.56312345


--------------------------------------------------------------------------------------------------------




----------------------------------------- Iteration    1(  19)  ---------------------------------------


    POTLOK:  cpu time   25.7580: real time   25.8207
    SETDIJ:  cpu time    0.0496: real time    0.0497
     EDDAV:  cpu time   10.1237: real time   10.1485
       DOS:  cpu time    0.0000: real time    0.0000
    CHARGE:  cpu time    2.7214: real time    2.7280
    MIXING:  cpu time    1.1046: real time    1.1073
    --------------------------------------------
      LOOP:  cpu time   39.7588: real time   39.8578

 eigenvalue-minimisations  :    30
 total energy-change (2. order) :-0.1587008E-02  (-0.2103612E-04)
 number of electron      14.0000000 magnetization 
 augmentation part        0.9735096 magnetization 

 Broyden mixing:
  rms(total) = 0.69856E-02    rms(broyden)= 0.69856E-02
  rms(prec ) = 0.70186E-02
  weight for this iteration     100.00

 eigenvalues of (default mixing * dielectric matrix)
  average eigenvalue GAMMA=   1.7282
  6.4242  3.3472  2.3653  1.6177  1.6177  1.4591  1.0121  1.0121  1.0694  1.0694
  0.7584  0.7584  0.8421  0.8421

 Free energy of the ion-electron system (eV)
  ---------------------------------------------------
  alpha Z        PSCENC =         0.01272961
  Ewald energy   TEWEN  =       609.22644439
  -Hartree energ DENC   =      -994.87675151
  -exchange      EXHF   =         0.00000000
  -V(xc)+E(xc)   XCENC  =        49.16613977
  PAW double counting   =      3427.10157375    -3430.67117669
  entropy T*S    EENTRO =        -0.00000000
  eigenvalues    EBANDS =      -169.66961941
  atomic energy  EATOM  =       474.14594963
  Solvation  Ediel_sol  =         0.00000000
  ---------------------------------------------------
  free energy    TOTEN  =       -35.56471046 eV

  energy without entropy =      -35.56471046  energy(sigma->0) =      -35.56471046


--------------------------------------------------------------------------------------------------------




----------------------------------------- Iteration    1(  20)  ---------------------------------------


    POTLOK:  cpu time   25.7413: real time   25.8040
    SETDIJ:  cpu time    0.0496: real time    0.0497
     EDDAV:  cpu time   11.5953: real time   11.6237
       DOS:  cpu time    0.0000: real time    0.0000
    CHARGE:  cpu time    2.7177: real time    2.7243
    MIXING:  cpu time    1.1521: real time    1.1549
    --------------------------------------------
      LOOP:  cpu time   41.2575: real time   41.3603

 eigenvalue-minimisations  :    36
 total energy-change (2. order) :-0.6742562E-03  (-0.5559730E-05)
 number of electron      14.0000000 magnetization 
 augmentation part        0.9732788 magnetization 

 Broyden mixing:
  rms(total) = 0.27215E-02    rms(broyden)= 0.27215E-02
  rms(prec ) = 0.27451E-02
  weight for this iteration     100.00

 eigenvalues of (default mixing * dielectric matrix)
  average eigenvalue GAMMA=   1.8445
  7.1687  3.7955  2.4256  2.4256  1.8165  1.2921  1.2921  1.0012  1.0012  1.1898
  1.0665  0.8638  0.8638  0.7325  0.7325

 Free energy of the ion-electron system (eV)
  ---------------------------------------------------
  alpha Z        PSCENC =         0.01272961
  Ewald energy   TEWEN  =       609.22644439
  -Hartree energ DENC   =      -994.91318891
  -exchange      EXHF   =         0.00000000
  -V(xc)+E(xc)   XCENC  =        49.16491718
  PAW double counting   =      3425.46840358    -3429.03681333
  entropy T*S    EENTRO =        -0.00000000
  eigenvalues    EBANDS =      -169.63382687
  atomic energy  EATOM  =       474.14594963
  Solvation  Ediel_sol  =         0.00000000
  ---------------------------------------------------
  free energy    TOTEN  =       -35.56538471 eV

  energy without entropy =      -35.56538471  energy(sigma->0) =      -35.56538471


--------------------------------------------------------------------------------------------------------




----------------------------------------- Iteration    1(  21)  ---------------------------------------


    POTLOK:  cpu time   25.7240: real time   25.7866
    SETDIJ:  cpu time    0.0496: real time    0.0497
     EDDAV:  cpu time    9.5862: real time    9.6097
       DOS:  cpu time    0.0000: real time    0.0000
    CHARGE:  cpu time    2.7177: real time    2.7243
    MIXING:  cpu time    1.1953: real time    1.1982
    --------------------------------------------
      LOOP:  cpu time   39.2743: real time   39.3723

 eigenvalue-minimisations  :    28
 total energy-change (2. order) :-0.5910898E-03  (-0.3967627E-05)
 number of electron      14.0000000 magnetization 
 augmentation part        0.9732276 magnetization 

 Broyden mixing:
  rms(total) = 0.10180E-02    rms(broyden)= 0.10180E-02
  rms(prec ) = 0.10353E-02
  weight for this iteration     100.00

 eigenvalues of (default mixing * dielectric matrix)
  average eigenvalue GAMMA=   1.9273
  7.8800  4.0431  2.9430  2.7604  1.6633  1.6633  1.3903  1.0035  1.0035  1.2055
  1.0807  1.0807  0.8245  0.8245  0.7349  0.7349

 Free energy of the ion-electron system (eV)
  ---------------------------------------------------
  alpha Z        PSCENC =         0.01272961
  Ewald energy   TEWEN  =       609.22644439
  -Hartree energ DENC   =      -994.92904621
  -exchange      EXHF   =         0.00000000
  -V(xc)+E(xc)   XCENC  =        49.16317457
  PAW double counting   =      3424.09056213    -3427.65793341
  entropy T*S    EENTRO =        -0.00000000
  eigenvalues    EBANDS =      -169.61785653
  atomic energy  EATOM  =       474.14594963
  Solvation  Ediel_sol  =         0.00000000
  ---------------------------------------------------
  free energy    TOTEN  =       -35.56597580 eV

  energy without entropy =      -35.56597580  energy(sigma->0) =      -35.56597580


--------------------------------------------------------------------------------------------------------




----------------------------------------- Iteration    1(  22)  ---------------------------------------


    POTLOK:  cpu time   25.7272: real time   25.7900
    SETDIJ:  cpu time    0.0494: real time    0.0495
     EDDAV:  cpu time   10.1138: real time   10.1386
       DOS:  cpu time    0.0000: real time    0.0000
    CHARGE:  cpu time    2.7204: real time    2.7270
    MIXING:  cpu time    1.2464: real time    1.2494
    --------------------------------------------
      LOOP:  cpu time   39.8587: real time   39.9583

 eigenvalue-minimisations  :    30
 total energy-change (2. order) :-0.2462623E-03  (-0.1367409E-05)
 number of electron      14.0000000 magnetization 
 augmentation part        0.9731134 magnetization 

 Broyden mixing:
  rms(total) = 0.21905E-02    rms(broyden)= 0.21905E-02
  rms(prec ) = 0.21980E-02
  weight for this iteration     100.00

 eigenvalues of (default mixing * dielectric matrix)
  average eigenvalue GAMMA=   1.9049
  8.3797  4.4261  2.7674  2.7674  1.6582  1.6582  1.4362  1.4362  1.0010  1.0010
  0.8998  0.8998  0.9716  0.9716  0.7235  0.7235  0.6626

 Free energy of the ion-electron system (eV)
  ---------------------------------------------------
  alpha Z        PSCENC =         0.01272961
  Ewald energy   TEWEN  =       609.22644439
  -Hartree energ DENC   =      -994.94665851
  -exchange      EXHF   =         0.00000000
  -V(xc)+E(xc)   XCENC  =        49.16309605
  PAW double counting   =      3423.89908692    -3427.46629644
  entropy T*S    EENTRO =        -0.00000000
  eigenvalues    EBANDS =      -169.60057372
  atomic energy  EATOM  =       474.14594963
  Solvation  Ediel_sol  =         0.00000000
  ---------------------------------------------------
  free energy    TOTEN  =       -35.56622206 eV

  energy without entropy =      -35.56622206  energy(sigma->0) =      -35.56622206


--------------------------------------------------------------------------------------------------------




----------------------------------------- Iteration    1(  23)  ---------------------------------------


    POTLOK:  cpu time   25.6819: real time   25.7445
    SETDIJ:  cpu time    0.0496: real time    0.0497
     EDDAV:  cpu time    9.6162: real time    9.6397
       DOS:  cpu time    0.0000: real time    0.0000
    CHARGE:  cpu time    2.7205: real time    2.7271
    MIXING:  cpu time    1.2923: real time    1.2955
    --------------------------------------------
      LOOP:  cpu time   39.3620: real time   39.4602

 eigenvalue-minimisations  :    28
 total energy-change (2. order) :-0.6471576E-04  (-0.2073530E-06)
 number of electron      14.0000000 magnetization 
 augmentation part        0.9731601 magnetization 

 Broyden mixing:
  rms(total) = 0.12542E-02    rms(broyden)= 0.12542E-02
  rms(prec ) = 0.12594E-02
  weight for this iteration     100.00

 eigenvalues of (default mixing * dielectric matrix)
  average eigenvalue GAMMA=   1.9114
  8.2325  4.7824  2.5764  2.5764  2.0598  1.7919  1.7919  1.3771  1.0065  1.0065
  1.0752  1.0752  1.0101  1.0101  0.7333  0.7333  0.7831  0.7831

 Free energy of the ion-electron system (eV)
  ---------------------------------------------------
  alpha Z        PSCENC =         0.01272961
  Ewald energy   TEWEN  =       609.22644439
  -Hartree energ DENC   =      -994.94048362
  -exchange      EXHF   =         0.00000000
  -V(xc)+E(xc)   XCENC  =        49.16283473
  PAW double counting   =      3424.40072941    -3427.96804947
  entropy T*S    EENTRO =        -0.00000000
  eigenvalues    EBANDS =      -169.60644146
  atomic energy  EATOM  =       474.14594963
  Solvation  Ediel_sol  =         0.00000000
  ---------------------------------------------------
  free energy    TOTEN  =       -35.56628678 eV

  energy without entropy =      -35.56628678  energy(sigma->0) =      -35.56628678


--------------------------------------------------------------------------------------------------------




----------------------------------------- Iteration    1(  24)  ---------------------------------------


    POTLOK:  cpu time   25.6903: real time   25.7528
    SETDIJ:  cpu time    0.0496: real time    0.0497
     EDDAV:  cpu time   11.5272: real time   11.5554
       DOS:  cpu time    0.0000: real time    0.0000
    CHARGE:  cpu time    2.7180: real time    2.7246
    MIXING:  cpu time    1.3406: real time    1.3439
    --------------------------------------------
      LOOP:  cpu time   41.3272: real time   41.4297

 eigenvalue-minimisations  :    36
 total energy-change (2. order) :-0.4759895E-04  (-0.7169820E-07)
 number of electron      14.0000000 magnetization 
 augmentation part        0.9731805 magnetization 

 Broyden mixing:
  rms(total) = 0.50271E-03    rms(broyden)= 0.50271E-03
  rms(prec ) = 0.50836E-03
  weight for this iteration     100.00

 eigenvalues of (default mixing * dielectric matrix)
  average eigenvalue GAMMA=   2.0074
  8.6439  5.5636  3.1648  2.4834  2.4834  2.0152  2.0152  1.3613  1.3613  1.0049
  1.0049  1.0252  1.0252  0.9724  0.8381  0.8381  0.8718  0.7341  0.7341

 Free energy of the ion-electron system (eV)
  ---------------------------------------------------
  alpha Z        PSCENC =         0.01272961
  Ewald energy   TEWEN  =       609.22644439
  -Hartree energ DENC   =      -994.93792057
  -exchange      EXHF   =         0.00000000
  -V(xc)+E(xc)   XCENC  =        49.16279919
  PAW double counting   =      3424.83907857    -3428.40656069
  entropy T*S    EENTRO =        -0.00000000
  eigenvalues    EBANDS =      -169.60885450
  atomic energy  EATOM  =       474.14594963
  Solvation  Ediel_sol  =         0.00000000
  ---------------------------------------------------
  free energy    TOTEN  =       -35.56633438 eV

  energy without entropy =      -35.56633438  energy(sigma->0) =      -35.56633438


--------------------------------------------------------------------------------------------------------




----------------------------------------- Iteration    1(  25)  ---------------------------------------


    POTLOK:  cpu time   25.6002: real time   25.6626
    SETDIJ:  cpu time    0.0565: real time    0.0567
     EDDAV:  cpu time    8.1091: real time    8.1289
       DOS:  cpu time    0.0000: real time    0.0000
    CHARGE:  cpu time    2.7137: real time    2.7203
    MIXING:  cpu time    1.3965: real time    1.3999
    --------------------------------------------
      LOOP:  cpu time   37.8774: real time   37.9719

 eigenvalue-minimisations  :    22
 total energy-change (2. order) :-0.8370960E-04  (-0.1317531E-06)
 number of electron      14.0000000 magnetization 
 augmentation part        0.9731987 magnetization 

 Broyden mixing:
  rms(total) = 0.31336E-03    rms(broyden)= 0.31336E-03
  rms(prec ) = 0.31473E-03
  weight for this iteration     100.00

 eigenvalues of (default mixing * dielectric matrix)
  average eigenvalue GAMMA=   1.9575
  8.8044  5.5722  3.1519  2.5357  2.5357  1.9759  1.6398  1.4799  1.4799  1.0032
  1.0032  1.0681  1.0681  0.9720  0.9720  0.8023  0.8023  0.7348  0.7348  0.8138

 Free energy of the ion-electron system (eV)
  ---------------------------------------------------
  alpha Z        PSCENC =         0.01272961
  Ewald energy   TEWEN  =       609.22644439
  -Hartree energ DENC   =      -994.93693423
  -exchange      EXHF   =         0.00000000
  -V(xc)+E(xc)   XCENC  =        49.16269230
  PAW double counting   =      3425.11292220    -3428.68051522
  entropy T*S    EENTRO =        -0.00000000
  eigenvalues    EBANDS =      -169.60970676
  atomic energy  EATOM  =       474.14594963
  Solvation  Ediel_sol  =         0.00000000
  ---------------------------------------------------
  free energy    TOTEN  =       -35.56641809 eV

  energy without entropy =      -35.56641809  energy(sigma->0) =      -35.56641809


--------------------------------------------------------------------------------------------------------




----------------------------------------- Iteration    1(  26)  ---------------------------------------


    POTLOK:  cpu time   25.6223: real time   25.6848
    SETDIJ:  cpu time    0.0496: real time    0.0497
     EDDAV:  cpu time   11.5886: real time   11.6170
       DOS:  cpu time    0.0000: real time    0.0000
    CHARGE:  cpu time    2.7187: real time    2.7253
    MIXING:  cpu time    1.4518: real time    1.4553
    --------------------------------------------
      LOOP:  cpu time   41.4325: real time   41.5359

 eigenvalue-minimisations  :    36
 total energy-change (2. order) :-0.1017748E-04  (-0.2290240E-07)
 number of electron      14.0000000 magnetization 
 augmentation part        0.9732147 magnetization 

 Broyden mixing:
  rms(total) = 0.26146E-03    rms(broyden)= 0.26146E-03
  rms(prec ) = 0.26255E-03
  weight for this iteration     100.00

 eigenvalues of (default mixing * dielectric matrix)
  average eigenvalue GAMMA=   2.0420
  8.9520  5.6361  3.1278  3.1278  2.6930  2.6930  1.9248  1.9248  1.6869  1.0046
  1.0046  1.1045  1.1045  1.0006  1.0006  0.9095  0.9095  0.7356  0.7356  0.8025
  0.8025

 Free energy of the ion-electron system (eV)
  ---------------------------------------------------
  alpha Z        PSCENC =         0.01272961
  Ewald energy   TEWEN  =       609.22644439
  -Hartree energ DENC   =      -994.93593268
  -exchange      EXHF   =         0.00000000
  -V(xc)+E(xc)   XCENC  =        49.16266551
  PAW double counting   =      3425.14132772    -3428.70895243
  entropy T*S    EENTRO =        -0.00000000
  eigenvalues    EBANDS =      -169.61066002
  atomic energy  EATOM  =       474.14594963
  Solvation  Ediel_sol  =         0.00000000
  ---------------------------------------------------
  free energy    TOTEN  =       -35.56642827 eV

  energy without entropy =      -35.56642827  energy(sigma->0) =      -35.56642827


--------------------------------------------------------------------------------------------------------




----------------------------------------- Iteration    1(  27)  ---------------------------------------


    POTLOK:  cpu time   25.5797: real time   25.6420
    SETDIJ:  cpu time    0.0496: real time    0.0497
     EDDAV:  cpu time    9.5818: real time    9.6053
       DOS:  cpu time    0.0000: real time    0.0000
    CHARGE:  cpu time    2.7082: real time    2.7148
    MIXING:  cpu time    1.5158: real time    1.5195
    --------------------------------------------
      LOOP:  cpu time   39.4366: real time   39.5352

 eigenvalue-minimisations  :    28
 total energy-change (2. order) :-0.1545235E-04  (-0.2350882E-08)
 number of electron      14.0000000 magnetization 
 augmentation part        0.9732124 magnetization 

 Broyden mixing:
  rms(total) = 0.15909E-03    rms(broyden)= 0.15909E-03
  rms(prec ) = 0.15980E-03
  weight for this iteration     100.00

 eigenvalues of (default mixing * dielectric matrix)
  average eigenvalue GAMMA=   2.0467
  9.3052  6.3928  4.1847  2.6064  2.6064  2.4320  1.9405  1.9405  1.3207  1.3207
  1.0043  1.0043  1.0168  1.0168  1.0083  1.0083  1.0104  0.7350  0.7350  0.8319
  0.8038  0.8038

 Free energy of the ion-electron system (eV)
  ---------------------------------------------------
  alpha Z        PSCENC =         0.01272961
  Ewald energy   TEWEN  =       609.22644439
  -Hartree energ DENC   =      -994.93668388
  -exchange      EXHF   =         0.00000000
  -V(xc)+E(xc)   XCENC  =        49.16267462
  PAW double counting   =      3425.01325795    -3428.58090170
  entropy T*S    EENTRO =        -0.00000000
  eigenvalues    EBANDS =      -169.60991435
  atomic energy  EATOM  =       474.14594963
  Solvation  Ediel_sol  =         0.00000000
  ---------------------------------------------------
  free energy    TOTEN  =       -35.56644372 eV

  energy without entropy =      -35.56644372  energy(sigma->0) =      -35.56644372


--------------------------------------------------------------------------------------------------------




----------------------------------------- Iteration    1(  28)  ---------------------------------------


    POTLOK:  cpu time   25.5381: real time   25.6004
    SETDIJ:  cpu time    0.0496: real time    0.0497
     EDDAV:  cpu time    8.1110: real time    8.1308
       DOS:  cpu time    0.0000: real time    0.0000
    CHARGE:  cpu time    2.7165: real time    2.7231
    MIXING:  cpu time    1.5727: real time    1.5765
    --------------------------------------------
      LOOP:  cpu time   37.9893: real time   38.0840

 eigenvalue-minimisations  :    22
 total energy-change (2. order) :-0.8602524E-05  (-0.5861205E-08)
 number of electron      14.0000000 magnetization 
 augmentation part        0.9732132 magnetization 

 Broyden mixing:
  rms(total) = 0.85487E-04    rms(broyden)= 0.85487E-04
  rms(prec ) = 0.86144E-04
  weight for this iteration     100.00

 eigenvalues of (default mixing * dielectric matrix)
  average eigenvalue GAMMA=   2.0494
  9.3723  6.4516  4.2996  2.7632  2.3958  2.3958  2.0752  2.0752  1.5540  1.5540
  1.1999  1.1999  1.0051  1.0051  0.9486  0.9486  0.9523  0.9523  0.9084  0.7355
  0.7355  0.8037  0.8037

 Free energy of the ion-electron system (eV)
  ---------------------------------------------------
  alpha Z        PSCENC =         0.01272961
  Ewald energy   TEWEN  =       609.22644439
  -Hartree energ DENC   =      -994.93715562
  -exchange      EXHF   =         0.00000000
  -V(xc)+E(xc)   XCENC  =        49.16266337
  PAW double counting   =      3425.02424939    -3428.59189044
  entropy T*S    EENTRO =        -0.00000000
  eigenvalues    EBANDS =      -169.60944266
  atomic energy  EATOM  =       474.14594963
  Solvation  Ediel_sol  =         0.00000000
  ---------------------------------------------------
  free energy    TOTEN  =       -35.56645232 eV

  energy without entropy =      -35.56645232  energy(sigma->0) =      -35.56645232


--------------------------------------------------------------------------------------------------------




----------------------------------------- Iteration    1(  29)  ---------------------------------------


    POTLOK:  cpu time   25.5782: real time   25.6406
    SETDIJ:  cpu time    0.0497: real time    0.0498
     EDDAV:  cpu time   11.5211: real time   11.5493
       DOS:  cpu time    0.0000: real time    0.0000
    CHARGE:  cpu time    2.7194: real time    2.7260
    MIXING:  cpu time    1.6328: real time    1.6368
    --------------------------------------------
      LOOP:  cpu time   41.5027: real time   41.6062

 eigenvalue-minimisations  :    36
 total energy-change (2. order) :-0.4065086E-05  (-0.1188939E-08)
 number of electron      14.0000000 magnetization 
 augmentation part        0.9732123 magnetization 

 Broyden mixing:
  rms(total) = 0.55223E-04    rms(broyden)= 0.55223E-04
  rms(prec ) = 0.55589E-04
  weight for this iteration     100.00

 eigenvalues of (default mixing * dielectric matrix)
  average eigenvalue GAMMA=   2.0759
  9.4326  6.7060  4.6928  3.1686  2.6490  2.6490  2.2682  1.5489  1.5489  1.4525
  1.4525  1.2264  1.2264  1.0050  1.0050  1.0015  1.0015  0.8102  0.8102  0.7357
  0.7357  0.9375  0.8786  0.8786

 Free energy of the ion-electron system (eV)
  ---------------------------------------------------
  alpha Z        PSCENC =         0.01272961
  Ewald energy   TEWEN  =       609.22644439
  -Hartree energ DENC   =      -994.93745567
  -exchange      EXHF   =         0.00000000
  -V(xc)+E(xc)   XCENC  =        49.16264737
  PAW double counting   =      3424.98754335    -3428.55516679
  entropy T*S    EENTRO =        -0.00000000
  eigenvalues    EBANDS =      -169.60914828
  atomic energy  EATOM  =       474.14594963
  Solvation  Ediel_sol  =         0.00000000
  ---------------------------------------------------
  free energy    TOTEN  =       -35.56645639 eV

  energy without entropy =      -35.56645639  energy(sigma->0) =      -35.56645639


--------------------------------------------------------------------------------------------------------




[...]
  0.8056  0.8056  0.8550  0.7355  0.7355  0.7295

 Free energy of the ion-electron system (eV)
  ---------------------------------------------------
  alpha Z        PSCENC =         0.01272961
  Ewald energy   TEWEN  =       609.22644439
  -Hartree energ DENC   =      -994.93817477
  -exchange      EXHF   =         0.00000000
  -V(xc)+E(xc)   XCENC  =        49.16265796
  PAW double counting   =      3424.97301572    -3428.54062796
  entropy T*S    EENTRO =        -0.00000000
  eigenvalues    EBANDS =      -169.60845481
  atomic energy  EATOM  =       474.14594963
  Solvation  Ediel_sol  =         0.00000000
  ---------------------------------------------------
  free energy    TOTEN  =       -35.56646022 eV

  energy without entropy =      -35.56646022  energy(sigma->0) =      -35.56646022


--------------------------------------------------------------------------------------------------------




----------------------------------------- Iteration    1(  32)  ---------------------------------------


    POTLOK:  cpu time   25.6057: real time   25.6681
    SETDIJ:  cpu time    0.0496: real time    0.0497
     EDDAV:  cpu time    8.0653: real time    8.0850
       DOS:  cpu time    0.0000: real time    0.0000
    CHARGE:  cpu time    2.7269: real time    2.7335
    MIXING:  cpu time    1.8286: real time    1.8331
    --------------------------------------------
      LOOP:  cpu time   38.2776: real time   38.3730

 eigenvalue-minimisations  :    22
 total energy-change (2. order) :-0.5704883E-06  (-0.2311378E-09)
 number of electron      14.0000000 magnetization 
 augmentation part        0.9732095 magnetization 

 Broyden mixing:
  rms(total) = 0.36722E-05    rms(broyden)= 0.36722E-05
  rms(prec ) = 0.39058E-05
  weight for this iteration     100.00

 eigenvalues of (default mixing * dielectric matrix)
  average eigenvalue GAMMA=   2.1075
  9.6111  7.3351  5.4208  3.7343  2.6280  2.6280  2.4551  2.4551  1.9291  1.4951
  1.4951  1.5704  1.2673  1.2673  1.0049  1.0049  0.9662  0.9662  0.9977  0.9977
  0.8080  0.8080  0.7357  0.7357  0.8899  0.8899  0.8055

 Free energy of the ion-electron system (eV)
  ---------------------------------------------------
  alpha Z        PSCENC =         0.01272961
  Ewald energy   TEWEN  =       609.22644439
  -Hartree energ DENC   =      -994.93811330
  -exchange      EXHF   =         0.00000000
  -V(xc)+E(xc)   XCENC  =        49.16265567
  PAW double counting   =      3424.98658571    -3428.55419913
  entropy T*S    EENTRO =        -0.00000000
  eigenvalues    EBANDS =      -169.60851337
  atomic energy  EATOM  =       474.14594963
  Solvation  Ediel_sol  =         0.00000000
  ---------------------------------------------------
  free energy    TOTEN  =       -35.56646079 eV

  energy without entropy =      -35.56646079  energy(sigma->0) =      -35.56646079


--------------------------------------------------------------------------------------------------------




----------------------------------------- Iteration    1(  33)  ---------------------------------------


    POTLOK:  cpu time   25.5854: real time   25.6478
    SETDIJ:  cpu time    0.0494: real time    0.0495
     EDDAV:  cpu time    8.1062: real time    8.1260
       DOS:  cpu time    0.0000: real time    0.0000
    CHARGE:  cpu time    2.7206: real time    2.7272
    MIXING:  cpu time    1.8972: real time    1.9018
    --------------------------------------------
      LOOP:  cpu time   38.3605: real time   38.4671

 eigenvalue-minimisations  :    22
 total energy-change (2. order) :-0.4313747E-06  (-0.2115570E-09)
 number of electron      14.0000000 magnetization 
 augmentation part        0.9732093 magnetization 

 Broyden mixing:
  rms(total) = 0.82741E-05    rms(broyden)= 0.82741E-05
  rms(prec ) = 0.83137E-05
  weight for this iteration     100.00

 eigenvalues of (default mixing * dielectric matrix)
  average eigenvalue GAMMA=   2.1480
  9.6249  7.5939  5.6808  4.1560  2.7907  2.7907  2.7970  2.3957  1.9562  1.9562
  1.5225  1.5225  1.2353  1.2353  1.0050  1.0050  1.2451  0.9679  0.9679  1.0083
  1.0083  0.8100  0.8100  0.7356  0.7356  0.8671  0.8609  0.8609

 Free energy of the ion-electron system (eV)
  ---------------------------------------------------
  alpha Z        PSCENC =         0.01272961
  Ewald energy   TEWEN  =       609.22644439
  -Hartree energ DENC   =      -994.93811677
  -exchange      EXHF   =         0.00000000
  -V(xc)+E(xc)   XCENC  =        49.16265662
  PAW double counting   =      3424.98596950    -3428.55358433
  entropy T*S    EENTRO =        -0.00000000
  eigenvalues    EBANDS =      -169.60850988
  atomic energy  EATOM  =       474.14594963
  Solvation  Ediel_sol  =         0.00000000
  ---------------------------------------------------
  free energy    TOTEN  =       -35.56646123 eV

  energy without entropy =      -35.56646123  energy(sigma->0) =      -35.56646123


--------------------------------------------------------------------------------------------------------




----------------------------------------- Iteration    1(  34)  ---------------------------------------


    POTLOK:  cpu time   25.5461: real time   25.6083
    SETDIJ:  cpu time    0.0497: real time    0.0498
     EDDAV:  cpu time    9.5605: real time    9.5839
       DOS:  cpu time    0.0000: real time    0.0000
    CHARGE:  cpu time    2.7180: real time    2.7246
    MIXING:  cpu time    1.9683: real time    1.9731
    --------------------------------------------
      LOOP:  cpu time   39.8440: real time   39.9435

 eigenvalue-minimisations  :    28
 total energy-change (2. order) :-0.2030711E-06  (-0.1838476E-09)
 number of electron      14.0000000 magnetization 
 augmentation part        0.9732095 magnetization 

 Broyden mixing:
  rms(total) = 0.27788E-05    rms(broyden)= 0.27788E-05
  rms(prec ) = 0.28140E-05
  weight for this iteration     100.00

 eigenvalues of (default mixing * dielectric matrix)
  average eigenvalue GAMMA=   2.1425
  9.6846  7.7205  5.9374  4.4203  3.2023  2.6893  2.6893  2.4240  2.0232  2.0232
  1.5359  1.5359  1.3956  1.2308  1.2308  1.0049  1.0049  0.9717  0.9717  0.9732
  0.9732  0.8877  0.8877  0.8081  0.8081  0.8695  0.7355  0.7355  0.7571

 Free energy of the ion-electron system (eV)
  ---------------------------------------------------
  alpha Z        PSCENC =         0.01272961
  Ewald energy   TEWEN  =       609.22644439
  -Hartree energ DENC   =      -994.93807900
  -exchange      EXHF   =         0.00000000
  -V(xc)+E(xc)   XCENC  =        49.16265555
  PAW double counting   =      3424.98844639    -3428.55606192
  entropy T*S    EENTRO =        -0.00000000
  eigenvalues    EBANDS =      -169.60854608
  atomic energy  EATOM  =       474.14594963
  Solvation  Ediel_sol  =         0.00000000
  ---------------------------------------------------
  free energy    TOTEN  =       -35.56646143 eV

  energy without entropy =      -35.56646143  energy(sigma->0) =      -35.56646143


--------------------------------------------------------------------------------------------------------




----------------------------------------- Iteration    1(  35)  ---------------------------------------


    POTLOK:  cpu time   25.4920: real time   25.5541
    SETDIJ:  cpu time    0.0496: real time    0.0497
     EDDAV:  cpu time   10.8308: real time   10.8574
       DOS:  cpu time    0.0000: real time    0.0000
    --------------------------------------------
      LOOP:  cpu time   36.3738: real time   36.4646

 eigenvalue-minimisations  :    33
 total energy-change (2. order) :-0.7655945E-07  (-0.1618812E-09)
 number of electron      14.0000000 magnetization 
 augmentation part        0.9732095 magnetization 

 Free energy of the ion-electron system (eV)
  ---------------------------------------------------
  alpha Z        PSCENC =         0.01272961
  Ewald energy   TEWEN  =       609.22644439
  -Hartree energ DENC   =      -994.93806562
  -exchange      EXHF   =         0.00000000
  -V(xc)+E(xc)   XCENC  =        49.16265464
  PAW double counting   =      3424.98792425    -3428.55553953
  entropy T*S    EENTRO =        -0.00000000
  eigenvalues    EBANDS =      -169.60855888
  atomic energy  EATOM  =       474.14594963
  Solvation  Ediel_sol  =         0.00000000
  ---------------------------------------------------
  free energy    TOTEN  =       -35.56646151 eV

  energy without entropy =      -35.56646151  energy(sigma->0) =      -35.56646151


--------------------------------------------------------------------------------------------------------




 average (electrostatic) potential at core
  the test charge radii are     0.9051  0.8471  0.6256
  (the norm of the test charge is              1.0000)
       1 -84.6899       2 -83.4774       3 -39.7154       4 -39.7403       5 -38.1863
       6 -38.0443       7 -38.1806
 
 
 
 E-fermi :  -5.3187     XC(G=0):  -0.0321     alpha+bet : -0.0080


 k-point     1 :       0.0000    0.0000    0.0000
  band No.  band energies     occupation 
      1     -21.8443      2.00000
      2     -16.2267      2.00000
      3     -12.0313      2.00000
      4     -10.7445      2.00000
      5      -9.7257      2.00000
      6      -8.8025      2.00000
      7      -5.4292      2.00000
      8      -0.6267      0.00000
      9      -0.0381      0.00000
     10       0.0060      0.00000
     11       0.0887      0.00000


--------------------------------------------------------------------------------------------------------


 soft charge-density along one line, spin component           1
         0         1         2         3         4         5         6         7         8         9
 total charge-density along one line
 
 pseudopotential strength for first ion, spin component:           1
 25.855  26.404   0.057  -0.120   0.005   0.069  -0.147   0.005
 26.404  26.965   0.058  -0.123   0.005   0.070  -0.150   0.006
  0.057   0.058  -5.266  -0.048   0.005  -5.896  -0.056   0.006
 -0.120  -0.123  -0.048  -5.117   0.006  -0.056  -5.720   0.007
  0.005   0.005   0.005   0.006  -5.298   0.006   0.007  -5.934
  0.069   0.070  -5.896  -0.056   0.006  -6.566  -0.066   0.007
 -0.147  -0.150  -0.056  -5.720   0.007  -0.066  -6.359   0.008
  0.005   0.006   0.006   0.007  -5.934   0.007   0.008  -6.611
 total augmentation occupancy for first ion, spin component:           1
 18.481 -21.423   2.772 -10.201  -0.353  -1.328   6.262   0.348
-21.423  25.787  -3.118  10.487   0.267   1.689  -6.707  -0.279
  2.772  -3.118  19.720   3.362   0.178 -12.733  -2.599  -0.176
-10.201  10.487   3.362  11.990   0.123  -2.601  -6.886  -0.126
 -0.353   0.267   0.178   0.123  20.658  -0.176  -0.125 -13.354
 -1.328   1.689 -12.733  -2.601  -0.176   8.289   1.885   0.161
  6.262  -6.707  -2.599  -6.886  -0.125   1.885   4.122   0.113
  0.348  -0.279  -0.176  -0.126 -13.354   0.161   0.113   8.655


------------------------ aborting loop because EDIFF is reached ----------------------------------------


    CHARGE:  cpu time    2.7231: real time    2.7297
    FORLOC:  cpu time    2.8512: real time    2.8582
    FORNL :  cpu time    0.5614: real time    0.5628
    STRESS:  cpu time    4.4046: real time    4.4153
    FORHAR:  cpu time    8.5468: real time    8.5676
    MIXING:  cpu time    2.0367: real time    2.0417
    OFIELD:  cpu time    0.0000: real time    0.0000

  FORCE on cell =-STRESS in cart. coord.  units (eV):
  Direction    XX          YY          ZZ          XY          YZ          ZX
  --------------------------------------------------------------------------------------
  Alpha Z     0.01273     0.01273     0.01273
  Ewald     187.76393   257.82101   163.64178    43.99917   108.14661    36.71134
  Hartree   304.34208   362.23322   328.36274    33.14607    68.22556    28.16069
  E(xc)     -51.75301   -51.76085   -51.97132     0.01530     0.12046     0.01727
  Local    -655.92258  -788.70620  -678.68883   -78.22248  -170.94413   -65.82129
  n-local    17.72379    18.38562    19.08653     0.31509     0.36825     0.30363
  augment    22.70794    22.89653    25.19114    -0.10297    -1.16991    -0.11088
  Kinetic   176.71628   180.55787   195.04547     0.84037    -4.64493     0.62141
  Fock        0.00000     0.00000     0.00000     0.00000     0.00000     0.00000
  -------------------------------------------------------------------------------------
  Total       1.59116     1.43992     0.68024    -0.00944     0.10193    -0.11783
  in kB       0.05946     0.05381     0.02542    -0.00035     0.00381    -0.00440
  external pressure =        0.05 kB  Pullay stress =        0.00 kB


 VOLUME and BASIS-vectors are now :
 -----------------------------------------------------------------------------
  energy-cutoff  :     1000.00
  volume of cell :    42875.00
      direct lattice vectors                 reciprocal lattice vectors
    35.000000000  0.000000000  0.000000000     0.028571429  0.000000000  0.000000000
     0.000000000 35.000000000  0.000000000     0.000000000  0.028571429  0.000000000
     0.000000000  0.000000000 35.000000000     0.000000000  0.000000000  0.028571429

  length of vectors
    35.000000000 35.000000000 35.000000000     0.028571429  0.028571429  0.028571429


 FORCES acting on ions
    electron-ion (+dipol)            ewald-force                    non-local-force                 convergence-correction
 -----------------------------------------------------------------------------------------------
   0.331E+02 0.606E+02 0.989E+02   -.329E+02 -.460E+02 -.137E+03   0.167E-01 -.141E+02 0.381E+02   0.927E-06 0.214E-05 0.274E-05
   -.319E+02 -.716E+02 -.637E+02   0.337E+02 0.757E+02 0.673E+02   -.182E+01 -.406E+01 -.375E+01   -.271E-06 -.990E-06 0.434E-06
   -.423E+02 0.697E+02 0.436E+01   0.470E+02 -.760E+02 -.415E+01   -.421E+01 0.568E+01 -.321E+00   0.166E-06 0.649E-06 0.924E-06
   0.753E+02 0.302E+02 -.988E+01   -.828E+02 -.326E+02 0.116E+02   0.660E+01 0.209E+01 -.162E+01   0.438E-06 0.559E-06 0.890E-06
   0.323E+02 -.575E+02 -.308E+01   -.359E+02 0.625E+02 0.270E+01   0.333E+01 -.464E+01 0.359E+00   -.377E-06 -.245E-06 -.223E-06
   -.500E+01 0.972E+01 -.643E+02   0.515E+01 -.114E+02 0.700E+02   -.161E+00 0.157E+01 -.532E+01   -.252E-06 -.652E-06 -.391E-06
   -.601E+02 -.260E+02 0.867E+01   0.657E+02 0.278E+02 -.102E+02   -.526E+01 -.170E+01 0.145E+01   0.111E-06 -.395E-06 -.259E-06
 -----------------------------------------------------------------------------------------------
   0.150E+01 0.151E+02 -.289E+02   -.142E-13 -.142E-13 0.178E-13   -.150E+01 -.151E+02 0.289E+02   0.742E-06 0.106E-05 0.411E-05
 
 
 POSITION                                       TOTAL-FORCE (eV/Angst)
 -----------------------------------------------------------------------------------
     34.45894      0.02958     34.79100         0.248780      0.523743     -0.205903
     34.92120      1.04239      0.73846         0.033867      0.079478     -0.070634
      0.05555     34.21388     34.86971         0.420007     -0.673197     -0.105544
     33.53033     34.72529      0.05314        -0.830034     -0.283256      0.090984
     34.27985      1.91941      0.67198        -0.221781      0.326774     -0.021459
     34.94924      0.72382      1.78551        -0.003264     -0.114716      0.409618
      0.92643      1.35660      0.46200         0.352424      0.141174     -0.097062
 -----------------------------------------------------------------------------------
    total drift:                               -0.000025     -0.000036     -0.000024


--------------------------------------------------------------------------------------------------------



  FREE ENERGIE OF THE ION-ELECTRON SYSTEM (eV)
  ---------------------------------------------------
  free  energy   TOTEN  =       -35.56646151 eV

  energy  without entropy=      -35.56646151  energy(sigma->0) =      -35.56646151
 


--------------------------------------------------------------------------------------------------------


    POTLOK:  cpu time   25.4930: real time   25.5551


--------------------------------------------------------------------------------------------------------


 writing wavefunctions
     LOOP+:  cpu time 1595.0417: real time 1600.0924
    4ORBIT:  cpu time    0.0000: real time    0.0000

 total amount of memory used by VASP on root node  5843482. kBytes
========================================================================

   base      :      30000. kBytes
   nonl-proj :      58491. kBytes
   fftplans  :    1964666. kBytes
   grid      :    3756461. kBytes
   one-center:          1. kBytes
   wavefun   :      33863. kBytes
 
  
  
 General timing and accounting informations for this job:
 ========================================================
  
                  Total CPU time used (sec):     2004.262
                            User time (sec):     1830.023
                          System time (sec):      174.240
                         Elapsed time (sec):     2010.321
  
                   Maximum memory used (kb):     9032432.
                   Average memory used (kb):           0.
  
                          Minor page faults:       275637
                          Major page faults:            6
                 Voluntary context switches:          779
 
 PROFILE, used timers:      14
 =============================
 
 index                 routine                    time                            calls level
----------------------------------------------------------------------------------------------
    1    total_time                         2010.322729                                1   1
    2      w1_copy                               3.273729                           4346   2
    3      fftwav_mpi                          174.153288                           1673   2
    4      fftext_mpi                            0.759259                             11   2
    5      overl                                 0.001059                           2506   2
    6      orth1                                 4.208509                            826   2
    7      lincom                                0.224140                             36   2
    8      eccp                                  5.892984                            385   2
    9      hamiltmu                            165.346205                            275   2
   10        vhamil                               35.714049                         1445   3
   11        overl1                                0.001062                         1445   3
   12        kinhamil                            102.057851                         1445   3
   13          fftext_mpi                          101.100794                       1445   4
   14      pdssyex_zheevx                        0.029082                             35   2
 
 Flat profile
 ============
 
             routine name                   CPU           calls
 ---------------------------------------------------------------
 total_time                           1656.434474           1
 fftwav_mpi                            174.153288        1673
 fftext_mpi                            101.860053        1456
 vhamil                                 35.714049        1445
 hamiltmu                               27.573243         275
 eccp                                    5.892984         385
 orth1                                   4.208509         826
 w1_copy                                 3.273729        4346
 kinhamil                                0.957057        1445
 lincom                                  0.224140          36
 pdssyex_zheevx                          0.029082          35
 overl1                                  0.001062        1445
 overl                                   0.001059        2506
 ---------------------------------------------------------------
  summed up times    2010.32272887230     
 
Profiling took   0.009172  0.005754  0.003357  0.003351 seconds
Profiling took   0.006301 seconds
