
 Primary working directories    : /scratch/sirous/44547/molpro.wRcvyMmS2z
 Secondary working directories  : /scratch/sirous/44547/molpro.wRcvyMmS2z
 Wavefunction directory         : /scratch/sirous/44547/
 Main file repository           : /scratch/sirous/44547/molpro.wRcvyMmS2z/

 id        : karlovklimes

 Nodes                      nprocs
 nc-12.cc.karlov.mff.cuni.cz    4

 Using customized tuning parameters: mindgm=1; mindgv=20; mindgc=4; mindgr=1; noblas=0; minvec=7
 default implementation of scratch files=sf  


 Variables initialized (934), CPU time= 0.00 sec
 ***,CH3C6H4CN+CF3CN+BF3
 memory,500,m
 gdirect
 gthresh,energy=1.d-8,twoint=1.d-15,oneint=1.d-15,zero=1.d-15,orbital=1.d-8,grid=1.d-8
 symmetry,nosym
 geomtyp=xyz
                                                                                 ! Geometry
 geometry={
 O1        -0.786562022    0.045168441     -0.007189119
 H1        0.177706774    0.012695896     -0.006835389
 C1        -1.247990941    -1.290283536     0.001083621
 H2        -2.334277443    -1.2588971     0.0002212
 H3        -0.925965746    -1.849768096     -0.880445382
 H4        -0.927027831    -1.838462882     0.89007652
 O2        4.344405289044955    -0.12404423962747527     -0.00236272186171902
 H5        4.783609428044956    0.26410795937252474     -0.7622354038617191
 H6        4.782289583044955    0.2785600393725247     0.7507268101382809
 }
 
 
 
 basis=aug-cc-pv5z
 
 
 
                                                                                 ! Dimer Calculation
 {rhf,accu=1.d-8;orbital,2101.2}
 eab_HF=energy
 
 
                                                                                 !monomer A
 dummy,7,8,9;                                                                    ! NOW MONOMER B IS DUMMY
 {rhf,accu=1.d-8;orbital,2201.2}
 ea_HF=energy
                                                                                 !monomer B
 dummy,1,2,3,4,5,6;                                                              !NOW MONOMER A IS DUMMY
 {rhf,accu=1.d-8;orbital,2301.2}
 eb_HF=energy
 
 E_AB_int=eab_HF-ea_HF-eb_HF
 
 
 text,results in hartree
 show,E_AB_int
 
 Commands  initialized (763), CPU time= 0.02 sec, 617 directives.
 Default parameters read. Elapsed time= 0.22 sec

 Checking input...
 Passed
1


                                         ***  PROGRAM SYSTEM MOLPRO  ***
                                       Copyright, TTI GmbH Stuttgart, 2015
                                    Version 2019.2 linked Jun  8 2019 11:26:33


 **********************************************************************************************************************************
 LABEL *   CH3C6H4CN+CF3CN+BF3                                                           
  64 bit mpp version                                                                     DATE: 12-Oct-19          TIME: 21:25:08  
 **********************************************************************************************************************************

 SHA1:             8135a10abc80eafa5b3ae28ffc55be4890dc4c84
 **********************************************************************************************************************************

 THRESHOLDS:

 ZERO    =  1.00D-15  ONEINT  =  1.00D-15  TWOINT  =  1.00D-15  PREFAC  =  1.00D-14  XXXXXX  =  1.00D-09  EORDER  =  1.00D-04
 ENERGY  =  1.00D-08  ETEST   =  0.00D+00  EDENS   =  0.00D+00  THRDEDEF=  1.00D-06  GRADIENT=  1.00D-02  STEP    =  1.00D-03
 ORBITAL =  1.00D-08  CIVEC   =  1.00D-05  COEFF   =  1.00D-04  PRINTCI =  5.00D-02  PUNCHCI =  9.90D+01  OPTGRAD =  3.00D-04
 OPTENERG=  1.00D-06  OPTSTEP =  3.00D-04  THRGRAD =  1.00D-10  COMPRESS=  1.00D-11  VARMIN  =  1.00D-07  VARMAX  =  1.00D-03
 THRDOUB =  0.00D+00  THRDIV  =  1.00D-05  THRRED  =  1.00D-07  THRPSP  =  1.00D+00  THRDC   =  1.00D-10  THRCS   =  1.00D-10
 THRNRM  =  1.00D-08  THREQ   =  0.00D+00  THRDE   =  1.00D+00  THRREF  =  1.00D-05  SPARFAC =  1.00D+00  THRDLP  =  1.00D-07
 THRDIA  =  1.00D-10  THRDLS  =  1.00D-07  THRGPS  =  0.00D+00  THRKEX  =  0.00D+00  THRDIS  =  2.00D-01  THRVAR  =  1.00D-10
 THRLOC  =  1.00D-06  THRGAP  =  1.00D-06  THRLOCT = -1.00D+00  THRGAPT = -1.00D+00  THRORB  =  1.00D-06  THRMLTP =  0.00D+00
 THRCPQCI=  1.00D-10  KEXTA   =  0.00D+00  THRCOARS=  0.00D+00  SYMTOL  =  1.00D-06  GRADTOL =  1.00D-06  THROVL  =  1.00D-08
 THRORTH =  1.00D-08  GRID    =  1.00D-08  GRIDMAX =  1.00D-03  DTMAX   =  0.00D+00  THROCCDE=  1.00D-01  THROCCDE=  1.00D-01
 THRPRINT=  2.50D-01


 Variable memory set to  500000000 words,  buffer space 

 SETTING GEOMTYP        =    XYZ
 ZSYMEL=NOSYM

 SETTING BASIS          =    AUG-CC-PV5Z


 Recomputing integrals since basis changed


 Using spherical harmonics

 Library entry O      S aug-cc-pV5Z          selected for orbital group  1
 Library entry O      P aug-cc-pV5Z          selected for orbital group  1
 Library entry O      D aug-cc-pV5Z          selected for orbital group  1
 Library entry O      F aug-cc-pV5Z          selected for orbital group  1
 Library entry O      G aug-cc-pV5Z          selected for orbital group  1
 Library entry O      H aug-cc-pV5Z          selected for orbital group  1
 Library entry H      S aug-cc-pV5Z          selected for orbital group  2
 Library entry H      P aug-cc-pV5Z          selected for orbital group  2
 Library entry H      D aug-cc-pV5Z          selected for orbital group  2
 Library entry H      F aug-cc-pV5Z          selected for orbital group  2
 Library entry H      G aug-cc-pV5Z          selected for orbital group  2
 Library entry C      S aug-cc-pV5Z          selected for orbital group  3
 Library entry C      P aug-cc-pV5Z          selected for orbital group  3
 Library entry C      D aug-cc-pV5Z          selected for orbital group  3
 Library entry C      F aug-cc-pV5Z          selected for orbital group  3
 Library entry C      G aug-cc-pV5Z          selected for orbital group  3
 Library entry C      H aug-cc-pV5Z          selected for orbital group  3


 PROGRAM * SEWARD (Integral evaluation for generally contracted gaussian basis sets)     Author: Roland Lindh, 1990

 Geometry written to block  1 of record 700


 Point group  C1  



 ATOMIC COORDINATES

 NR  ATOM    CHARGE       X              Y              Z

   1  O1      8.00   -1.486386802    0.085355983   -0.013585466
   2  H1      1.00    0.335817133    0.023991766   -0.012917013
   3  C1      6.00   -2.358361084   -2.438282506    0.002047747
   4  H2      1.00   -4.411145066   -2.378970738    0.000418007
   5  H3      1.00   -1.749821661   -3.495555095   -1.663800640
   6  H4      1.00   -1.751828710   -3.474191337    1.682000853
   7  O2      8.00    8.209736170   -0.234409640   -0.004464897
   8  H5      1.00    9.039711706    0.499091711   -1.440416156
   9  H6      1.00    9.037217560    0.526402184    1.418668066

 Bond lengths in Bohr (Angstrom)

 1-2  1.823237010  1-3  2.670081416  3-4  2.053641307  3-5  2.064750931  3-6  2.064759324
     ( 0.964815476)     ( 1.412946237)     ( 1.086740179)     ( 1.092619139)     ( 1.092623580)

 7-8  1.813515822  7-9  1.813523507
     ( 0.959671245)     ( 0.959675312)

 Bond angles

  1-3-4  107.40559298   1-3-5  112.51964705   1-3-6  112.52114043   2-1-3  107.13200477

  4-3-5  107.98411747   4-3-6  107.98497413   5-3-6  108.23763291   8-7-9  104.05491273

 NUCLEAR CHARGE:                   28
 NUMBER OF PRIMITIVE AOS:        1245
 NUMBER OF SYMMETRY AOS:          930
 NUMBER OF CONTRACTIONS:          861   (  861A   )
 NUMBER OF CORE ORBITALS:           3   (    3A   )
 NUMBER OF VALENCE ORBITALS:       18   (   18A   )


 NUCLEAR REPULSION ENERGY   67.01696582


 Eigenvalues of metric

         1 0.201E-05 0.226E-05 0.272E-05 0.379E-05 0.571E-05 0.941E-05 0.105E-04 0.121E-04


 OPERATOR DM      FOR CENTER  0  COORDINATES:    0.000000    0.000000    0.000000


 **********************************************************************************************************************************
 DATASETS  * FILE   NREC   LENGTH (MB)   RECORD NAMES
              1      18       57.10       500      610      700      900      950      970     1000      129      960     1100   
                                          VAR    BASINP    GEOM    SYMINP    ZMAT    AOBASIS   BASIS     P2S    ABASIS      S 
                                         1400     1410     1200     1210     1080     1600     1650     1700   
                                           T        V       H0       H01     AOSYM     SMH    MOLCAS    OPER   

 PROGRAMS   *        TOTAL       INT
 CPU TIMES  *         1.64      1.45
 REAL TIME  *         2.90 SEC
 DISK USED  *        57.81 MB (local),      231.24 MB (total)
 GA USED    *         0.00 MB       (max)       0.00 MB       (current)
 **********************************************************************************************************************************


 PROGRAM * RHF-SCF (CLOSED SHELL)       Authors: W. Meyer, H.-J. Werner


 NUMBER OF ELECTRONS:      14+   14-    SPACE SYMMETRY=1    SPIN SYMMETRY: Singlet 
 CONVERGENCE THRESHOLDS:    1.00E-04 (Density)    1.00E-09 (Energy)
 INTEGRAL THRESHOLDS:       1.00E-12 (Initial)    1.00E-12 (Final)
 MAX. NUMBER OF ITERATIONS:       60
 INTERPOLATION TYPE:            DIIS
 INTERPOLATION STEPS:              2 (START)      1 (STEP)
 LEVEL SHIFTS:                  0.00 (CLOSED)  0.00 (OPEN) 



 Orbital guess generated from atomic densities. Full valence occupancy:   21

 Molecular orbital dump at record        2101.2

 Initial occupancy:  14

 Direct Fock-matrix evaluation.        Authors: Roland Lindh & Martin Schuetz (1993/96)

 Integral Threshold:                  0.1D-11
 Threshold for writing integrals:     0.1D-06
 Prescreening on density matrix:        ON 
 Calculation will be performed fully direct        

 ITERATION   DDIFF            GRAD            ENERGY        2-EL.EN.            DIPOLE MOMENTS         DIIS   CPU(IT)  CPU(TOT)
    1      0.000D+00      0.000D+00      -191.09598698    277.280676    1.51484   -0.02054   -0.00156    0   1034.7   1052.7     start
    2      0.000D+00      0.268D-02      -191.15069194    271.061122    0.89748   -0.00785   -0.00090    1   1000.6   2053.4     diag
    3      0.147D-02      0.158D-02      -191.16887911    273.905092    1.03486   -0.04754   -0.00085    2    956.4   3009.7     diag
    4      0.542D-03      0.219D-03      -191.16958464    273.644573    1.02893   -0.04987   -0.00082    3    918.8   3928.5     diag
    5      0.103D-03      0.512D-04      -191.16963976    273.670534    1.02302   -0.05487   -0.00079    4    883.7   4812.2     diag
    6      0.308D-04      0.109D-04      -191.16964250    273.666339    1.02263   -0.05473   -0.00079    5    837.7   5649.9     diag
    7      0.938D-05      0.481D-05      -191.16964278    273.666494    1.02239   -0.05543   -0.00078    6    776.7   6426.6     diag
    8      0.252D-05      0.116D-05      -191.16964282    273.666596    1.02220   -0.05546   -0.00078    7    739.7   7166.3     diag
    9      0.112D-05      0.253D-06      -191.16964282    273.666669    1.02217   -0.05548   -0.00078    8    649.0   7815.3     diag
   10      0.227D-06      0.609D-07      -191.16964282    273.666603    1.02216   -0.05548   -0.00078    0    538.1   8353.5     orth

 Final occupancy:  14

 !RHF STATE  1.1 Energy              -191.169642821442
 Nuclear energy                        67.01696582
 One-electron energy                 -395.01991038
 Two-electron energy                  136.83330173
 Virial quotient                       -1.00102197
 !RHF STATE  1.1 Dipole moment          1.02215971    -0.05548194    -0.00078269
 Dipole moment /Debye                   2.59790068    -0.14101178    -0.00198927

 Orbital energies:

         1.1          2.1          3.1          4.1          5.1          6.1          7.1          8.1          9.1         10.1
    -20.570756   -20.550337   -11.262979    -1.357863    -1.352533    -0.918841    -0.721663    -0.685845    -0.614680    -0.592053

        11.1         12.1         13.1         14.1         15.1         16.1
     -0.589165    -0.516773    -0.498260    -0.444907     0.019544     0.030532


 HOMO     14.1    -0.444907 =     -12.1065eV
 LUMO     15.1     0.019544 =       0.5318eV
 LUMO-HOMO         0.464451 =      12.6384eV


 **********************************************************************************************************************************
 DATASETS  * FILE   NREC   LENGTH (MB)   RECORD NAMES
              1      18       57.10       500      610      700      900      950      970     1000      129      960     1100   
                                          VAR    BASINP    GEOM    SYMINP    ZMAT    AOBASIS   BASIS     P2S    ABASIS      S 
                                         1400     1410     1200     1210     1080     1600     1650     1700   
                                           T        V       H0       H01     AOSYM     SMH    MOLCAS    OPER   

              2       4       17.89       700     1000      520     2101   
                                         GEOM     BASIS   MCVARS     RHF  

 PROGRAMS   *        TOTAL   RHF-SCF       INT
 CPU TIMES  *      8355.94   8354.30      1.45
 REAL TIME  *      8416.90 SEC
 DISK USED  *       125.65 MB (local),      502.62 MB (total)
 SF USED    *         8.91 MB
 GA USED    *         0.00 MB       (max)       0.00 MB       (current)
 **********************************************************************************************************************************
 SETTING EAB_HF         =      -191.16964282  AU                              

 Dummy atoms: O2  H5  H6


 Recomputing one-electron integrals since nuclear charges changed


 PROGRAM * SEWARD (Integral evaluation for generally contracted gaussian basis sets)     Author: Roland Lindh, 1990

 Geometry written to block  1 of record 700


 Point group  C1  



 ATOMIC COORDINATES

 NR  ATOM    CHARGE       X              Y              Z

   1  O1      8.00   -1.486386802    0.085355983   -0.013585466
   2  H1      1.00    0.335817133    0.023991766   -0.012917013
   3  C1      6.00   -2.358361084   -2.438282506    0.002047747
   4  H2      1.00   -4.411145066   -2.378970738    0.000418007
   5  H3      1.00   -1.749821661   -3.495555095   -1.663800640
   6  H4      1.00   -1.751828710   -3.474191337    1.682000853
   7  O2      0.00    8.209736170   -0.234409640   -0.004464897
   8  H5      0.00    9.039711706    0.499091711   -1.440416156
   9  H6      0.00    9.037217560    0.526402184    1.418668066

 Bond lengths in Bohr (Angstrom)

 1-2  1.823237010  1-3  2.670081416  3-4  2.053641307  3-5  2.064750931  3-6  2.064759324
     ( 0.964815476)     ( 1.412946237)     ( 1.086740179)     ( 1.092619139)     ( 1.092623580)

 7-8  1.813515822  7-9  1.813523507
     ( 0.959671245)     ( 0.959675312)

 Bond angles

  1-3-4  107.40559298   1-3-5  112.51964705   1-3-6  112.52114043   2-1-3  107.13200477

  4-3-5  107.98411747   4-3-6  107.98497413   5-3-6  108.23763291   8-7-9  104.05491273

 NUCLEAR CHARGE:                   18
 NUMBER OF PRIMITIVE AOS:        1245
 NUMBER OF SYMMETRY AOS:          930
 NUMBER OF CONTRACTIONS:          861   (  861A   )
 NUMBER OF CORE ORBITALS:           2   (    2A   )
 NUMBER OF VALENCE ORBITALS:       12   (   12A   )

 MOLECULE CHANGED: INITIALIZING OCCUPATION AND DUMP RECORDS


 NUCLEAR REPULSION ENERGY   40.42326361


 Eigenvalues of metric

         1 0.201E-05 0.226E-05 0.272E-05 0.379E-05 0.571E-05 0.941E-05 0.105E-04 0.121E-04


 OPERATOR DM      FOR CENTER  0  COORDINATES:    0.000000    0.000000    0.000000


 **********************************************************************************************************************************
 DATASETS  * FILE   NREC   LENGTH (MB)   RECORD NAMES
              1      18       57.10       500      610      700      900      950      970     1000      129      960     1100   
                                          VAR    BASINP    GEOM    SYMINP    ZMAT    AOBASIS   BASIS     P2S    ABASIS      S 
                                         1400     1410     1200     1210     1080     1600     1650     1700   
                                           T        V       H0       H01     AOSYM     SMH    MOLCAS    OPER   

              2       4       17.89       700     1000      520     2101   
                                         GEOM     BASIS   MCVARS     RHF  

 PROGRAMS   *        TOTAL       INT   RHF-SCF       INT
 CPU TIMES  *      8357.03      1.08   8354.30      1.45
 REAL TIME  *      8418.12 SEC
 DISK USED  *       125.65 MB (local),      502.62 MB (total)
 SF USED    *         8.91 MB
 GA USED    *         0.00 MB       (max)       0.00 MB       (current)
 **********************************************************************************************************************************


 PROGRAM * RHF-SCF (CLOSED SHELL)       Authors: W. Meyer, H.-J. Werner


 NUMBER OF ELECTRONS:       9+    9-    SPACE SYMMETRY=1    SPIN SYMMETRY: Singlet 
 CONVERGENCE THRESHOLDS:    1.00E-04 (Density)    1.00E-09 (Energy)
 INTEGRAL THRESHOLDS:       1.00E-12 (Initial)    1.00E-12 (Final)
 MAX. NUMBER OF ITERATIONS:       60
 INTERPOLATION TYPE:            DIIS
 INTERPOLATION STEPS:              2 (START)      1 (STEP)
 LEVEL SHIFTS:                  0.00 (CLOSED)  0.00 (OPEN) 



 Orbital guess generated from atomic densities. Full valence occupancy:   14

 Molecular orbital dump at record        2201.2

 Initial occupancy:   9

 Direct Fock-matrix evaluation.        Authors: Roland Lindh & Martin Schuetz (1993/96)

 Integral Threshold:                  0.1D-11
 Threshold for writing integrals:     0.1D-06
 Prescreening on density matrix:        ON 
 Calculation will be performed fully direct        

 ITERATION   DDIFF            GRAD            ENERGY        2-EL.EN.            DIPOLE MOMENTS         DIIS   CPU(IT)  CPU(TOT)
    1      0.000D+00      0.000D+00      -115.06476664    164.638024    0.66792   -0.78371    0.00498    0    979.2    993.6     start
    2      0.000D+00      0.225D-02      -115.09323180    162.042606    0.34900   -0.46102    0.00291    1    950.2   1943.8     diag
    3      0.972D-03      0.123D-02      -115.10070168    163.310447    0.41200   -0.58728    0.00372    2    909.9   2853.8     diag
    4      0.354D-03      0.244D-03      -115.10123971    163.133037    0.40865   -0.58046    0.00367    3    881.9   3735.6     diag
    5      0.909D-04      0.496D-04      -115.10127502    163.144471    0.40303   -0.58327    0.00369    4    841.9   4577.5     diag
    6      0.256D-04      0.936D-05      -115.10127667    163.142316    0.40287   -0.58403    0.00369    5    785.2   5362.7     diag
    7      0.820D-05      0.204D-05      -115.10127675    163.141852    0.40260   -0.58421    0.00369    6    728.5   6091.3     diag
    8      0.205D-05      0.545D-06      -115.10127675    163.142246    0.40257   -0.58423    0.00369    7    635.8   6727.0     diag
    9      0.367D-06      0.169D-06      -115.10127675    163.142071    0.40256   -0.58423    0.00369    0    522.6   7249.6     orth

 Final occupancy:   9

 !RHF STATE  1.1 Energy              -115.101276754732
 Nuclear energy                        40.42326361
 One-electron energy                 -237.09557566
 Two-electron energy                   81.57103530
 Virial quotient                       -1.00099756
 !RHF STATE  1.1 Dipole moment          0.40255675    -0.58422953     0.00369492
 Dipole moment /Debye                   1.02313017    -1.48486608     0.00939094

 Orbital energies:

         1.1          2.1          3.1          4.1          5.1          6.1          7.1          8.1          9.1         10.1
    -20.557475   -11.269057    -1.359536    -0.925122    -0.692686    -0.621099    -0.595581    -0.504638    -0.451558     0.017041

        11.1
      0.029210


 HOMO      9.1    -0.451558 =     -12.2875eV
 LUMO     10.1     0.017041 =       0.4637eV
 LUMO-HOMO         0.468599 =      12.7512eV


 **********************************************************************************************************************************
 DATASETS  * FILE   NREC   LENGTH (MB)   RECORD NAMES
              1      18       57.10       500      610      700      900      950      970     1000      129      960     1100   
                                          VAR    BASINP    GEOM    SYMINP    ZMAT    AOBASIS   BASIS     P2S    ABASIS      S 
                                         1400     1410     1200     1210     1080     1600     1650     1700   
                                           T        V       H0       H01     AOSYM     SMH    MOLCAS    OPER   

              2       5       50.08       700     1000      520     2101     2201   
                                         GEOM     BASIS   MCVARS     RHF      RHF  

 PROGRAMS   *        TOTAL   RHF-SCF       INT   RHF-SCF       INT
 CPU TIMES  *     15607.49   7250.46      1.08   8354.30      1.45
 REAL TIME  *     15719.09 SEC
 DISK USED  *       154.88 MB (local),      619.50 MB (total)
 SF USED    *         8.91 MB
 GA USED    *         0.00 MB       (max)       0.00 MB       (current)
 **********************************************************************************************************************************
 SETTING EA_HF          =      -115.10127675  AU                              

 Dummy atoms: O1  H1  C1  H2  H3  H4


 Recomputing one-electron integrals since nuclear charges changed


 PROGRAM * SEWARD (Integral evaluation for generally contracted gaussian basis sets)     Author: Roland Lindh, 1990

 Geometry written to block  1 of record 700


 Point group  C1  



 ATOMIC COORDINATES

 NR  ATOM    CHARGE       X              Y              Z

   1  O1      0.00   -1.486386802    0.085355983   -0.013585466
   2  H1      0.00    0.335817133    0.023991766   -0.012917013
   3  C1      0.00   -2.358361084   -2.438282506    0.002047747
   4  H2      0.00   -4.411145066   -2.378970738    0.000418007
   5  H3      0.00   -1.749821661   -3.495555095   -1.663800640
   6  H4      0.00   -1.751828710   -3.474191337    1.682000853
   7  O2      8.00    8.209736170   -0.234409640   -0.004464897
   8  H5      1.00    9.039711706    0.499091711   -1.440416156
   9  H6      1.00    9.037217560    0.526402184    1.418668066

 Bond lengths in Bohr (Angstrom)

 1-2  1.823237010  1-3  2.670081416  3-4  2.053641307  3-5  2.064750931  3-6  2.064759324
     ( 0.964815476)     ( 1.412946237)     ( 1.086740179)     ( 1.092619139)     ( 1.092623580)

 7-8  1.813515822  7-9  1.813523507
     ( 0.959671245)     ( 0.959675312)

 Bond angles

  1-3-4  107.40559298   1-3-5  112.51964705   1-3-6  112.52114043   2-1-3  107.13200477

  4-3-5  107.98411747   4-3-6  107.98497413   5-3-6  108.23763291   8-7-9  104.05491273

 NUCLEAR CHARGE:                   10
 NUMBER OF PRIMITIVE AOS:        1245
 NUMBER OF SYMMETRY AOS:          930
 NUMBER OF CONTRACTIONS:          861   (  861A   )
 NUMBER OF CORE ORBITALS:           1   (    1A   )
 NUMBER OF VALENCE ORBITALS:        6   (    6A   )

 MOLECULE CHANGED: INITIALIZING OCCUPATION AND DUMP RECORDS


 NUCLEAR REPULSION ENERGY    9.17236909


 Eigenvalues of metric

         1 0.201E-05 0.226E-05 0.272E-05 0.379E-05 0.571E-05 0.941E-05 0.105E-04 0.121E-04


 OPERATOR DM      FOR CENTER  0  COORDINATES:    0.000000    0.000000    0.000000


 **********************************************************************************************************************************
 DATASETS  * FILE   NREC   LENGTH (MB)   RECORD NAMES
              1      18       57.10       500      610      700      900      950      970     1000      129      960     1100   
                                          VAR    BASINP    GEOM    SYMINP    ZMAT    AOBASIS   BASIS     P2S    ABASIS      S 
                                         1400     1410     1200     1210     1080     1600     1650     1700   
                                           T        V       H0       H01     AOSYM     SMH    MOLCAS    OPER   

              2       5       50.08       700     1000      520     2101     2201   
                                         GEOM     BASIS   MCVARS     RHF      RHF  

 PROGRAMS   *        TOTAL       INT   RHF-SCF       INT   RHF-SCF       INT
 CPU TIMES  *     15608.59      1.09   7250.46      1.08   8354.30      1.45
 REAL TIME  *     15720.30 SEC
 DISK USED  *       154.88 MB (local),      619.50 MB (total)
 SF USED    *         8.91 MB
 GA USED    *         0.00 MB       (max)       0.00 MB       (current)
 **********************************************************************************************************************************


 PROGRAM * RHF-SCF (CLOSED SHELL)       Authors: W. Meyer, H.-J. Werner


 NUMBER OF ELECTRONS:       5+    5-    SPACE SYMMETRY=1    SPIN SYMMETRY: Singlet 
 CONVERGENCE THRESHOLDS:    1.00E-04 (Density)    1.00E-09 (Energy)
 INTEGRAL THRESHOLDS:       1.00E-12 (Initial)    1.00E-12 (Final)
 MAX. NUMBER OF ITERATIONS:       60
 INTERPOLATION TYPE:            DIIS
 INTERPOLATION STEPS:              2 (START)      1 (STEP)
 LEVEL SHIFTS:                  0.00 (CLOSED)  0.00 (OPEN) 



 Orbital guess generated from atomic densities. Full valence occupancy:    7

 Molecular orbital dump at record        2301.2

 Initial occupancy:   5

 Direct Fock-matrix evaluation.        Authors: Roland Lindh & Martin Schuetz (1993/96)

 Integral Threshold:                  0.1D-11
 Threshold for writing integrals:     0.1D-06
 Prescreening on density matrix:        ON 
 Calculation will be performed fully direct        

 ITERATION   DDIFF            GRAD            ENERGY        2-EL.EN.            DIPOLE MOMENTS         DIIS   CPU(IT)  CPU(TOT)
    1      0.000D+00      0.000D+00       -76.02878517     77.656303    0.84652    0.76319   -0.00655    0    934.8    944.1     start
    2      0.000D+00      0.333D-02       -76.05577620     74.057914    0.49885    0.44973   -0.00386    1    911.0   1855.1     diag
    3      0.112D-02      0.208D-02       -76.06689720     75.644785    0.58553    0.52787   -0.00453    2    877.9   2733.0     diag
    4      0.415D-03      0.196D-03       -76.06708229     75.554453    0.58273    0.52535   -0.00451    3    773.3   3506.3     diag
    5      0.521D-04      0.532D-04       -76.06710101     75.568573    0.58175    0.52447   -0.00450    4    750.9   4257.1     diag
    6      0.160D-04      0.103D-04       -76.06710214     75.567644    0.58157    0.52431   -0.00450    5    694.0   4951.1     diag
    7      0.407D-05      0.204D-05       -76.06710220     75.567779    0.58151    0.52425   -0.00450    6    575.1   5526.2     diag
    8      0.105D-05      0.397D-06       -76.06710220     75.567771    0.58148    0.52423   -0.00450    7    479.2   6005.4     diag
    9      0.202D-06      0.514D-07       -76.06710220     75.567757    0.58148    0.52423   -0.00450    0    356.1   6361.5     orth

 Final occupancy:   5

 !RHF STATE  1.1 Energy               -76.067102198410
 Nuclear energy                         9.17236909
 One-electron energy                 -123.02334967
 Two-electron energy                   37.78387838
 Virial quotient                       -1.00101360
 !RHF STATE  1.1 Dipole moment          0.58148128     0.52422710    -0.00449754
 Dipole moment /Debye                   1.47788120     1.33236510    -0.01143086

 Orbital energies:

         1.1          2.1          3.1          4.1          5.1          6.1          7.1
    -20.564651    -1.351718    -0.715560    -0.585414    -0.510454     0.020224     0.026818


 HOMO      5.1    -0.510454 =     -13.8901eV
 LUMO      6.1     0.020224 =       0.5503eV
 LUMO-HOMO         0.530677 =      14.4405eV


 **********************************************************************************************************************************
 DATASETS  * FILE   NREC   LENGTH (MB)   RECORD NAMES
              1      18       57.10       500      610      700      900      950      970     1000      129      960     1100   
                                          VAR    BASINP    GEOM    SYMINP    ZMAT    AOBASIS   BASIS     P2S    ABASIS      S 
                                         1400     1410     1200     1210     1080     1600     1650     1700   
                                           T        V       H0       H01     AOSYM     SMH    MOLCAS    OPER   

              2       6       82.27       700     1000      520     2101     2201     2301   
                                         GEOM     BASIS   MCVARS     RHF      RHF      RHF  

 PROGRAMS   *        TOTAL   RHF-SCF       INT   RHF-SCF       INT   RHF-SCF       INT
 CPU TIMES  *     21970.89   6362.30      1.09   7250.46      1.08   8354.30      1.45
 REAL TIME  *     22127.33 SEC
 DISK USED  *       187.07 MB (local),      748.27 MB (total)
 SF USED    *         8.91 MB
 GA USED    *         0.00 MB       (max)       0.00 MB       (current)
 **********************************************************************************************************************************
 SETTING EB_HF          =       -76.06710220  AU                              
 SETTING E_AB_INT       =        -0.00126387  AU                              

 *** results in hartree
 E_AB_INT         =        -0.00126387 AU
 Molecular orbitals read from record     2301.2  Type=RHF/CANONICAL (state 1.1)
 Occupation numbers read from record     2301.2  Type=RHF/RHF (state 1.1)
 Orbital energies read from record       2301.2  Type=RHF/CANONICAL (state 1.1)
 Redundancy group numbers read from rec  2301.2  Type=RHF/RHF (state 1.1)

 RHF/aug-cc-pV5Z energy=    -76.067102198410

         RHF-SCF         RHF-SCF         RHF-SCF
    -76.06710220   -115.10127675   -191.16964282
 **********************************************************************************************************************************
 Molpro calculation terminated
