
 Primary working directories    : /scratch/sirous/44551/molpro.gHTMG31wTL
 Secondary working directories  : /scratch/sirous/44551/molpro.gHTMG31wTL
 Wavefunction directory         : /scratch/sirous/44551/
 Main file repository           : /scratch/sirous/44551/molpro.gHTMG31wTL/

 id        : karlovklimes

 Nodes                      nprocs
 nc-12.cc.karlov.mff.cuni.cz    4

 Using customized tuning parameters: mindgm=1; mindgv=20; mindgc=4; mindgr=1; noblas=0; minvec=7
 default implementation of scratch files=sf  


 Variables initialized (934), CPU time= 0.00 sec
 ***,CH3C6H4CN+CF3CN+BF3
 memory,500,m
 gdirect
 gthresh,energy=1.d-8,twoint=1.d-15,oneint=1.d-15,zero=1.d-15,orbital=1.d-8,grid=1.d-8
 symmetry,nosym
 geomtyp=xyz
                                                                                 ! Geometry
 geometry={
 O1        -0.786562022    0.045168441     -0.007189119
 H1        0.177706774    0.012695896     -0.006835389
 C1        -1.247990941    -1.290283536     0.001083621
 H2        -2.334277443    -1.2588971     0.0002212
 H3        -0.925965746    -1.849768096     -0.880445382
 H4        -0.927027831    -1.838462882     0.89007652
 O2        5.138062149061303    -0.15008997949201172     -0.001510784720525936
 H5        5.5772662880613035    0.23806221950798828     -0.7613834667205259
 H6        5.575946443061303    0.25251429950798826     0.751578747279474
 }
 
 
 
 basis=aug-cc-pv5z
 
 
 
                                                                                 ! Dimer Calculation
 {rhf,accu=1.d-8;orbital,2101.2}
 eab_HF=energy
 
 
                                                                                 !monomer A
 dummy,7,8,9;                                                                    ! NOW MONOMER B IS DUMMY
 {rhf,accu=1.d-8;orbital,2201.2}
 ea_HF=energy
                                                                                 !monomer B
 dummy,1,2,3,4,5,6;                                                              !NOW MONOMER A IS DUMMY
 {rhf,accu=1.d-8;orbital,2301.2}
 eb_HF=energy
 
 E_AB_int=eab_HF-ea_HF-eb_HF
 
 
 text,results in hartree
 show,E_AB_int
 
 Commands  initialized (763), CPU time= 0.02 sec, 617 directives.
 Default parameters read. Elapsed time= 0.21 sec

 Checking input...
 Passed
1


                                         ***  PROGRAM SYSTEM MOLPRO  ***
                                       Copyright, TTI GmbH Stuttgart, 2015
                                    Version 2019.2 linked Jun  8 2019 11:26:33


 **********************************************************************************************************************************
 LABEL *   CH3C6H4CN+CF3CN+BF3                                                           
  64 bit mpp version                                                                     DATE: 12-Oct-19          TIME: 22:14:39  
 **********************************************************************************************************************************

 SHA1:             8135a10abc80eafa5b3ae28ffc55be4890dc4c84
 **********************************************************************************************************************************

 THRESHOLDS:

 ZERO    =  1.00D-15  ONEINT  =  1.00D-15  TWOINT  =  1.00D-15  PREFAC  =  1.00D-14  XXXXXX  =  1.00D-09  EORDER  =  1.00D-04
 ENERGY  =  1.00D-08  ETEST   =  0.00D+00  EDENS   =  0.00D+00  THRDEDEF=  1.00D-06  GRADIENT=  1.00D-02  STEP    =  1.00D-03
 ORBITAL =  1.00D-08  CIVEC   =  1.00D-05  COEFF   =  1.00D-04  PRINTCI =  5.00D-02  PUNCHCI =  9.90D+01  OPTGRAD =  3.00D-04
 OPTENERG=  1.00D-06  OPTSTEP =  3.00D-04  THRGRAD =  1.00D-10  COMPRESS=  1.00D-11  VARMIN  =  1.00D-07  VARMAX  =  1.00D-03
 THRDOUB =  0.00D+00  THRDIV  =  1.00D-05  THRRED  =  1.00D-07  THRPSP  =  1.00D+00  THRDC   =  1.00D-10  THRCS   =  1.00D-10
 THRNRM  =  1.00D-08  THREQ   =  0.00D+00  THRDE   =  1.00D+00  THRREF  =  1.00D-05  SPARFAC =  1.00D+00  THRDLP  =  1.00D-07
 THRDIA  =  1.00D-10  THRDLS  =  1.00D-07  THRGPS  =  0.00D+00  THRKEX  =  0.00D+00  THRDIS  =  2.00D-01  THRVAR  =  1.00D-10
 THRLOC  =  1.00D-06  THRGAP  =  1.00D-06  THRLOCT = -1.00D+00  THRGAPT = -1.00D+00  THRORB  =  1.00D-06  THRMLTP =  0.00D+00
 THRCPQCI=  1.00D-10  KEXTA   =  0.00D+00  THRCOARS=  0.00D+00  SYMTOL  =  1.00D-06  GRADTOL =  1.00D-06  THROVL  =  1.00D-08
 THRORTH =  1.00D-08  GRID    =  1.00D-08  GRIDMAX =  1.00D-03  DTMAX   =  0.00D+00  THROCCDE=  1.00D-01  THROCCDE=  1.00D-01
 THRPRINT=  2.50D-01


 Variable memory set to  500000000 words,  buffer space 

 SETTING GEOMTYP        =    XYZ
 ZSYMEL=NOSYM

 SETTING BASIS          =    AUG-CC-PV5Z


 Recomputing integrals since basis changed


 Using spherical harmonics

 Library entry O      S aug-cc-pV5Z          selected for orbital group  1
 Library entry O      P aug-cc-pV5Z          selected for orbital group  1
 Library entry O      D aug-cc-pV5Z          selected for orbital group  1
 Library entry O      F aug-cc-pV5Z          selected for orbital group  1
 Library entry O      G aug-cc-pV5Z          selected for orbital group  1
 Library entry O      H aug-cc-pV5Z          selected for orbital group  1
 Library entry H      S aug-cc-pV5Z          selected for orbital group  2
 Library entry H      P aug-cc-pV5Z          selected for orbital group  2
 Library entry H      D aug-cc-pV5Z          selected for orbital group  2
 Library entry H      F aug-cc-pV5Z          selected for orbital group  2
 Library entry H      G aug-cc-pV5Z          selected for orbital group  2
 Library entry C      S aug-cc-pV5Z          selected for orbital group  3
 Library entry C      P aug-cc-pV5Z          selected for orbital group  3
 Library entry C      D aug-cc-pV5Z          selected for orbital group  3
 Library entry C      F aug-cc-pV5Z          selected for orbital group  3
 Library entry C      G aug-cc-pV5Z          selected for orbital group  3
 Library entry C      H aug-cc-pV5Z          selected for orbital group  3


 PROGRAM * SEWARD (Integral evaluation for generally contracted gaussian basis sets)     Author: Roland Lindh, 1990

 Geometry written to block  1 of record 700


 Point group  C1  



 ATOMIC COORDINATES

 NR  ATOM    CHARGE       X              Y              Z

   1  O1      8.00   -1.486386802    0.085355983   -0.013585466
   2  H1      1.00    0.335817133    0.023991766   -0.012917013
   3  C1      6.00   -2.358361084   -2.438282506    0.002047747
   4  H2      1.00   -4.411145066   -2.378970738    0.000418007
   5  H3      1.00   -1.749821661   -3.495555095   -1.663800640
   6  H4      1.00   -1.751828710   -3.474191337    1.682000853
   7  O2      8.00    9.709530273   -0.283628955   -0.002854969
   8  H5      1.00   10.539505808    0.449872395   -1.438806228
   9  H6      1.00   10.537011663    0.477182869    1.420277993

 Bond lengths in Bohr (Angstrom)

 1-2  1.823237010  1-3  2.670081416  3-4  2.053641307  3-5  2.064750931  3-6  2.064759324
     ( 0.964815476)     ( 1.412946237)     ( 1.086740179)     ( 1.092619139)     ( 1.092623580)

 7-8  1.813515822  7-9  1.813523507
     ( 0.959671245)     ( 0.959675312)

 Bond angles

  1-3-4  107.40559298   1-3-5  112.51964705   1-3-6  112.52114043   2-1-3  107.13200477

  4-3-5  107.98411747   4-3-6  107.98497413   5-3-6  108.23763291   8-7-9  104.05491273

 NUCLEAR CHARGE:                   28
 NUMBER OF PRIMITIVE AOS:        1245
 NUMBER OF SYMMETRY AOS:          930
 NUMBER OF CONTRACTIONS:          861   (  861A   )
 NUMBER OF CORE ORBITALS:           3   (    3A   )
 NUMBER OF VALENCE ORBITALS:       18   (   18A   )


 NUCLEAR REPULSION ENERGY   64.82297288


 Eigenvalues of metric

         1 0.206E-05 0.246E-05 0.281E-05 0.381E-05 0.627E-05 0.983E-05 0.108E-04 0.130E-04


 OPERATOR DM      FOR CENTER  0  COORDINATES:    0.000000    0.000000    0.000000


 **********************************************************************************************************************************
 DATASETS  * FILE   NREC   LENGTH (MB)   RECORD NAMES
              1      18       57.10       500      610      700      900      950      970     1000      129      960     1100   
                                          VAR    BASINP    GEOM    SYMINP    ZMAT    AOBASIS   BASIS     P2S    ABASIS      S 
                                         1400     1410     1200     1210     1080     1600     1650     1700   
                                           T        V       H0       H01     AOSYM     SMH    MOLCAS    OPER   

 PROGRAMS   *        TOTAL       INT
 CPU TIMES  *         1.67      1.49
 REAL TIME  *         3.01 SEC
 DISK USED  *        57.81 MB (local),      231.24 MB (total)
 GA USED    *         0.00 MB       (max)       0.00 MB       (current)
 **********************************************************************************************************************************


 PROGRAM * RHF-SCF (CLOSED SHELL)       Authors: W. Meyer, H.-J. Werner


 NUMBER OF ELECTRONS:      14+   14-    SPACE SYMMETRY=1    SPIN SYMMETRY: Singlet 
 CONVERGENCE THRESHOLDS:    1.00E-04 (Density)    1.00E-09 (Energy)
 INTEGRAL THRESHOLDS:       1.00E-12 (Initial)    1.00E-12 (Final)
 MAX. NUMBER OF ITERATIONS:       60
 INTERPOLATION TYPE:            DIIS
 INTERPOLATION STEPS:              2 (START)      1 (STEP)
 LEVEL SHIFTS:                  0.00 (CLOSED)  0.00 (OPEN) 



 Orbital guess generated from atomic densities. Full valence occupancy:   21

 Molecular orbital dump at record        2101.2

 Initial occupancy:  14

 Direct Fock-matrix evaluation.        Authors: Roland Lindh & Martin Schuetz (1993/96)

 Integral Threshold:                  0.1D-11
 Threshold for writing integrals:     0.1D-06
 Prescreening on density matrix:        ON 
 Calculation will be performed fully direct        

 ITERATION   DDIFF            GRAD            ENERGY        2-EL.EN.            DIPOLE MOMENTS         DIIS   CPU(IT)  CPU(TOT)
    1      0.000D+00      0.000D+00      -191.09505927    272.863057    1.51449   -0.02052   -0.00156    0   1061.3   1079.6     start
    2      0.000D+00      0.269D-02      -191.15004319    266.644696    0.87976   -0.00981   -0.00091    1   1035.1   2114.7     diag
    3      0.148D-02      0.159D-02      -191.16837592    269.492960    1.02127   -0.04955   -0.00085    2   1001.7   3116.4     diag
    4      0.544D-03      0.220D-03      -191.16908398    269.231742    1.01520   -0.05206   -0.00082    3    962.3   4078.7     diag
    5      0.103D-03      0.515D-04      -191.16913975    269.257945    1.00908   -0.05715   -0.00079    4    923.1   5001.9     diag
    6      0.311D-04      0.110D-04      -191.16914255    269.253618    1.00870   -0.05703   -0.00079    5    883.6   5885.5     diag
    7      0.945D-05      0.485D-05      -191.16914283    269.253795    1.00846   -0.05774   -0.00078    6    821.3   6706.8     diag
    8      0.253D-05      0.117D-05      -191.16914287    269.253889    1.00827   -0.05777   -0.00078    7    788.8   7495.5     diag
    9      0.111D-05      0.256D-06      -191.16914287    269.253963    1.00824   -0.05779   -0.00078    8    698.3   8193.8     diag
   10      0.230D-06      0.611D-07      -191.16914287    269.253898    1.00823   -0.05779   -0.00078    0    565.1   8759.0     orth

 Final occupancy:  14

 !RHF STATE  1.1 Energy              -191.169142873803
 Nuclear energy                        64.82297288
 One-electron energy                 -390.61906451
 Two-electron energy                  134.62694875
 Virial quotient                       -1.00101475
 !RHF STATE  1.1 Dipole moment          1.00823063    -0.05779049    -0.00078385
 Dipole moment /Debye                   2.56249880    -0.14687915    -0.00199221

 Orbital energies:

         1.1          2.1          3.1          4.1          5.1          6.1          7.1          8.1          9.1         10.1
    -20.568988   -20.552247   -11.264432    -1.356085    -1.354384    -0.920386    -0.719911    -0.687620    -0.616271    -0.590793

        11.1         12.1         13.1         14.1         15.1         16.1
     -0.590078    -0.514922    -0.499863    -0.446603     0.019756     0.029779


 HOMO     14.1    -0.446603 =     -12.1527eV
 LUMO     15.1     0.019756 =       0.5376eV
 LUMO-HOMO         0.466359 =      12.6903eV


 **********************************************************************************************************************************
 DATASETS  * FILE   NREC   LENGTH (MB)   RECORD NAMES
              1      18       57.10       500      610      700      900      950      970     1000      129      960     1100   
                                          VAR    BASINP    GEOM    SYMINP    ZMAT    AOBASIS   BASIS     P2S    ABASIS      S 
                                         1400     1410     1200     1210     1080     1600     1650     1700   
                                           T        V       H0       H01     AOSYM     SMH    MOLCAS    OPER   

              2       4       17.89       700     1000      520     2101   
                                         GEOM     BASIS   MCVARS     RHF  

 PROGRAMS   *        TOTAL   RHF-SCF       INT
 CPU TIMES  *      8761.49   8759.82      1.49
 REAL TIME  *      8803.16 SEC
 DISK USED  *       125.65 MB (local),      502.62 MB (total)
 SF USED    *         8.91 MB
 GA USED    *         0.00 MB       (max)       0.00 MB       (current)
 **********************************************************************************************************************************
 SETTING EAB_HF         =      -191.16914287  AU                              

 Dummy atoms: O2  H5  H6


 Recomputing one-electron integrals since nuclear charges changed


 PROGRAM * SEWARD (Integral evaluation for generally contracted gaussian basis sets)     Author: Roland Lindh, 1990

 Geometry written to block  1 of record 700


 Point group  C1  



 ATOMIC COORDINATES

 NR  ATOM    CHARGE       X              Y              Z

   1  O1      8.00   -1.486386802    0.085355983   -0.013585466
   2  H1      1.00    0.335817133    0.023991766   -0.012917013
   3  C1      6.00   -2.358361084   -2.438282506    0.002047747
   4  H2      1.00   -4.411145066   -2.378970738    0.000418007
   5  H3      1.00   -1.749821661   -3.495555095   -1.663800640
   6  H4      1.00   -1.751828710   -3.474191337    1.682000853
   7  O2      0.00    9.709530273   -0.283628955   -0.002854969
   8  H5      0.00   10.539505808    0.449872395   -1.438806228
   9  H6      0.00   10.537011663    0.477182869    1.420277993

 Bond lengths in Bohr (Angstrom)

 1-2  1.823237010  1-3  2.670081416  3-4  2.053641307  3-5  2.064750931  3-6  2.064759324
     ( 0.964815476)     ( 1.412946237)     ( 1.086740179)     ( 1.092619139)     ( 1.092623580)

 7-8  1.813515822  7-9  1.813523507
     ( 0.959671245)     ( 0.959675312)

 Bond angles

  1-3-4  107.40559298   1-3-5  112.51964705   1-3-6  112.52114043   2-1-3  107.13200477

  4-3-5  107.98411747   4-3-6  107.98497413   5-3-6  108.23763291   8-7-9  104.05491273

 NUCLEAR CHARGE:                   18
 NUMBER OF PRIMITIVE AOS:        1245
 NUMBER OF SYMMETRY AOS:          930
 NUMBER OF CONTRACTIONS:          861   (  861A   )
 NUMBER OF CORE ORBITALS:           2   (    2A   )
 NUMBER OF VALENCE ORBITALS:       12   (   12A   )

 MOLECULE CHANGED: INITIALIZING OCCUPATION AND DUMP RECORDS


 NUCLEAR REPULSION ENERGY   40.42326361


 Eigenvalues of metric

         1 0.206E-05 0.246E-05 0.281E-05 0.381E-05 0.627E-05 0.983E-05 0.108E-04 0.130E-04


 OPERATOR DM      FOR CENTER  0  COORDINATES:    0.000000    0.000000    0.000000


 **********************************************************************************************************************************
 DATASETS  * FILE   NREC   LENGTH (MB)   RECORD NAMES
              1      18       57.10       500      610      700      900      950      970     1000      129      960     1100   
                                          VAR    BASINP    GEOM    SYMINP    ZMAT    AOBASIS   BASIS     P2S    ABASIS      S 
                                         1400     1410     1200     1210     1080     1600     1650     1700   
                                           T        V       H0       H01     AOSYM     SMH    MOLCAS    OPER   

              2       4       17.89       700     1000      520     2101   
                                         GEOM     BASIS   MCVARS     RHF  

 PROGRAMS   *        TOTAL       INT   RHF-SCF       INT
 CPU TIMES  *      8762.60      1.10   8759.82      1.49
 REAL TIME  *      8804.38 SEC
 DISK USED  *       125.65 MB (local),      502.62 MB (total)
 SF USED    *         8.91 MB
 GA USED    *         0.00 MB       (max)       0.00 MB       (current)
 **********************************************************************************************************************************


 PROGRAM * RHF-SCF (CLOSED SHELL)       Authors: W. Meyer, H.-J. Werner


 NUMBER OF ELECTRONS:       9+    9-    SPACE SYMMETRY=1    SPIN SYMMETRY: Singlet 
 CONVERGENCE THRESHOLDS:    1.00E-04 (Density)    1.00E-09 (Energy)
 INTEGRAL THRESHOLDS:       1.00E-12 (Initial)    1.00E-12 (Final)
 MAX. NUMBER OF ITERATIONS:       60
 INTERPOLATION TYPE:            DIIS
 INTERPOLATION STEPS:              2 (START)      1 (STEP)
 LEVEL SHIFTS:                  0.00 (CLOSED)  0.00 (OPEN) 



 Orbital guess generated from atomic densities. Full valence occupancy:   14

 Molecular orbital dump at record        2201.2

 Initial occupancy:   9

 Direct Fock-matrix evaluation.        Authors: Roland Lindh & Martin Schuetz (1993/96)

 Integral Threshold:                  0.1D-11
 Threshold for writing integrals:     0.1D-06
 Prescreening on density matrix:        ON 
 Calculation will be performed fully direct        

 ITERATION   DDIFF            GRAD            ENERGY        2-EL.EN.            DIPOLE MOMENTS         DIIS   CPU(IT)  CPU(TOT)
    1      0.000D+00      0.000D+00      -115.06476651    164.638023    0.66792   -0.78371    0.00498    0   1021.4   1036.4     start
    2      0.000D+00      0.225D-02      -115.09323165    162.042602    0.34900   -0.46102    0.00291    1    993.5   2029.9     diag
    3      0.972D-03      0.123D-02      -115.10070154    163.310445    0.41200   -0.58727    0.00372    2    957.6   2987.4     diag
    4      0.354D-03      0.244D-03      -115.10123957    163.133035    0.40864   -0.58046    0.00367    3    935.0   3922.5     diag
    5      0.910D-04      0.496D-04      -115.10127488    163.144470    0.40303   -0.58327    0.00369    4    890.7   4813.1     diag
    6      0.258D-04      0.936D-05      -115.10127653    163.142314    0.40287   -0.58402    0.00369    5    833.2   5646.4     diag
    7      0.819D-05      0.204D-05      -115.10127661    163.141850    0.40259   -0.58421    0.00369    6    766.6   6413.0     diag
    8      0.202D-05      0.545D-06      -115.10127661    163.142245    0.40257   -0.58423    0.00369    7    671.6   7084.6     diag
    9      0.367D-06      0.169D-06      -115.10127661    163.142069    0.40255   -0.58423    0.00369    0    549.4   7634.0     orth

 Final occupancy:   9

 !RHF STATE  1.1 Energy              -115.101276614150
 Nuclear energy                        40.42326361
 One-electron energy                 -237.09557456
 Two-electron energy                   81.57103434
 Virial quotient                       -1.00099756
 !RHF STATE  1.1 Dipole moment          0.40255450    -0.58422771     0.00369491
 Dipole moment /Debye                   1.02312448    -1.48486145     0.00939091

 Orbital energies:

         1.1          2.1          3.1          4.1          5.1          6.1          7.1          8.1          9.1         10.1
    -20.557475   -11.269057    -1.359536    -0.925122    -0.692687    -0.621099    -0.595581    -0.504638    -0.451558     0.016686

        11.1
      0.028649


 HOMO      9.1    -0.451558 =     -12.2875eV
 LUMO     10.1     0.016686 =       0.4540eV
 LUMO-HOMO         0.468244 =      12.7416eV


 **********************************************************************************************************************************
 DATASETS  * FILE   NREC   LENGTH (MB)   RECORD NAMES
              1      18       57.10       500      610      700      900      950      970     1000      129      960     1100   
                                          VAR    BASINP    GEOM    SYMINP    ZMAT    AOBASIS   BASIS     P2S    ABASIS      S 
                                         1400     1410     1200     1210     1080     1600     1650     1700   
                                           T        V       H0       H01     AOSYM     SMH    MOLCAS    OPER   

              2       5       50.08       700     1000      520     2101     2201   
                                         GEOM     BASIS   MCVARS     RHF      RHF  

 PROGRAMS   *        TOTAL   RHF-SCF       INT   RHF-SCF       INT
 CPU TIMES  *     16397.43   7634.83      1.10   8759.82      1.49
 REAL TIME  *     16465.45 SEC
 DISK USED  *       154.88 MB (local),      619.50 MB (total)
 SF USED    *         8.91 MB
 GA USED    *         0.00 MB       (max)       0.00 MB       (current)
 **********************************************************************************************************************************
 SETTING EA_HF          =      -115.10127661  AU                              

 Dummy atoms: O1  H1  C1  H2  H3  H4


 Recomputing one-electron integrals since nuclear charges changed


 PROGRAM * SEWARD (Integral evaluation for generally contracted gaussian basis sets)     Author: Roland Lindh, 1990

 Geometry written to block  1 of record 700


 Point group  C1  



 ATOMIC COORDINATES

 NR  ATOM    CHARGE       X              Y              Z

   1  O1      0.00   -1.486386802    0.085355983   -0.013585466
   2  H1      0.00    0.335817133    0.023991766   -0.012917013
   3  C1      0.00   -2.358361084   -2.438282506    0.002047747
   4  H2      0.00   -4.411145066   -2.378970738    0.000418007
   5  H3      0.00   -1.749821661   -3.495555095   -1.663800640
   6  H4      0.00   -1.751828710   -3.474191337    1.682000853
   7  O2      8.00    9.709530273   -0.283628955   -0.002854969
   8  H5      1.00   10.539505808    0.449872395   -1.438806228
   9  H6      1.00   10.537011663    0.477182869    1.420277993

 Bond lengths in Bohr (Angstrom)

 1-2  1.823237010  1-3  2.670081416  3-4  2.053641307  3-5  2.064750931  3-6  2.064759324
     ( 0.964815476)     ( 1.412946237)     ( 1.086740179)     ( 1.092619139)     ( 1.092623580)

 7-8  1.813515822  7-9  1.813523507
     ( 0.959671245)     ( 0.959675312)

 Bond angles

  1-3-4  107.40559298   1-3-5  112.51964705   1-3-6  112.52114043   2-1-3  107.13200477

  4-3-5  107.98411747   4-3-6  107.98497413   5-3-6  108.23763291   8-7-9  104.05491273

 NUCLEAR CHARGE:                   10
 NUMBER OF PRIMITIVE AOS:        1245
 NUMBER OF SYMMETRY AOS:          930
 NUMBER OF CONTRACTIONS:          861   (  861A   )
 NUMBER OF CORE ORBITALS:           1   (    1A   )
 NUMBER OF VALENCE ORBITALS:        6   (    6A   )

 MOLECULE CHANGED: INITIALIZING OCCUPATION AND DUMP RECORDS


 NUCLEAR REPULSION ENERGY    9.17236909


 Eigenvalues of metric

         1 0.206E-05 0.246E-05 0.281E-05 0.381E-05 0.627E-05 0.983E-05 0.108E-04 0.130E-04


 OPERATOR DM      FOR CENTER  0  COORDINATES:    0.000000    0.000000    0.000000


 **********************************************************************************************************************************
 DATASETS  * FILE   NREC   LENGTH (MB)   RECORD NAMES
              1      18       57.10       500      610      700      900      950      970     1000      129      960     1100   
                                          VAR    BASINP    GEOM    SYMINP    ZMAT    AOBASIS   BASIS     P2S    ABASIS      S 
                                         1400     1410     1200     1210     1080     1600     1650     1700   
                                           T        V       H0       H01     AOSYM     SMH    MOLCAS    OPER   

              2       5       50.08       700     1000      520     2101     2201   
                                         GEOM     BASIS   MCVARS     RHF      RHF  

 PROGRAMS   *        TOTAL       INT   RHF-SCF       INT   RHF-SCF       INT
 CPU TIMES  *     16398.56      1.11   7634.83      1.10   8759.82      1.49
 REAL TIME  *     16466.69 SEC
 DISK USED  *       154.88 MB (local),      619.50 MB (total)
 SF USED    *         8.91 MB
 GA USED    *         0.00 MB       (max)       0.00 MB       (current)
 **********************************************************************************************************************************


 PROGRAM * RHF-SCF (CLOSED SHELL)       Authors: W. Meyer, H.-J. Werner


 NUMBER OF ELECTRONS:       5+    5-    SPACE SYMMETRY=1    SPIN SYMMETRY: Singlet 
 CONVERGENCE THRESHOLDS:    1.00E-04 (Density)    1.00E-09 (Energy)
 INTEGRAL THRESHOLDS:       1.00E-12 (Initial)    1.00E-12 (Final)
 MAX. NUMBER OF ITERATIONS:       60
 INTERPOLATION TYPE:            DIIS
 INTERPOLATION STEPS:              2 (START)      1 (STEP)
 LEVEL SHIFTS:                  0.00 (CLOSED)  0.00 (OPEN) 



 Orbital guess generated from atomic densities. Full valence occupancy:    7

 Molecular orbital dump at record        2301.2

 Initial occupancy:   5

 Direct Fock-matrix evaluation.        Authors: Roland Lindh & Martin Schuetz (1993/96)

 Integral Threshold:                  0.1D-11
 Threshold for writing integrals:     0.1D-06
 Prescreening on density matrix:        ON 
 Calculation will be performed fully direct        

 ITERATION   DDIFF            GRAD            ENERGY        2-EL.EN.            DIPOLE MOMENTS         DIIS   CPU(IT)  CPU(TOT)
    1      0.000D+00      0.000D+00       -76.02878471     77.656287    0.84654    0.76319   -0.00655    0    964.2    974.2     start
    2      0.000D+00      0.333D-02       -76.05577567     74.057896    0.49887    0.44973   -0.00386    1    946.1   1920.2     diag
    3      0.112D-02      0.208D-02       -76.06689668     75.644769    0.58555    0.52788   -0.00453    2    912.7   2832.9     diag
    4      0.415D-03      0.196D-03       -76.06708178     75.554437    0.58275    0.52535   -0.00451    3    800.3   3633.2     diag
    5      0.521D-04      0.532D-04       -76.06710050     75.568556    0.58177    0.52447   -0.00450    4    776.5   4409.7     diag
    6      0.161D-04      0.103D-04       -76.06710163     75.567627    0.58159    0.52432   -0.00450    5    698.1   5107.7     diag
    7      0.407D-05      0.204D-05       -76.06710169     75.567762    0.58153    0.52426   -0.00450    6    531.5   5639.2     diag
    8      0.104D-05      0.397D-06       -76.06710169     75.567754    0.58150    0.52423   -0.00450    7    462.4   6101.6     diag
    9      0.200D-06      0.514D-07       -76.06710169     75.567740    0.58150    0.52423   -0.00450    0    303.8   6405.4     orth

 Final occupancy:   5

 !RHF STATE  1.1 Energy               -76.067101687248
 Nuclear energy                         9.17236909
 One-electron energy                 -123.02334073
 Two-electron energy                   37.78386996
 Virial quotient                       -1.00101364
 !RHF STATE  1.1 Dipole moment          0.58150214     0.52423217    -0.00449757
 Dipole moment /Debye                   1.47793421     1.33237800    -0.01143093

 Orbital energies:

         1.1          2.1          3.1          4.1          5.1          6.1          7.1
    -20.564652    -1.351719    -0.715561    -0.585415    -0.510454     0.020068     0.026275


 HOMO      5.1    -0.510454 =     -13.8902eV
 LUMO      6.1     0.020068 =       0.5461eV
 LUMO-HOMO         0.530522 =      14.4362eV


 **********************************************************************************************************************************
 DATASETS  * FILE   NREC   LENGTH (MB)   RECORD NAMES
              1      18       57.10       500      610      700      900      950      970     1000      129      960     1100   
                                          VAR    BASINP    GEOM    SYMINP    ZMAT    AOBASIS   BASIS     P2S    ABASIS      S 
                                         1400     1410     1200     1210     1080     1600     1650     1700   
                                           T        V       H0       H01     AOSYM     SMH    MOLCAS    OPER   

              2       6       82.27       700     1000      520     2101     2201     2301   
                                         GEOM     BASIS   MCVARS     RHF      RHF      RHF  

 PROGRAMS   *        TOTAL   RHF-SCF       INT   RHF-SCF       INT   RHF-SCF       INT
 CPU TIMES  *     22804.83   6406.28      1.11   7634.83      1.10   8759.82      1.49
 REAL TIME  *     22895.12 SEC
 DISK USED  *       187.07 MB (local),      748.27 MB (total)
 SF USED    *         8.91 MB
 GA USED    *         0.00 MB       (max)       0.00 MB       (current)
 **********************************************************************************************************************************
 SETTING EB_HF          =       -76.06710169  AU                              
 SETTING E_AB_INT       =        -0.00076457  AU                              

 *** results in hartree
 E_AB_INT         =        -0.00076457 AU
 Molecular orbitals read from record     2301.2  Type=RHF/CANONICAL (state 1.1)
 Occupation numbers read from record     2301.2  Type=RHF/RHF (state 1.1)
 Orbital energies read from record       2301.2  Type=RHF/CANONICAL (state 1.1)
 Redundancy group numbers read from rec  2301.2  Type=RHF/RHF (state 1.1)

 RHF/aug-cc-pV5Z energy=    -76.067101687248

         RHF-SCF         RHF-SCF         RHF-SCF
    -76.06710169   -115.10127661   -191.16914287
 **********************************************************************************************************************************
 Molpro calculation terminated
