
 Primary working directories    : /scratch/sirous/44540/molpro.prvX3xZ51m
 Secondary working directories  : /scratch/sirous/44540/molpro.prvX3xZ51m
 Wavefunction directory         : /scratch/sirous/44540/
 Main file repository           : /scratch/sirous/44540/molpro.prvX3xZ51m/

 id        : karlovklimes

 Nodes                      nprocs
 nc-12.cc.karlov.mff.cuni.cz    4

 Using customized tuning parameters: mindgm=1; mindgv=20; mindgc=4; mindgr=1; noblas=0; minvec=7
 default implementation of scratch files=sf  


 Variables initialized (934), CPU time= 0.00 sec
 ***,CH3C6H4CN+CF3CN+BF3
 memory,500,m
 gdirect
 gthresh,energy=1.d-8,twoint=1.d-15,oneint=1.d-15,zero=1.d-15,orbital=1.d-8,grid=1.d-8
 symmetry,nosym
 geomtyp=xyz
                                                                                 ! Geometry
 geometry={
 O1        -0.786562022    0.045168441     -0.007189119
 H1        0.177706774    0.012695896     -0.006835389
 C1        -1.247990941    -1.290283536     0.001083621
 H2        -2.334277443    -1.2588971     0.0002212
 H3        -0.925965746    -1.849768096     -0.880445382
 H4        -0.927027831    -1.838462882     0.89007652
 O2        2.955505784016348    -0.07846419486453647     -0.003853611858806916
 H5        3.394709923016348    0.30968800413546355     -0.7637262938588069
 H6        3.3933900780163477    0.3241400841354635     0.7492359201411931
 }
 
 
 
 basis=aug-cc-pv5z
 
 
 
                                                                                 ! Dimer Calculation
 {rhf,accu=1.d-8;orbital,2101.2}
 eab_HF=energy
 
 
                                                                                 !monomer A
 dummy,7,8,9;                                                                    ! NOW MONOMER B IS DUMMY
 {rhf,accu=1.d-8;orbital,2201.2}
 ea_HF=energy
                                                                                 !monomer B
 dummy,1,2,3,4,5,6;                                                              !NOW MONOMER A IS DUMMY
 {rhf,accu=1.d-8;orbital,2301.2}
 eb_HF=energy
 
 E_AB_int=eab_HF-ea_HF-eb_HF
 
 
 text,results in hartree
 show,E_AB_int
 
 Commands  initialized (763), CPU time= 0.01 sec, 617 directives.
 Default parameters read. Elapsed time= 0.22 sec

 Checking input...
 Passed
1


                                         ***  PROGRAM SYSTEM MOLPRO  ***
                                       Copyright, TTI GmbH Stuttgart, 2015
                                    Version 2019.2 linked Jun  8 2019 11:26:33


 **********************************************************************************************************************************
 LABEL *   CH3C6H4CN+CF3CN+BF3                                                           
  64 bit mpp version                                                                     DATE: 12-Oct-19          TIME: 20:00:05  
 **********************************************************************************************************************************

 SHA1:             8135a10abc80eafa5b3ae28ffc55be4890dc4c84
 **********************************************************************************************************************************

 THRESHOLDS:

 ZERO    =  1.00D-15  ONEINT  =  1.00D-15  TWOINT  =  1.00D-15  PREFAC  =  1.00D-14  XXXXXX  =  1.00D-09  EORDER  =  1.00D-04
 ENERGY  =  1.00D-08  ETEST   =  0.00D+00  EDENS   =  0.00D+00  THRDEDEF=  1.00D-06  GRADIENT=  1.00D-02  STEP    =  1.00D-03
 ORBITAL =  1.00D-08  CIVEC   =  1.00D-05  COEFF   =  1.00D-04  PRINTCI =  5.00D-02  PUNCHCI =  9.90D+01  OPTGRAD =  3.00D-04
 OPTENERG=  1.00D-06  OPTSTEP =  3.00D-04  THRGRAD =  1.00D-10  COMPRESS=  1.00D-11  VARMIN  =  1.00D-07  VARMAX  =  1.00D-03
 THRDOUB =  0.00D+00  THRDIV  =  1.00D-05  THRRED  =  1.00D-07  THRPSP  =  1.00D+00  THRDC   =  1.00D-10  THRCS   =  1.00D-10
 THRNRM  =  1.00D-08  THREQ   =  0.00D+00  THRDE   =  1.00D+00  THRREF  =  1.00D-05  SPARFAC =  1.00D+00  THRDLP  =  1.00D-07
 THRDIA  =  1.00D-10  THRDLS  =  1.00D-07  THRGPS  =  0.00D+00  THRKEX  =  0.00D+00  THRDIS  =  2.00D-01  THRVAR  =  1.00D-10
 THRLOC  =  1.00D-06  THRGAP  =  1.00D-06  THRLOCT = -1.00D+00  THRGAPT = -1.00D+00  THRORB  =  1.00D-06  THRMLTP =  0.00D+00
 THRCPQCI=  1.00D-10  KEXTA   =  0.00D+00  THRCOARS=  0.00D+00  SYMTOL  =  1.00D-06  GRADTOL =  1.00D-06  THROVL  =  1.00D-08
 THRORTH =  1.00D-08  GRID    =  1.00D-08  GRIDMAX =  1.00D-03  DTMAX   =  0.00D+00  THROCCDE=  1.00D-01  THROCCDE=  1.00D-01
 THRPRINT=  2.50D-01


 Variable memory set to  500000000 words,  buffer space 

 SETTING GEOMTYP        =    XYZ
 ZSYMEL=NOSYM

 SETTING BASIS          =    AUG-CC-PV5Z


 Recomputing integrals since basis changed


 Using spherical harmonics

 Library entry O      S aug-cc-pV5Z          selected for orbital group  1
 Library entry O      P aug-cc-pV5Z          selected for orbital group  1
 Library entry O      D aug-cc-pV5Z          selected for orbital group  1
 Library entry O      F aug-cc-pV5Z          selected for orbital group  1
 Library entry O      G aug-cc-pV5Z          selected for orbital group  1
 Library entry O      H aug-cc-pV5Z          selected for orbital group  1
 Library entry H      S aug-cc-pV5Z          selected for orbital group  2
 Library entry H      P aug-cc-pV5Z          selected for orbital group  2
 Library entry H      D aug-cc-pV5Z          selected for orbital group  2
 Library entry H      F aug-cc-pV5Z          selected for orbital group  2
 Library entry H      G aug-cc-pV5Z          selected for orbital group  2
 Library entry C      S aug-cc-pV5Z          selected for orbital group  3
 Library entry C      P aug-cc-pV5Z          selected for orbital group  3
 Library entry C      D aug-cc-pV5Z          selected for orbital group  3
 Library entry C      F aug-cc-pV5Z          selected for orbital group  3
 Library entry C      G aug-cc-pV5Z          selected for orbital group  3
 Library entry C      H aug-cc-pV5Z          selected for orbital group  3


 PROGRAM * SEWARD (Integral evaluation for generally contracted gaussian basis sets)     Author: Roland Lindh, 1990

 Geometry written to block  1 of record 700


 Point group  C1  



 ATOMIC COORDINATES

 NR  ATOM    CHARGE       X              Y              Z

   1  O1      8.00   -1.486386802    0.085355983   -0.013585466
   2  H1      1.00    0.335817133    0.023991766   -0.012917013
   3  C1      6.00   -2.358361084   -2.438282506    0.002047747
   4  H2      1.00   -4.411145066   -2.378970738    0.000418007
   5  H3      1.00   -1.749821661   -3.495555095   -1.663800640
   6  H4      1.00   -1.751828710   -3.474191337    1.682000853
   7  O2      8.00    5.585096491   -0.148275839   -0.007282271
   8  H5      1.00    6.415072027    0.585225512   -1.443233530
   9  H6      1.00    6.412577881    0.612535985    1.415850692

 Bond lengths in Bohr (Angstrom)

 1-2  1.823237010  1-3  2.670081416  3-4  2.053641307  3-5  2.064750931  3-6  2.064759324
     ( 0.964815476)     ( 1.412946237)     ( 1.086740179)     ( 1.092619139)     ( 1.092623580)

 7-8  1.813515822  7-9  1.813523507
     ( 0.959671245)     ( 0.959675312)

 Bond angles

  1-3-4  107.40559298   1-3-5  112.51964705   1-3-6  112.52114043   2-1-3  107.13200477

  4-3-5  107.98411747   4-3-6  107.98497413   5-3-6  108.23763291   8-7-9  104.05491273

 NUCLEAR CHARGE:                   28
 NUMBER OF PRIMITIVE AOS:        1245
 NUMBER OF SYMMETRY AOS:          930
 NUMBER OF CONTRACTIONS:          861   (  861A   )
 NUMBER OF CORE ORBITALS:           3   (    3A   )
 NUMBER OF VALENCE ORBITALS:       18   (   18A   )


 NUCLEAR REPULSION ENERGY   72.88410588


 Eigenvalues of metric

         1 0.173E-05 0.191E-05 0.249E-05 0.356E-05 0.445E-05 0.692E-05 0.953E-05 0.979E-05


 OPERATOR DM      FOR CENTER  0  COORDINATES:    0.000000    0.000000    0.000000


 **********************************************************************************************************************************
 DATASETS  * FILE   NREC   LENGTH (MB)   RECORD NAMES
              1      18       57.10       500      610      700      900      950      970     1000      129      960     1100   
                                          VAR    BASINP    GEOM    SYMINP    ZMAT    AOBASIS   BASIS     P2S    ABASIS      S 
                                         1400     1410     1200     1210     1080     1600     1650     1700   
                                           T        V       H0       H01     AOSYM     SMH    MOLCAS    OPER   

 PROGRAMS   *        TOTAL       INT
 CPU TIMES  *         1.63      1.46
 REAL TIME  *         2.92 SEC
 DISK USED  *        57.81 MB (local),      231.24 MB (total)
 GA USED    *         0.00 MB       (max)       0.00 MB       (current)
 **********************************************************************************************************************************


 PROGRAM * RHF-SCF (CLOSED SHELL)       Authors: W. Meyer, H.-J. Werner


 NUMBER OF ELECTRONS:      14+   14-    SPACE SYMMETRY=1    SPIN SYMMETRY: Singlet 
 CONVERGENCE THRESHOLDS:    1.00E-04 (Density)    1.00E-09 (Energy)
 INTEGRAL THRESHOLDS:       1.00E-12 (Initial)    1.00E-12 (Final)
 MAX. NUMBER OF ITERATIONS:       60
 INTERPOLATION TYPE:            DIIS
 INTERPOLATION STEPS:              2 (START)      1 (STEP)
 LEVEL SHIFTS:                  0.00 (CLOSED)  0.00 (OPEN) 



 Orbital guess generated from atomic densities. Full valence occupancy:   21

 Molecular orbital dump at record        2101.2

 Initial occupancy:  14

 Direct Fock-matrix evaluation.        Authors: Roland Lindh & Martin Schuetz (1993/96)

 Integral Threshold:                  0.1D-11
 Threshold for writing integrals:     0.1D-06
 Prescreening on density matrix:        ON 
 Calculation will be performed fully direct        

 ITERATION   DDIFF            GRAD            ENERGY        2-EL.EN.            DIPOLE MOMENTS         DIIS   CPU(IT)  CPU(TOT)
    1      0.000D+00      0.000D+00      -191.10093095    289.072278    1.53498   -0.02077   -0.00154    0   1419.1   1439.4     start
    2      0.000D+00      0.264D-02      -191.15419462    282.918779    0.98910    0.00664   -0.00091    1   1359.9   2799.3     diag
    3      0.145D-02      0.154D-02      -191.17146761    285.716207    1.10584   -0.03455   -0.00086    2   1302.0   4101.4     diag
    4      0.531D-03      0.219D-03      -191.17216359    285.457437    1.09882   -0.03587   -0.00084    3   1238.4   5339.8     diag
    5      0.103D-03      0.494D-04      -191.17221559    285.480954    1.09306   -0.04046   -0.00081    4   1182.6   6522.3     diag
    6      0.297D-04      0.105D-04      -191.17221813    285.477463    1.09254   -0.04027   -0.00081    5   1091.9   7614.3     diag
    7      0.871D-05      0.460D-05      -191.17221838    285.477421    1.09228   -0.04093   -0.00081    6   1010.0   8624.2     diag
    8      0.235D-05      0.111D-05      -191.17221841    285.477530    1.09208   -0.04094   -0.00081    7    993.4   9617.6     diag
    9      0.105D-05      0.243D-06      -191.17221841    285.477613    1.09204   -0.04097   -0.00081    8    852.6  10470.2     diag
   10      0.202D-06      0.623D-07      -191.17221841    285.477540    1.09203   -0.04097   -0.00081    0    693.4  11163.6     orth

 Final occupancy:  14

 !RHF STATE  1.1 Energy              -191.172218414821
 Nuclear energy                        72.88410588
 One-electron energy                 -406.79509421
 Two-electron energy                  142.73876991
 Virial quotient                       -1.00104775
 !RHF STATE  1.1 Dipole moment          1.09203013    -0.04096632    -0.00080981
 Dipole moment /Debye                   2.77548193    -0.10411917    -0.00205819

 Orbital energies:

         1.1          2.1          3.1          4.1          5.1          6.1          7.1          8.1          9.1         10.1
    -20.578187   -20.542484   -11.257911    -1.365443    -1.345200    -0.913274    -0.728990    -0.679422    -0.608884    -0.600630

        11.1         12.1         13.1         14.1         15.1         16.1
     -0.582990    -0.524923    -0.492017    -0.438422     0.018284     0.031880


 HOMO     14.1    -0.438422 =     -11.9301eV
 LUMO     15.1     0.018284 =       0.4975eV
 LUMO-HOMO         0.456707 =      12.4276eV


 **********************************************************************************************************************************
 DATASETS  * FILE   NREC   LENGTH (MB)   RECORD NAMES
              1      18       57.10       500      610      700      900      950      970     1000      129      960     1100   
                                          VAR    BASINP    GEOM    SYMINP    ZMAT    AOBASIS   BASIS     P2S    ABASIS      S 
                                         1400     1410     1200     1210     1080     1600     1650     1700   
                                           T        V       H0       H01     AOSYM     SMH    MOLCAS    OPER   

              2       4       17.89       700     1000      520     2101   
                                         GEOM     BASIS   MCVARS     RHF  

 PROGRAMS   *        TOTAL   RHF-SCF       INT
 CPU TIMES  *     11166.12  11164.49      1.46
 REAL TIME  *     11205.66 SEC
 DISK USED  *       125.65 MB (local),      502.62 MB (total)
 SF USED    *         8.91 MB
 GA USED    *         0.00 MB       (max)       0.00 MB       (current)
 **********************************************************************************************************************************
 SETTING EAB_HF         =      -191.17221841  AU                              

 Dummy atoms: O2  H5  H6


 Recomputing one-electron integrals since nuclear charges changed


 PROGRAM * SEWARD (Integral evaluation for generally contracted gaussian basis sets)     Author: Roland Lindh, 1990

 Geometry written to block  1 of record 700


 Point group  C1  



 ATOMIC COORDINATES

 NR  ATOM    CHARGE       X              Y              Z

   1  O1      8.00   -1.486386802    0.085355983   -0.013585466
   2  H1      1.00    0.335817133    0.023991766   -0.012917013
   3  C1      6.00   -2.358361084   -2.438282506    0.002047747
   4  H2      1.00   -4.411145066   -2.378970738    0.000418007
   5  H3      1.00   -1.749821661   -3.495555095   -1.663800640
   6  H4      1.00   -1.751828710   -3.474191337    1.682000853
   7  O2      0.00    5.585096491   -0.148275839   -0.007282271
   8  H5      0.00    6.415072027    0.585225512   -1.443233530
   9  H6      0.00    6.412577881    0.612535985    1.415850692

 Bond lengths in Bohr (Angstrom)

 1-2  1.823237010  1-3  2.670081416  3-4  2.053641307  3-5  2.064750931  3-6  2.064759324
     ( 0.964815476)     ( 1.412946237)     ( 1.086740179)     ( 1.092619139)     ( 1.092623580)

 7-8  1.813515822  7-9  1.813523507
     ( 0.959671245)     ( 0.959675312)

 Bond angles

  1-3-4  107.40559298   1-3-5  112.51964705   1-3-6  112.52114043   2-1-3  107.13200477

  4-3-5  107.98411747   4-3-6  107.98497413   5-3-6  108.23763291   8-7-9  104.05491273

 NUCLEAR CHARGE:                   18
 NUMBER OF PRIMITIVE AOS:        1245
 NUMBER OF SYMMETRY AOS:          930
 NUMBER OF CONTRACTIONS:          861   (  861A   )
 NUMBER OF CORE ORBITALS:           2   (    2A   )
 NUMBER OF VALENCE ORBITALS:       12   (   12A   )

 MOLECULE CHANGED: INITIALIZING OCCUPATION AND DUMP RECORDS


 NUCLEAR REPULSION ENERGY   40.42326361


 Eigenvalues of metric

         1 0.173E-05 0.191E-05 0.249E-05 0.356E-05 0.445E-05 0.692E-05 0.953E-05 0.979E-05


 OPERATOR DM      FOR CENTER  0  COORDINATES:    0.000000    0.000000    0.000000


 **********************************************************************************************************************************
 DATASETS  * FILE   NREC   LENGTH (MB)   RECORD NAMES
              1      18       57.10       500      610      700      900      950      970     1000      129      960     1100   
                                          VAR    BASINP    GEOM    SYMINP    ZMAT    AOBASIS   BASIS     P2S    ABASIS      S 
                                         1400     1410     1200     1210     1080     1600     1650     1700   
                                           T        V       H0       H01     AOSYM     SMH    MOLCAS    OPER   

              2       4       17.89       700     1000      520     2101   
                                         GEOM     BASIS   MCVARS     RHF  

 PROGRAMS   *        TOTAL       INT   RHF-SCF       INT
 CPU TIMES  *     11167.27      1.14  11164.49      1.46
 REAL TIME  *     11206.91 SEC
 DISK USED  *       125.65 MB (local),      502.62 MB (total)
 SF USED    *         8.91 MB
 GA USED    *         0.00 MB       (max)       0.00 MB       (current)
 **********************************************************************************************************************************


 PROGRAM * RHF-SCF (CLOSED SHELL)       Authors: W. Meyer, H.-J. Werner


 NUMBER OF ELECTRONS:       9+    9-    SPACE SYMMETRY=1    SPIN SYMMETRY: Singlet 
 CONVERGENCE THRESHOLDS:    1.00E-04 (Density)    1.00E-09 (Energy)
 INTEGRAL THRESHOLDS:       1.00E-12 (Initial)    1.00E-12 (Final)
 MAX. NUMBER OF ITERATIONS:       60
 INTERPOLATION TYPE:            DIIS
 INTERPOLATION STEPS:              2 (START)      1 (STEP)
 LEVEL SHIFTS:                  0.00 (CLOSED)  0.00 (OPEN) 



 Orbital guess generated from atomic densities. Full valence occupancy:   14

 Molecular orbital dump at record        2201.2

 Initial occupancy:   9

 Direct Fock-matrix evaluation.        Authors: Roland Lindh & Martin Schuetz (1993/96)

 Integral Threshold:                  0.1D-11
 Threshold for writing integrals:     0.1D-06
 Prescreening on density matrix:        ON 
 Calculation will be performed fully direct        

 ITERATION   DDIFF            GRAD            ENERGY        2-EL.EN.            DIPOLE MOMENTS         DIIS   CPU(IT)  CPU(TOT)
    1      0.000D+00      0.000D+00      -115.06476705    164.638027    0.66792   -0.78371    0.00498    0   1403.5   1420.2     start
    2      0.000D+00      0.225D-02      -115.09323225    162.042615    0.34901   -0.46103    0.00291    1   1355.8   2776.0     diag
    3      0.968D-03      0.123D-02      -115.10070212    163.310454    0.41200   -0.58728    0.00372    2   1272.3   4048.2     diag
    4      0.354D-03      0.244D-03      -115.10124015    163.133044    0.40865   -0.58046    0.00367    3   1239.9   5288.2     diag
    5      0.905D-04      0.496D-04      -115.10127546    163.144478    0.40303   -0.58327    0.00369    4   1169.5   6457.7     diag
    6      0.251D-04      0.936D-05      -115.10127711    163.142322    0.40288   -0.58403    0.00369    5   1075.2   7532.8     diag
    7      0.789D-05      0.204D-05      -115.10127719    163.141858    0.40260   -0.58421    0.00369    6    981.8   8514.7     diag
    8      0.204D-05      0.545D-06      -115.10127720    163.142253    0.40257   -0.58423    0.00369    7    847.0   9361.7     diag
    9      0.364D-06      0.169D-06      -115.10127720    163.142077    0.40256   -0.58423    0.00369    0    690.5  10052.2     orth

 Final occupancy:   9

 !RHF STATE  1.1 Energy              -115.101277197651
 Nuclear energy                        40.42326361
 One-electron energy                 -237.09557949
 Two-electron energy                   81.57103869
 Virial quotient                       -1.00099757
 !RHF STATE  1.1 Dipole moment          0.40255980    -0.58423071     0.00369493
 Dipole moment /Debye                   1.02313794    -1.48486909     0.00939096

 Orbital energies:

         1.1          2.1          3.1          4.1          5.1          6.1          7.1          8.1          9.1         10.1
    -20.557474   -11.269057    -1.359536    -0.925122    -0.692686    -0.621099    -0.595581    -0.504638    -0.451558     0.017771

        11.1
      0.029978


 HOMO      9.1    -0.451558 =     -12.2875eV
 LUMO     10.1     0.017771 =       0.4836eV
 LUMO-HOMO         0.469329 =      12.7711eV


 **********************************************************************************************************************************
 DATASETS  * FILE   NREC   LENGTH (MB)   RECORD NAMES
              1      18       57.10       500      610      700      900      950      970     1000      129      960     1100   
                                          VAR    BASINP    GEOM    SYMINP    ZMAT    AOBASIS   BASIS     P2S    ABASIS      S 
                                         1400     1410     1200     1210     1080     1600     1650     1700   
                                           T        V       H0       H01     AOSYM     SMH    MOLCAS    OPER   

              2       5       50.08       700     1000      520     2101     2201   
                                         GEOM     BASIS   MCVARS     RHF      RHF  

 PROGRAMS   *        TOTAL   RHF-SCF       INT   RHF-SCF       INT
 CPU TIMES  *     21220.32  10053.05      1.14  11164.49      1.46
 REAL TIME  *     21294.34 SEC
 DISK USED  *       154.88 MB (local),      619.50 MB (total)
 SF USED    *         8.91 MB
 GA USED    *         0.00 MB       (max)       0.00 MB       (current)
 **********************************************************************************************************************************
 SETTING EA_HF          =      -115.10127720  AU                              

 Dummy atoms: O1  H1  C1  H2  H3  H4


 Recomputing one-electron integrals since nuclear charges changed


 PROGRAM * SEWARD (Integral evaluation for generally contracted gaussian basis sets)     Author: Roland Lindh, 1990

 Geometry written to block  1 of record 700


 Point group  C1  



 ATOMIC COORDINATES

 NR  ATOM    CHARGE       X              Y              Z

   1  O1      0.00   -1.486386802    0.085355983   -0.013585466
   2  H1      0.00    0.335817133    0.023991766   -0.012917013
   3  C1      0.00   -2.358361084   -2.438282506    0.002047747
   4  H2      0.00   -4.411145066   -2.378970738    0.000418007
   5  H3      0.00   -1.749821661   -3.495555095   -1.663800640
   6  H4      0.00   -1.751828710   -3.474191337    1.682000853
   7  O2      8.00    5.585096491   -0.148275839   -0.007282271
   8  H5      1.00    6.415072027    0.585225512   -1.443233530
   9  H6      1.00    6.412577881    0.612535985    1.415850692

 Bond lengths in Bohr (Angstrom)

 1-2  1.823237010  1-3  2.670081416  3-4  2.053641307  3-5  2.064750931  3-6  2.064759324
     ( 0.964815476)     ( 1.412946237)     ( 1.086740179)     ( 1.092619139)     ( 1.092623580)

 7-8  1.813515822  7-9  1.813523507
     ( 0.959671245)     ( 0.959675312)

 Bond angles

  1-3-4  107.40559298   1-3-5  112.51964705   1-3-6  112.52114043   2-1-3  107.13200477

  4-3-5  107.98411747   4-3-6  107.98497413   5-3-6  108.23763291   8-7-9  104.05491273

 NUCLEAR CHARGE:                   10
 NUMBER OF PRIMITIVE AOS:        1245
 NUMBER OF SYMMETRY AOS:          930
 NUMBER OF CONTRACTIONS:          861   (  861A   )
 NUMBER OF CORE ORBITALS:           1   (    1A   )
 NUMBER OF VALENCE ORBITALS:        6   (    6A   )

 MOLECULE CHANGED: INITIALIZING OCCUPATION AND DUMP RECORDS


 NUCLEAR REPULSION ENERGY    9.17236909


 Eigenvalues of metric

         1 0.173E-05 0.191E-05 0.249E-05 0.356E-05 0.445E-05 0.692E-05 0.953E-05 0.979E-05


 OPERATOR DM      FOR CENTER  0  COORDINATES:    0.000000    0.000000    0.000000


 **********************************************************************************************************************************
 DATASETS  * FILE   NREC   LENGTH (MB)   RECORD NAMES
              1      18       57.10       500      610      700      900      950      970     1000      129      960     1100   
                                          VAR    BASINP    GEOM    SYMINP    ZMAT    AOBASIS   BASIS     P2S    ABASIS      S 
                                         1400     1410     1200     1210     1080     1600     1650     1700   
                                           T        V       H0       H01     AOSYM     SMH    MOLCAS    OPER   

              2       5       50.08       700     1000      520     2101     2201   
                                         GEOM     BASIS   MCVARS     RHF      RHF  

 PROGRAMS   *        TOTAL       INT   RHF-SCF       INT   RHF-SCF       INT
 CPU TIMES  *     21221.44      1.11  10053.05      1.14  11164.49      1.46
 REAL TIME  *     21295.59 SEC
 DISK USED  *       154.88 MB (local),      619.50 MB (total)
 SF USED    *         8.91 MB
 GA USED    *         0.00 MB       (max)       0.00 MB       (current)
 **********************************************************************************************************************************


 PROGRAM * RHF-SCF (CLOSED SHELL)       Authors: W. Meyer, H.-J. Werner


 NUMBER OF ELECTRONS:       5+    5-    SPACE SYMMETRY=1    SPIN SYMMETRY: Singlet 
 CONVERGENCE THRESHOLDS:    1.00E-04 (Density)    1.00E-09 (Energy)
 INTEGRAL THRESHOLDS:       1.00E-12 (Initial)    1.00E-12 (Final)
 MAX. NUMBER OF ITERATIONS:       60
 INTERPOLATION TYPE:            DIIS
 INTERPOLATION STEPS:              2 (START)      1 (STEP)
 LEVEL SHIFTS:                  0.00 (CLOSED)  0.00 (OPEN) 



 Orbital guess generated from atomic densities. Full valence occupancy:    7

 Molecular orbital dump at record        2301.2

 Initial occupancy:   5

 Direct Fock-matrix evaluation.        Authors: Roland Lindh & Martin Schuetz (1993/96)

 Integral Threshold:                  0.1D-11
 Threshold for writing integrals:     0.1D-06
 Prescreening on density matrix:        ON 
 Calculation will be performed fully direct        

 ITERATION   DDIFF            GRAD            ENERGY        2-EL.EN.            DIPOLE MOMENTS         DIIS   CPU(IT)  CPU(TOT)
    1      0.000D+00      0.000D+00       -76.02878667     77.656320    0.84651    0.76318   -0.00655    0   1341.9   1352.3     start
    2      0.000D+00      0.333D-02       -76.05577782     74.057949    0.49882    0.44971   -0.00386    1   1305.1   2657.4     diag
    3      0.112D-02      0.208D-02       -76.06689874     75.644809    0.58550    0.52786   -0.00453    2   1237.8   3895.2     diag
    4      0.415D-03      0.196D-03       -76.06708384     75.554480    0.58270    0.52534   -0.00451    3   1127.3   5022.5     diag
    5      0.524D-04      0.532D-04       -76.06710256     75.568600    0.58173    0.52445   -0.00450    4   1056.2   6078.8     diag
    6      0.160D-04      0.103D-04       -76.06710369     75.567671    0.58155    0.52430   -0.00450    5    994.5   7073.2     diag
    7      0.402D-05      0.204D-05       -76.06710374     75.567806    0.58149    0.52424   -0.00450    6    871.0   7944.2     diag
    8      0.105D-05      0.397D-06       -76.06710374     75.567797    0.58146    0.52422   -0.00450    7    667.8   8612.0     diag
    9      0.202D-06      0.514D-07       -76.06710374     75.567784    0.58146    0.52421   -0.00450    0    492.8   9104.8     orth

 Final occupancy:   5

 !RHF STATE  1.1 Energy               -76.067103742530
 Nuclear energy                         9.17236909
 One-electron energy                 -123.02336463
 Two-electron energy                   37.78389180
 Virial quotient                       -1.00101355
 !RHF STATE  1.1 Dipole moment          0.58145829     0.52421368    -0.00449743
 Dipole moment /Debye                   1.47782276     1.33233100    -0.01143058

 Orbital energies:

         1.1          2.1          3.1          4.1          5.1          6.1          7.1
    -20.564649    -1.351717    -0.715558    -0.585413    -0.510453     0.019936     0.028076


 HOMO      5.1    -0.510453 =     -13.8901eV
 LUMO      6.1     0.019936 =       0.5425eV
 LUMO-HOMO         0.530389 =      14.4326eV


 **********************************************************************************************************************************
 DATASETS  * FILE   NREC   LENGTH (MB)   RECORD NAMES
              1      18       57.10       500      610      700      900      950      970     1000      129      960     1100   
                                          VAR    BASINP    GEOM    SYMINP    ZMAT    AOBASIS   BASIS     P2S    ABASIS      S 
                                         1400     1410     1200     1210     1080     1600     1650     1700   
                                           T        V       H0       H01     AOSYM     SMH    MOLCAS    OPER   

              2       6       82.27       700     1000      520     2101     2201     2301   
                                         GEOM     BASIS   MCVARS     RHF      RHF      RHF  

 PROGRAMS   *        TOTAL   RHF-SCF       INT   RHF-SCF       INT   RHF-SCF       INT
 CPU TIMES  *     30327.08   9105.64      1.11  10053.05      1.14  11164.49      1.46
 REAL TIME  *     30432.32 SEC
 DISK USED  *       187.07 MB (local),      748.27 MB (total)
 SF USED    *         8.91 MB
 GA USED    *         0.00 MB       (max)       0.00 MB       (current)
 **********************************************************************************************************************************
 SETTING EB_HF          =       -76.06710374  AU                              
 SETTING E_AB_INT       =        -0.00383747  AU                              

 *** results in hartree
 E_AB_INT         =        -0.00383747 AU
 Molecular orbitals read from record     2301.2  Type=RHF/CANONICAL (state 1.1)
 Occupation numbers read from record     2301.2  Type=RHF/RHF (state 1.1)
 Orbital energies read from record       2301.2  Type=RHF/CANONICAL (state 1.1)
 Redundancy group numbers read from rec  2301.2  Type=RHF/RHF (state 1.1)

 RHF/aug-cc-pV5Z energy=    -76.067103742530

         RHF-SCF         RHF-SCF         RHF-SCF
    -76.06710374   -115.10127720   -191.17221841
 **********************************************************************************************************************************
 Molpro calculation terminated
