
 Primary working directories    : /scratch/sirous/43012/molpro.aZr3WLRhdT
 Secondary working directories  : /scratch/sirous/43012/molpro.aZr3WLRhdT
 Wavefunction directory         : /scratch/sirous/43012/
 Main file repository           : /scratch/sirous/43012/molpro.aZr3WLRhdT/

 id        : karlovklimes

 Nodes                      nprocs
 nc-17.cc.karlov.mff.cuni.cz    4

 Using customized tuning parameters: mindgm=1; mindgv=20; mindgc=4; mindgr=1; noblas=0; minvec=7
 default implementation of scratch files=sf  


 Variables initialized (934), CPU time= 0.01 sec
 ***,CH3C6H4CN+CF3CN+BF3
 memory,500,m
 gdirect
 gthresh,energy=1.d-8,twoint=1.d-15,oneint=1.d-15,zero=1.d-15,orbital=1.d-8,grid=1.d-8
 symmetry,nosym
 geomtyp=xyz
                                                                                 ! Geometry
 geometry={
 O1        -0.702196054    -0.056060256     0.009942262
 H1        -1.022193224    0.846775782     -0.011488714
 H2        0.257521062    0.042121496     0.005218999
 O2        1.9671768256981852    0.028707309902059823     0.0012146748909072102
 H3        2.3437984406981855    -0.4096727560979402     0.7673390568909072
 H4        2.3394411426981856    -0.44750566509794015     -0.7441878271090928
 }
 
 
 
 basis=avtz
 
 
 
                                                                                 ! Dimer Calculation
 {rhf,accu=1.d-8;orbital,2101.2}
 eab_HF=energy
 
 
                                                                                 !monomer A
 dummy,4,5,6;                                                                    ! NOW MONOMER B IS DUMMY
 {rhf,accu=1.d-8;orbital,2201.2}
 ea_HF=energy
                                                                                 !monomer B
 dummy,1,2,3;                                                                    !NOW MONOMER A IS DUMMY
 {rhf,accu=1.d-8;orbital,2301.2}
 eb_HF=energy
 
 E_AB_int=eab_HF-ea_HF-eb_HF
 
 
 text,results in hartree
 show,E_AB_int
 
 Commands  initialized (763), CPU time= 0.02 sec, 617 directives.
 Default parameters read. Elapsed time= 0.21 sec

 Checking input...
 Passed
1


                                         ***  PROGRAM SYSTEM MOLPRO  ***
                                       Copyright, TTI GmbH Stuttgart, 2015
                                    Version 2019.2 linked Jun  8 2019 11:26:33


 **********************************************************************************************************************************
 LABEL *   CH3C6H4CN+CF3CN+BF3                                                           
  64 bit mpp version                                                                     DATE: 06-Oct-19          TIME: 17:30:24  
 **********************************************************************************************************************************

 SHA1:             8135a10abc80eafa5b3ae28ffc55be4890dc4c84
 **********************************************************************************************************************************

 THRESHOLDS:

 ZERO    =  1.00D-15  ONEINT  =  1.00D-15  TWOINT  =  1.00D-15  PREFAC  =  1.00D-14  XXXXXX  =  1.00D-09  EORDER  =  1.00D-04
 ENERGY  =  1.00D-08  ETEST   =  0.00D+00  EDENS   =  0.00D+00  THRDEDEF=  1.00D-06  GRADIENT=  1.00D-02  STEP    =  1.00D-03
 ORBITAL =  1.00D-08  CIVEC   =  1.00D-05  COEFF   =  1.00D-04  PRINTCI =  5.00D-02  PUNCHCI =  9.90D+01  OPTGRAD =  3.00D-04
 OPTENERG=  1.00D-06  OPTSTEP =  3.00D-04  THRGRAD =  1.00D-10  COMPRESS=  1.00D-11  VARMIN  =  1.00D-07  VARMAX  =  1.00D-03
 THRDOUB =  0.00D+00  THRDIV  =  1.00D-05  THRRED  =  1.00D-07  THRPSP  =  1.00D+00  THRDC   =  1.00D-10  THRCS   =  1.00D-10
 THRNRM  =  1.00D-08  THREQ   =  0.00D+00  THRDE   =  1.00D+00  THRREF  =  1.00D-05  SPARFAC =  1.00D+00  THRDLP  =  1.00D-07
 THRDIA  =  1.00D-10  THRDLS  =  1.00D-07  THRGPS  =  0.00D+00  THRKEX  =  0.00D+00  THRDIS  =  2.00D-01  THRVAR  =  1.00D-10
 THRLOC  =  1.00D-06  THRGAP  =  1.00D-06  THRLOCT = -1.00D+00  THRGAPT = -1.00D+00  THRORB  =  1.00D-06  THRMLTP =  0.00D+00
 THRCPQCI=  1.00D-10  KEXTA   =  0.00D+00  THRCOARS=  0.00D+00  SYMTOL  =  1.00D-06  GRADTOL =  1.00D-06  THROVL  =  1.00D-08
 THRORTH =  1.00D-08  GRID    =  1.00D-08  GRIDMAX =  1.00D-03  DTMAX   =  0.00D+00  THROCCDE=  1.00D-01  THROCCDE=  1.00D-01
 THRPRINT=  2.50D-01


 Variable memory set to  500000000 words,  buffer space 

 SETTING GEOMTYP        =    XYZ
 ZSYMEL=NOSYM

 SETTING BASIS          =    AVTZ


 Recomputing integrals since basis changed


 Using spherical harmonics

 Library entry O      S aug-cc-pVTZ          selected for orbital group  1
 Library entry O      P aug-cc-pVTZ          selected for orbital group  1
 Library entry O      D aug-cc-pVTZ          selected for orbital group  1
 Library entry O      F aug-cc-pVTZ          selected for orbital group  1
 Library entry H      S aug-cc-pVTZ          selected for orbital group  2
 Library entry H      P aug-cc-pVTZ          selected for orbital group  2
 Library entry H      D aug-cc-pVTZ          selected for orbital group  2


 PROGRAM * SEWARD (Integral evaluation for generally contracted gaussian basis sets)     Author: Roland Lindh, 1990

 Geometry written to block  1 of record 700


 Point group  C1  



 ATOMIC COORDINATES

 NR  ATOM    CHARGE       X              Y              Z

   1  O1      8.00   -1.326958228   -0.105938530    0.018788152
   2  H1      1.00   -1.931665240    1.600174317   -0.021710523
   3  H2      1.00    0.486644278    0.079598091    0.009862479
   4  O2      8.00    3.717425439    0.054248953    0.002295403
   5  H3      1.00    4.429137144   -0.774169310    1.450060662
   6  H4      1.00    4.420903044   -0.845663146   -1.406311178

 Bond lengths in Bohr (Angstrom)

 1-2  1.810561173  1-3  1.823090112  4-5  1.813514438  4-6  1.813531094
     ( 0.958107712)     ( 0.964737741)     ( 0.959670512)     ( 0.959679326)

 Bond angles

  2-1-3  103.66482512   5-4-6  103.95523303

 NUCLEAR CHARGE:                   20
 NUMBER OF PRIMITIVE AOS:         242
 NUMBER OF SYMMETRY AOS:          216
 NUMBER OF CONTRACTIONS:          184   (  184A   )
 NUMBER OF CORE ORBITALS:           2   (    2A   )
 NUMBER OF VALENCE ORBITALS:       12   (   12A   )


 NUCLEAR REPULSION ENERGY   38.28790004


 Eigenvalues of metric

         1 0.217E-03 0.233E-03 0.304E-03 0.326E-03 0.605E-03 0.866E-03 0.110E-02 0.136E-02


 OPERATOR DM      FOR CENTER  0  COORDINATES:    0.000000    0.000000    0.000000


 **********************************************************************************************************************************
 DATASETS  * FILE   NREC   LENGTH (MB)   RECORD NAMES
              1      18       31.31       500      610      700      900      950      970     1000      129      960     1100   
                                          VAR    BASINP    GEOM    SYMINP    ZMAT    AOBASIS   BASIS     P2S    ABASIS      S 
                                         1400     1410     1200     1210     1080     1600     1650     1700   
                                           T        V       H0       H01     AOSYM     SMH    MOLCAS    OPER   

 PROGRAMS   *        TOTAL       INT
 CPU TIMES  *         0.45      0.26
 REAL TIME  *         1.61 SEC
 DISK USED  *        31.70 MB (local),      126.82 MB (total)
 GA USED    *         0.00 MB       (max)       0.00 MB       (current)
 **********************************************************************************************************************************


 PROGRAM * RHF-SCF (CLOSED SHELL)       Authors: W. Meyer, H.-J. Werner


 NUMBER OF ELECTRONS:      10+   10-    SPACE SYMMETRY=1    SPIN SYMMETRY: Singlet 
 CONVERGENCE THRESHOLDS:    1.00E-04 (Density)    1.00E-09 (Energy)
 INTEGRAL THRESHOLDS:       1.00E-11 (Initial)    1.00E-11 (Final)
 MAX. NUMBER OF ITERATIONS:       60
 INTERPOLATION TYPE:            DIIS
 INTERPOLATION STEPS:              2 (START)      1 (STEP)
 LEVEL SHIFTS:                  0.00 (CLOSED)  0.00 (OPEN) 



 Orbital guess generated from atomic densities. Full valence occupancy:   14

 Molecular orbital dump at record        2101.2

 Initial occupancy:  10

 Direct Fock-matrix evaluation.        Authors: Roland Lindh & Martin Schuetz (1993/96)

 Integral Threshold:                  0.1D-10
 Threshold for writing integrals:     0.1D-06
 Prescreening on density matrix:        ON 
 Calculation will be performed fully direct        

 ITERATION   DDIFF            GRAD            ENERGY        2-EL.EN.            DIPOLE MOMENTS         DIIS   CPU(IT)  CPU(TOT)
    1      0.000D+00      0.000D+00      -152.05442162    194.956022    1.60010    0.08048   -0.00582    0      4.5      6.9     start
    2      0.000D+00      0.694D-02      -152.10544247    188.389146    1.19193   -0.01787   -0.00243    1      2.8      9.7     diag
    3      0.758D-02      0.412D-02      -152.12308433    191.184561    1.25384    0.02887   -0.00372    2      2.8     12.4     diag
    4      0.257D-02      0.432D-03      -152.12348702    191.016482    1.23560    0.02557   -0.00359    3      2.7     15.2     diag
    5      0.389D-03      0.113D-03      -152.12352207    191.028714    1.22973    0.02801   -0.00363    4      3.5     18.7     diag
    6      0.113D-03      0.330D-04      -152.12352461    191.032383    1.22865    0.02691   -0.00360    5      2.8     21.4     diag
    7      0.325D-04      0.148D-04      -152.12352505    191.030030    1.22821    0.02738   -0.00361    6      2.7     24.1     diag
    8      0.132D-04      0.241D-05      -152.12352508    191.030271    1.22809    0.02735   -0.00361    7      2.6     26.7     diag
    9      0.382D-05      0.438D-06      -152.12352508    191.030201    1.22808    0.02735   -0.00361    0      2.5     29.2     orth

 Final occupancy:  10

 !RHF STATE  1.1 Energy              -152.123525081180
 Nuclear energy                        38.28790004
 One-electron energy                 -285.92652539
 Two-electron energy                   95.51510026
 Virial quotient                       -1.00103472
 !RHF STATE  1.1 Dipole moment          1.22807787     0.02734794    -0.00361115
 Dipole moment /Debye                   3.12125815     0.06950697    -0.00917803

 Orbital energies:

         1.1          2.1          3.1          4.1          5.1          6.1          7.1          8.1          9.1         10.1
    -20.598354   -20.523757    -1.389925    -1.313298    -0.748304    -0.698127    -0.620040    -0.557898    -0.526796    -0.471661

        11.1         12.1
      0.021503     0.044896


 HOMO     10.1    -0.471661 =     -12.8346eV
 LUMO     11.1     0.021503 =       0.5851eV
 LUMO-HOMO         0.493164 =      13.4197eV


 **********************************************************************************************************************************
 DATASETS  * FILE   NREC   LENGTH (MB)   RECORD NAMES
              1      18       31.31       500      610      700      900      950      970     1000      129      960     1100   
                                          VAR    BASINP    GEOM    SYMINP    ZMAT    AOBASIS   BASIS     P2S    ABASIS      S 
                                         1400     1410     1200     1210     1080     1600     1650     1700   
                                           T        V       H0       H01     AOSYM     SMH    MOLCAS    OPER   

              2       4        3.53       700     1000      520     2101   
                                         GEOM     BASIS   MCVARS     RHF  

 PROGRAMS   *        TOTAL   RHF-SCF       INT
 CPU TIMES  *        29.66     29.20      0.26
 REAL TIME  *        32.21 SEC
 DISK USED  *        37.08 MB (local),      148.34 MB (total)
 SF USED    *         0.41 MB
 GA USED    *         0.00 MB       (max)       0.00 MB       (current)
 **********************************************************************************************************************************
 SETTING EAB_HF         =      -152.12352508  AU                              

 Dummy atoms: O2  H3  H4


 Recomputing one-electron integrals since nuclear charges changed


 PROGRAM * SEWARD (Integral evaluation for generally contracted gaussian basis sets)     Author: Roland Lindh, 1990

 Geometry written to block  1 of record 700


 Point group  C1  



 ATOMIC COORDINATES

 NR  ATOM    CHARGE       X              Y              Z

   1  O1      8.00   -1.326958228   -0.105938530    0.018788152
   2  H1      1.00   -1.931665240    1.600174317   -0.021710523
   3  H2      1.00    0.486644278    0.079598091    0.009862479
   4  O2      0.00    3.717425439    0.054248953    0.002295403
   5  H3      0.00    4.429137144   -0.774169310    1.450060662
   6  H4      0.00    4.420903044   -0.845663146   -1.406311178

 Bond lengths in Bohr (Angstrom)

 1-2  1.810561173  1-3  1.823090112  4-5  1.813514438  4-6  1.813531094
     ( 0.958107712)     ( 0.964737741)     ( 0.959670512)     ( 0.959679326)

 Bond angles

  2-1-3  103.66482512   5-4-6  103.95523303

 NUCLEAR CHARGE:                   10
 NUMBER OF PRIMITIVE AOS:         242
 NUMBER OF SYMMETRY AOS:          216
 NUMBER OF CONTRACTIONS:          184   (  184A   )
 NUMBER OF CORE ORBITALS:           1   (    1A   )
 NUMBER OF VALENCE ORBITALS:        6   (    6A   )

 MOLECULE CHANGED: INITIALIZING OCCUPATION AND DUMP RECORDS


 NUCLEAR REPULSION ENERGY    9.15671413


 Eigenvalues of metric

         1 0.217E-03 0.233E-03 0.304E-03 0.326E-03 0.605E-03 0.866E-03 0.110E-02 0.136E-02


 OPERATOR DM      FOR CENTER  0  COORDINATES:    0.000000    0.000000    0.000000


 **********************************************************************************************************************************
 DATASETS  * FILE   NREC   LENGTH (MB)   RECORD NAMES
              1      18       31.31       500      610      700      900      950      970     1000      129      960     1100   
                                          VAR    BASINP    GEOM    SYMINP    ZMAT    AOBASIS   BASIS     P2S    ABASIS      S 
                                         1400     1410     1200     1210     1080     1600     1650     1700   
                                           T        V       H0       H01     AOSYM     SMH    MOLCAS    OPER   

              2       4        3.53       700     1000      520     2101   
                                         GEOM     BASIS   MCVARS     RHF  

 PROGRAMS   *        TOTAL       INT   RHF-SCF       INT
 CPU TIMES  *        29.71      0.05     29.20      0.26
 REAL TIME  *        32.37 SEC
 DISK USED  *        37.08 MB (local),      148.34 MB (total)
 SF USED    *         0.41 MB
 GA USED    *         0.00 MB       (max)       0.00 MB       (current)
 **********************************************************************************************************************************


 PROGRAM * RHF-SCF (CLOSED SHELL)       Authors: W. Meyer, H.-J. Werner


 NUMBER OF ELECTRONS:       5+    5-    SPACE SYMMETRY=1    SPIN SYMMETRY: Singlet 
 CONVERGENCE THRESHOLDS:    1.00E-04 (Density)    1.00E-09 (Energy)
 INTEGRAL THRESHOLDS:       1.00E-11 (Initial)    1.00E-11 (Final)
 MAX. NUMBER OF ITERATIONS:       60
 INTERPOLATION TYPE:            DIIS
 INTERPOLATION STEPS:              2 (START)      1 (STEP)
 LEVEL SHIFTS:                  0.00 (CLOSED)  0.00 (OPEN) 



 Orbital guess generated from atomic densities. Full valence occupancy:    7

 Molecular orbital dump at record        2201.2

 Initial occupancy:   5

 Direct Fock-matrix evaluation.        Authors: Roland Lindh & Martin Schuetz (1993/96)

 Integral Threshold:                  0.1D-10
 Threshold for writing integrals:     0.1D-06
 Prescreening on density matrix:        ON 
 Calculation will be performed fully direct        

 ITERATION   DDIFF            GRAD            ENERGY        2-EL.EN.            DIPOLE MOMENTS         DIIS   CPU(IT)  CPU(TOT)
    1      0.000D+00      0.000D+00       -76.02228737     77.591688    0.61912    0.96458   -0.02521    0      4.1      7.3     start
    2      0.000D+00      0.719D-02       -76.04912990     74.018359    0.36311    0.56919   -0.01487    1      2.8     10.1     diag
    3      0.556D-02      0.451D-02       -76.06008517     75.589049    0.42626    0.66753   -0.01744    2      2.7     12.8     diag
    4      0.198D-02      0.418D-03       -76.06026783     75.500262    0.42399    0.66468   -0.01736    3      3.3     16.2     diag
    5      0.251D-03      0.113D-03       -76.06028597     75.514082    0.42316    0.66367   -0.01734    4      2.8     18.9     diag
    6      0.773D-04      0.214D-04       -76.06028702     75.513326    0.42303    0.66354   -0.01733    5      2.6     21.6     diag
    7      0.187D-04      0.413D-05       -76.06028706     75.513444    0.42297    0.66348   -0.01733    6      2.6     24.2     diag
    8      0.493D-05      0.774D-06       -76.06028707     75.513382    0.42296    0.66346   -0.01733    0      3.3     27.4     orth

 Final occupancy:   5

 !RHF STATE  1.1 Energy               -76.060287065596
 Nuclear energy                         9.15671413
 One-electron energy                 -122.97369209
 Two-electron energy                   37.75669089
 Virial quotient                       -1.00156129
 !RHF STATE  1.1 Dipole moment          0.42295669     0.66345830    -0.01733178
 Dipole moment /Debye                   1.07497826     1.68623236    -0.04405009

 Orbital energies:

         1.1          2.1          3.1          4.1          5.1          6.1          7.1
    -20.568262    -1.352018    -0.713870    -0.585757    -0.510247     0.021989     0.042810


 HOMO      5.1    -0.510247 =     -13.8845eV
 LUMO      6.1     0.021989 =       0.5984eV
 LUMO-HOMO         0.532236 =      14.4829eV


 **********************************************************************************************************************************
 DATASETS  * FILE   NREC   LENGTH (MB)   RECORD NAMES
              1      18       31.31       500      610      700      900      950      970     1000      129      960     1100   
                                          VAR    BASINP    GEOM    SYMINP    ZMAT    AOBASIS   BASIS     P2S    ABASIS      S 
                                         1400     1410     1200     1210     1080     1600     1650     1700   
                                           T        V       H0       H01     AOSYM     SMH    MOLCAS    OPER   

              2       5        7.39       700     1000      520     2101     2201   
                                         GEOM     BASIS   MCVARS     RHF      RHF  

 PROGRAMS   *        TOTAL   RHF-SCF       INT   RHF-SCF       INT
 CPU TIMES  *        57.19     27.47      0.05     29.20      0.26
 REAL TIME  *        60.22 SEC
 DISK USED  *        40.80 MB (local),      163.20 MB (total)
 SF USED    *         0.41 MB
 GA USED    *         0.00 MB       (max)       0.00 MB       (current)
 **********************************************************************************************************************************
 SETTING EA_HF          =       -76.06028707  AU                              

 Dummy atoms: O1  H1  H2


 Recomputing one-electron integrals since nuclear charges changed


 PROGRAM * SEWARD (Integral evaluation for generally contracted gaussian basis sets)     Author: Roland Lindh, 1990

 Geometry written to block  1 of record 700


 Point group  C1  



 ATOMIC COORDINATES

 NR  ATOM    CHARGE       X              Y              Z

   1  O1      0.00   -1.326958228   -0.105938530    0.018788152
   2  H1      0.00   -1.931665240    1.600174317   -0.021710523
   3  H2      0.00    0.486644278    0.079598091    0.009862479
   4  O2      8.00    3.717425439    0.054248953    0.002295403
   5  H3      1.00    4.429137144   -0.774169310    1.450060662
   6  H4      1.00    4.420903044   -0.845663146   -1.406311178

 Bond lengths in Bohr (Angstrom)

 1-2  1.810561173  1-3  1.823090112  4-5  1.813514438  4-6  1.813531094
     ( 0.958107712)     ( 0.964737741)     ( 0.959670512)     ( 0.959679326)

 Bond angles

  2-1-3  103.66482512   5-4-6  103.95523303

 NUCLEAR CHARGE:                   10
 NUMBER OF PRIMITIVE AOS:         242
 NUMBER OF SYMMETRY AOS:          216
 NUMBER OF CONTRACTIONS:          184   (  184A   )
 NUMBER OF CORE ORBITALS:           1   (    1A   )
 NUMBER OF VALENCE ORBITALS:        6   (    6A   )

 MOLECULE CHANGED: INITIALIZING OCCUPATION AND DUMP RECORDS


 NUCLEAR REPULSION ENERGY    9.17259115


 Eigenvalues of metric

         1 0.217E-03 0.233E-03 0.304E-03 0.326E-03 0.605E-03 0.866E-03 0.110E-02 0.136E-02


 OPERATOR DM      FOR CENTER  0  COORDINATES:    0.000000    0.000000    0.000000


 **********************************************************************************************************************************
 DATASETS  * FILE   NREC   LENGTH (MB)   RECORD NAMES
              1      18       31.31       500      610      700      900      950      970     1000      129      960     1100   
                                          VAR    BASINP    GEOM    SYMINP    ZMAT    AOBASIS   BASIS     P2S    ABASIS      S 
                                         1400     1410     1200     1210     1080     1600     1650     1700   
                                           T        V       H0       H01     AOSYM     SMH    MOLCAS    OPER   

              2       5        7.39       700     1000      520     2101     2201   
                                         GEOM     BASIS   MCVARS     RHF      RHF  

 PROGRAMS   *        TOTAL       INT   RHF-SCF       INT   RHF-SCF       INT
 CPU TIMES  *        57.25      0.06     27.47      0.05     29.20      0.26
 REAL TIME  *        60.36 SEC
 DISK USED  *        40.80 MB (local),      163.20 MB (total)
 SF USED    *         0.41 MB
 GA USED    *         0.00 MB       (max)       0.00 MB       (current)
 **********************************************************************************************************************************


 PROGRAM * RHF-SCF (CLOSED SHELL)       Authors: W. Meyer, H.-J. Werner


 NUMBER OF ELECTRONS:       5+    5-    SPACE SYMMETRY=1    SPIN SYMMETRY: Singlet 
 CONVERGENCE THRESHOLDS:    1.00E-04 (Density)    1.00E-09 (Energy)
 INTEGRAL THRESHOLDS:       1.00E-11 (Initial)    1.00E-11 (Final)
 MAX. NUMBER OF ITERATIONS:       60
 INTERPOLATION TYPE:            DIIS
 INTERPOLATION STEPS:              2 (START)      1 (STEP)
 LEVEL SHIFTS:                  0.00 (CLOSED)  0.00 (OPEN) 



 Orbital guess generated from atomic densities. Full valence occupancy:    7

 Molecular orbital dump at record        2301.2

 Initial occupancy:   5

 Direct Fock-matrix evaluation.        Authors: Roland Lindh & Martin Schuetz (1993/96)

 Integral Threshold:                  0.1D-10
 Threshold for writing integrals:     0.1D-06
 Prescreening on density matrix:        ON 
 Calculation will be performed fully direct        

 ITERATION   DDIFF            GRAD            ENERGY        2-EL.EN.            DIPOLE MOMENTS         DIIS   CPU(IT)  CPU(TOT)
    1      0.000D+00      0.000D+00       -76.02258847     77.618394    0.72242   -0.88196    0.01998    0      4.0      6.5     start
    2      0.000D+00      0.719D-02       -76.04940957     74.049469    0.42642   -0.52007    0.01178    1      2.8      9.3     diag
    3      0.559D-02      0.450D-02       -76.06030418     75.616245    0.49971   -0.60972    0.01381    2      2.6     12.0     diag
    4      0.199D-02      0.418D-03       -76.06048594     75.527575    0.49746   -0.60697    0.01375    3      2.6     14.6     diag
    5      0.254D-03      0.113D-03       -76.06050382     75.541276    0.49665   -0.60598    0.01373    4      3.0     17.6     diag
    6      0.760D-04      0.212D-04       -76.06050484     75.540546    0.49654   -0.60585    0.01373    5      3.5     21.1     diag
    7      0.183D-04      0.407D-05       -76.06050488     75.540659    0.49648   -0.60579    0.01373    6      3.1     24.2     diag
    8      0.486D-05      0.768D-06       -76.06050489     75.540600    0.49647   -0.60577    0.01373    0      3.2     27.5     orth

 Final occupancy:   5

 !RHF STATE  1.1 Energy               -76.060504885975
 Nuclear energy                         9.17259115
 One-electron energy                 -123.00339582
 Two-electron energy                   37.77029978
 Virial quotient                       -1.00144962
 !RHF STATE  1.1 Dipole moment          0.49646859    -0.60576937     0.01372515
 Dipole moment /Debye                   1.26181463    -1.53961131     0.03488357

 Orbital energies:

         1.1          2.1          3.1          4.1          5.1          6.1          7.1
    -20.567674    -1.352630    -0.715309    -0.585477    -0.510308     0.026491     0.046260


 HOMO      5.1    -0.510308 =     -13.8862eV
 LUMO      6.1     0.026491 =       0.7208eV
 LUMO-HOMO         0.536798 =      14.6070eV


 **********************************************************************************************************************************
 DATASETS  * FILE   NREC   LENGTH (MB)   RECORD NAMES
              1      18       31.31       500      610      700      900      950      970     1000      129      960     1100   
                                          VAR    BASINP    GEOM    SYMINP    ZMAT    AOBASIS   BASIS     P2S    ABASIS      S 
                                         1400     1410     1200     1210     1080     1600     1650     1700   
                                           T        V       H0       H01     AOSYM     SMH    MOLCAS    OPER   

              2       6       11.24       700     1000      520     2101     2201     2301   
                                         GEOM     BASIS   MCVARS     RHF      RHF      RHF  

 PROGRAMS   *        TOTAL   RHF-SCF       INT   RHF-SCF       INT   RHF-SCF       INT
 CPU TIMES  *        84.76     27.51      0.06     27.47      0.05     29.20      0.26
 REAL TIME  *        88.40 SEC
 DISK USED  *        44.65 MB (local),      178.61 MB (total)
 SF USED    *         0.41 MB
 GA USED    *         0.00 MB       (max)       0.00 MB       (current)
 **********************************************************************************************************************************
 SETTING EB_HF          =       -76.06050489  AU                              
 SETTING E_AB_INT       =        -0.00273313  AU                              

 *** results in hartree
 E_AB_INT         =        -0.00273313 AU
 Molecular orbitals read from record     2301.2  Type=RHF/CANONICAL (state 1.1)
 Occupation numbers read from record     2301.2  Type=RHF/RHF (state 1.1)
 Orbital energies read from record       2301.2  Type=RHF/CANONICAL (state 1.1)
 Redundancy group numbers read from rec  2301.2  Type=RHF/RHF (state 1.1)

 RHF/aug-cc-pVTZ energy=    -76.060504885975

         RHF-SCF         RHF-SCF         RHF-SCF
    -76.06050489    -76.06028707   -152.12352508
 **********************************************************************************************************************************
 Molpro calculation terminated
