
 Primary working directories    : /scratch/sirous/43011/molpro.hso7OrDFWO
 Secondary working directories  : /scratch/sirous/43011/molpro.hso7OrDFWO
 Wavefunction directory         : /scratch/sirous/43011/
 Main file repository           : /scratch/sirous/43011/molpro.hso7OrDFWO/

 id        : karlovklimes

 Nodes                      nprocs
 nc-12.cc.karlov.mff.cuni.cz    4

 Using customized tuning parameters: mindgm=1; mindgv=20; mindgc=4; mindgr=1; noblas=0; minvec=7
 default implementation of scratch files=sf  


 Variables initialized (934), CPU time= 0.03 sec
 ***,CH3C6H4CN+CF3CN+BF3
 memory,500,m
 gdirect
 gthresh,energy=1.d-8,twoint=1.d-15,oneint=1.d-15,zero=1.d-15,orbital=1.d-8,grid=1.d-8
 symmetry,nosym
 geomtyp=xyz
                                                                                 ! Geometry
 geometry={
 O1        -0.702196054    -0.056060256     0.009942262
 H1        -1.022193224    0.846775782     -0.011488714
 H2        0.257521062    0.042121496     0.005218999
 O2        1.8666088395975808    0.02949637953607976     0.0014502235212096128
 H3        2.243230454597581    -0.40888368646392026     0.7675746055212096
 H4        2.238873156597581    -0.44671659546392023     -0.7439522784787904
 }
 
 
 
 basis=avtz
 
 
 
                                                                                 ! Dimer Calculation
 {rhf,accu=1.d-8;orbital,2101.2}
 eab_HF=energy
 
 
                                                                                 !monomer A
 dummy,4,5,6;                                                                    ! NOW MONOMER B IS DUMMY
 {rhf,accu=1.d-8;orbital,2201.2}
 ea_HF=energy
                                                                                 !monomer B
 dummy,1,2,3;                                                                    !NOW MONOMER A IS DUMMY
 {rhf,accu=1.d-8;orbital,2301.2}
 eb_HF=energy
 
 E_AB_int=eab_HF-ea_HF-eb_HF
 
 
 text,results in hartree
 show,E_AB_int
 
 Commands  initialized (763), CPU time= 0.02 sec, 617 directives.
 Default parameters read. Elapsed time= 0.21 sec

 Checking input...
 Passed
1


                                         ***  PROGRAM SYSTEM MOLPRO  ***
                                       Copyright, TTI GmbH Stuttgart, 2015
                                    Version 2019.2 linked Jun  8 2019 11:26:33


 **********************************************************************************************************************************
 LABEL *   CH3C6H4CN+CF3CN+BF3                                                           
  64 bit mpp version                                                                     DATE: 06-Oct-19          TIME: 17:30:14  
 **********************************************************************************************************************************

 SHA1:             8135a10abc80eafa5b3ae28ffc55be4890dc4c84
 **********************************************************************************************************************************

 THRESHOLDS:

 ZERO    =  1.00D-15  ONEINT  =  1.00D-15  TWOINT  =  1.00D-15  PREFAC  =  1.00D-14  XXXXXX  =  1.00D-09  EORDER  =  1.00D-04
 ENERGY  =  1.00D-08  ETEST   =  0.00D+00  EDENS   =  0.00D+00  THRDEDEF=  1.00D-06  GRADIENT=  1.00D-02  STEP    =  1.00D-03
 ORBITAL =  1.00D-08  CIVEC   =  1.00D-05  COEFF   =  1.00D-04  PRINTCI =  5.00D-02  PUNCHCI =  9.90D+01  OPTGRAD =  3.00D-04
 OPTENERG=  1.00D-06  OPTSTEP =  3.00D-04  THRGRAD =  1.00D-10  COMPRESS=  1.00D-11  VARMIN  =  1.00D-07  VARMAX  =  1.00D-03
 THRDOUB =  0.00D+00  THRDIV  =  1.00D-05  THRRED  =  1.00D-07  THRPSP  =  1.00D+00  THRDC   =  1.00D-10  THRCS   =  1.00D-10
 THRNRM  =  1.00D-08  THREQ   =  0.00D+00  THRDE   =  1.00D+00  THRREF  =  1.00D-05  SPARFAC =  1.00D+00  THRDLP  =  1.00D-07
 THRDIA  =  1.00D-10  THRDLS  =  1.00D-07  THRGPS  =  0.00D+00  THRKEX  =  0.00D+00  THRDIS  =  2.00D-01  THRVAR  =  1.00D-10
 THRLOC  =  1.00D-06  THRGAP  =  1.00D-06  THRLOCT = -1.00D+00  THRGAPT = -1.00D+00  THRORB  =  1.00D-06  THRMLTP =  0.00D+00
 THRCPQCI=  1.00D-10  KEXTA   =  0.00D+00  THRCOARS=  0.00D+00  SYMTOL  =  1.00D-06  GRADTOL =  1.00D-06  THROVL  =  1.00D-08
 THRORTH =  1.00D-08  GRID    =  1.00D-08  GRIDMAX =  1.00D-03  DTMAX   =  0.00D+00  THROCCDE=  1.00D-01  THROCCDE=  1.00D-01
 THRPRINT=  2.50D-01


 Variable memory set to  500000000 words,  buffer space 

 SETTING GEOMTYP        =    XYZ
 ZSYMEL=NOSYM

 SETTING BASIS          =    AVTZ


 Recomputing integrals since basis changed


 Using spherical harmonics

 Library entry O      S aug-cc-pVTZ          selected for orbital group  1
 Library entry O      P aug-cc-pVTZ          selected for orbital group  1
 Library entry O      D aug-cc-pVTZ          selected for orbital group  1
 Library entry O      F aug-cc-pVTZ          selected for orbital group  1
 Library entry H      S aug-cc-pVTZ          selected for orbital group  2
 Library entry H      P aug-cc-pVTZ          selected for orbital group  2
 Library entry H      D aug-cc-pVTZ          selected for orbital group  2


 PROGRAM * SEWARD (Integral evaluation for generally contracted gaussian basis sets)     Author: Roland Lindh, 1990

 Geometry written to block  1 of record 700


 Point group  C1  



 ATOMIC COORDINATES

 NR  ATOM    CHARGE       X              Y              Z

   1  O1      8.00   -1.326958228   -0.105938530    0.018788152
   2  H1      1.00   -1.931665240    1.600174317   -0.021710523
   3  H2      1.00    0.486644278    0.079598091    0.009862479
   4  O2      8.00    3.527379489    0.055740079    0.002740525
   5  H3      1.00    4.239091193   -0.772678184    1.450505785
   6  H4      1.00    4.230857094   -0.844172021   -1.405866056

 Bond lengths in Bohr (Angstrom)

 1-2  1.810561173  1-3  1.823090112  4-5  1.813514438  4-6  1.813531094
     ( 0.958107712)     ( 0.964737741)     ( 0.959670512)     ( 0.959679326)

 Bond angles

  2-1-3  103.66482512   5-4-6  103.95523303

 NUCLEAR CHARGE:                   20
 NUMBER OF PRIMITIVE AOS:         242
 NUMBER OF SYMMETRY AOS:          216
 NUMBER OF CONTRACTIONS:          184   (  184A   )
 NUMBER OF CORE ORBITALS:           2   (    2A   )
 NUMBER OF VALENCE ORBITALS:       12   (   12A   )


 NUCLEAR REPULSION ENERGY   39.09469095


 Eigenvalues of metric

         1 0.205E-03 0.221E-03 0.286E-03 0.318E-03 0.586E-03 0.783E-03 0.103E-02 0.133E-02


 OPERATOR DM      FOR CENTER  0  COORDINATES:    0.000000    0.000000    0.000000


 **********************************************************************************************************************************
 DATASETS  * FILE   NREC   LENGTH (MB)   RECORD NAMES
              1      18       31.31       500      610      700      900      950      970     1000      129      960     1100   
                                          VAR    BASINP    GEOM    SYMINP    ZMAT    AOBASIS   BASIS     P2S    ABASIS      S 
                                         1400     1410     1200     1210     1080     1600     1650     1700   
                                           T        V       H0       H01     AOSYM     SMH    MOLCAS    OPER   

 PROGRAMS   *        TOTAL       INT
 CPU TIMES  *         0.61      0.40
 REAL TIME  *         1.87 SEC
 DISK USED  *        31.70 MB (local),      126.82 MB (total)
 GA USED    *         0.00 MB       (max)       0.00 MB       (current)
 **********************************************************************************************************************************


 PROGRAM * RHF-SCF (CLOSED SHELL)       Authors: W. Meyer, H.-J. Werner


 NUMBER OF ELECTRONS:      10+   10-    SPACE SYMMETRY=1    SPIN SYMMETRY: Singlet 
 CONVERGENCE THRESHOLDS:    1.00E-04 (Density)    1.00E-09 (Energy)
 INTEGRAL THRESHOLDS:       1.00E-11 (Initial)    1.00E-11 (Final)
 MAX. NUMBER OF ITERATIONS:       60
 INTERPOLATION TYPE:            DIIS
 INTERPOLATION STEPS:              2 (START)      1 (STEP)
 LEVEL SHIFTS:                  0.00 (CLOSED)  0.00 (OPEN) 



 Orbital guess generated from atomic densities. Full valence occupancy:   14

 Molecular orbital dump at record        2101.2

 Initial occupancy:  10

 Direct Fock-matrix evaluation.        Authors: Roland Lindh & Martin Schuetz (1993/96)

 Integral Threshold:                  0.1D-10
 Threshold for writing integrals:     0.1D-06
 Prescreening on density matrix:        ON 
 Calculation will be performed fully direct        

 ITERATION   DDIFF            GRAD            ENERGY        2-EL.EN.            DIPOLE MOMENTS         DIIS   CPU(IT)  CPU(TOT)
    1      0.000D+00      0.000D+00      -152.05062192    196.583923    1.65631    0.07962   -0.00593    0      4.2      6.5     start
    2      0.000D+00      0.695D-02      -152.10228036    190.019120    1.24812   -0.03047   -0.00225    1      3.0      9.5     diag
    3      0.759D-02      0.413D-02      -152.12002208    192.795167    1.30415    0.02444   -0.00373    2      2.9     12.4     diag
    4      0.258D-02      0.438D-03      -152.12043893    192.634227    1.28399    0.02006   -0.00357    3      2.9     15.2     diag
    5      0.397D-03      0.117D-03      -152.12047520    192.640834    1.27759    0.02319   -0.00363    4      2.9     18.1     diag
    6      0.118D-03      0.390D-04      -152.12047822    192.646786    1.27647    0.02191   -0.00359    5      2.8     21.0     diag
    7      0.350D-04      0.149D-04      -152.12047874    192.643955    1.27592    0.02235   -0.00360    6      2.9     23.9     diag
    8      0.146D-04      0.236D-05      -152.12047877    192.644184    1.27581    0.02232   -0.00360    7      2.8     26.7     diag
    9      0.377D-05      0.447D-06      -152.12047877    192.644121    1.27579    0.02232   -0.00360    0      2.6     29.3     orth

 Final occupancy:  10

 !RHF STATE  1.1 Energy              -152.120478767469
 Nuclear energy                        39.09469095
 One-electron energy                 -287.53722996
 Two-electron energy                   96.32206025
 Virial quotient                       -1.00080532
 !RHF STATE  1.1 Dipole moment          1.27579156     0.02232248    -0.00360197
 Dipole moment /Debye                   3.24252632     0.05673437    -0.00915471

 Orbital energies:

         1.1          2.1          3.1          4.1          5.1          6.1          7.1          8.1          9.1         10.1
    -20.601289   -20.517186    -1.395570    -1.308521    -0.752299    -0.704288    -0.620800    -0.558562    -0.521329    -0.466710

        11.1         12.1
      0.020956     0.044643


 HOMO     10.1    -0.466710 =     -12.6998eV
 LUMO     11.1     0.020956 =       0.5702eV
 LUMO-HOMO         0.487665 =      13.2701eV


 **********************************************************************************************************************************
 DATASETS  * FILE   NREC   LENGTH (MB)   RECORD NAMES
              1      18       31.31       500      610      700      900      950      970     1000      129      960     1100   
                                          VAR    BASINP    GEOM    SYMINP    ZMAT    AOBASIS   BASIS     P2S    ABASIS      S 
                                         1400     1410     1200     1210     1080     1600     1650     1700   
                                           T        V       H0       H01     AOSYM     SMH    MOLCAS    OPER   

              2       4        3.53       700     1000      520     2101   
                                         GEOM     BASIS   MCVARS     RHF  

 PROGRAMS   *        TOTAL   RHF-SCF       INT
 CPU TIMES  *        29.92     29.32      0.40
 REAL TIME  *        32.47 SEC
 DISK USED  *        37.08 MB (local),      148.34 MB (total)
 SF USED    *         0.41 MB
 GA USED    *         0.00 MB       (max)       0.00 MB       (current)
 **********************************************************************************************************************************
 SETTING EAB_HF         =      -152.12047877  AU                              

 Dummy atoms: O2  H3  H4


 Recomputing one-electron integrals since nuclear charges changed


 PROGRAM * SEWARD (Integral evaluation for generally contracted gaussian basis sets)     Author: Roland Lindh, 1990

 Geometry written to block  1 of record 700


 Point group  C1  



 ATOMIC COORDINATES

 NR  ATOM    CHARGE       X              Y              Z

   1  O1      8.00   -1.326958228   -0.105938530    0.018788152
   2  H1      1.00   -1.931665240    1.600174317   -0.021710523
   3  H2      1.00    0.486644278    0.079598091    0.009862479
   4  O2      0.00    3.527379489    0.055740079    0.002740525
   5  H3      0.00    4.239091193   -0.772678184    1.450505785
   6  H4      0.00    4.230857094   -0.844172021   -1.405866056

 Bond lengths in Bohr (Angstrom)

 1-2  1.810561173  1-3  1.823090112  4-5  1.813514438  4-6  1.813531094
     ( 0.958107712)     ( 0.964737741)     ( 0.959670512)     ( 0.959679326)

 Bond angles

  2-1-3  103.66482512   5-4-6  103.95523303

 NUCLEAR CHARGE:                   10
 NUMBER OF PRIMITIVE AOS:         242
 NUMBER OF SYMMETRY AOS:          216
 NUMBER OF CONTRACTIONS:          184   (  184A   )
 NUMBER OF CORE ORBITALS:           1   (    1A   )
 NUMBER OF VALENCE ORBITALS:        6   (    6A   )

 MOLECULE CHANGED: INITIALIZING OCCUPATION AND DUMP RECORDS


 NUCLEAR REPULSION ENERGY    9.15671413


 Eigenvalues of metric

         1 0.205E-03 0.221E-03 0.286E-03 0.318E-03 0.586E-03 0.783E-03 0.103E-02 0.133E-02


 OPERATOR DM      FOR CENTER  0  COORDINATES:    0.000000    0.000000    0.000000


 **********************************************************************************************************************************
 DATASETS  * FILE   NREC   LENGTH (MB)   RECORD NAMES
              1      18       31.31       500      610      700      900      950      970     1000      129      960     1100   
                                          VAR    BASINP    GEOM    SYMINP    ZMAT    AOBASIS   BASIS     P2S    ABASIS      S 
                                         1400     1410     1200     1210     1080     1600     1650     1700   
                                           T        V       H0       H01     AOSYM     SMH    MOLCAS    OPER   

              2       4        3.53       700     1000      520     2101   
                                         GEOM     BASIS   MCVARS     RHF  

 PROGRAMS   *        TOTAL       INT   RHF-SCF       INT
 CPU TIMES  *        29.97      0.04     29.32      0.40
 REAL TIME  *        32.64 SEC
 DISK USED  *        37.08 MB (local),      148.34 MB (total)
 SF USED    *         0.41 MB
 GA USED    *         0.00 MB       (max)       0.00 MB       (current)
 **********************************************************************************************************************************


 PROGRAM * RHF-SCF (CLOSED SHELL)       Authors: W. Meyer, H.-J. Werner


 NUMBER OF ELECTRONS:       5+    5-    SPACE SYMMETRY=1    SPIN SYMMETRY: Singlet 
 CONVERGENCE THRESHOLDS:    1.00E-04 (Density)    1.00E-09 (Energy)
 INTEGRAL THRESHOLDS:       1.00E-11 (Initial)    1.00E-11 (Final)
 MAX. NUMBER OF ITERATIONS:       60
 INTERPOLATION TYPE:            DIIS
 INTERPOLATION STEPS:              2 (START)      1 (STEP)
 LEVEL SHIFTS:                  0.00 (CLOSED)  0.00 (OPEN) 



 Orbital guess generated from atomic densities. Full valence occupancy:    7

 Molecular orbital dump at record        2201.2

 Initial occupancy:   5

 Direct Fock-matrix evaluation.        Authors: Roland Lindh & Martin Schuetz (1993/96)

 Integral Threshold:                  0.1D-10
 Threshold for writing integrals:     0.1D-06
 Prescreening on density matrix:        ON 
 Calculation will be performed fully direct        

 ITERATION   DDIFF            GRAD            ENERGY        2-EL.EN.            DIPOLE MOMENTS         DIIS   CPU(IT)  CPU(TOT)
    1      0.000D+00      0.000D+00       -76.02229883     77.591875    0.61914    0.96456   -0.02521    0      4.1      6.7     start
    2      0.000D+00      0.719D-02       -76.04914206     74.018531    0.36315    0.56917   -0.01487    1      2.9      9.6     diag
    3      0.556D-02      0.451D-02       -76.06009734     75.589224    0.42630    0.66751   -0.01744    2      2.9     12.5     diag
    4      0.198D-02      0.418D-03       -76.06028000     75.500436    0.42403    0.66466   -0.01736    3      2.8     15.3     diag
    5      0.251D-03      0.113D-03       -76.06029815     75.514256    0.42321    0.66364   -0.01734    4      2.9     18.2     diag
    6      0.773D-04      0.214D-04       -76.06029919     75.513499    0.42307    0.66352   -0.01733    5      2.8     21.0     diag
    7      0.188D-04      0.413D-05       -76.06029924     75.513618    0.42301    0.66346   -0.01733    6      2.6     23.6     diag
    8      0.493D-05      0.774D-06       -76.06029924     75.513555    0.42300    0.66344   -0.01733    0      2.5     26.1     orth

 Final occupancy:   5

 !RHF STATE  1.1 Energy               -76.060299240081
 Nuclear energy                         9.15671413
 One-electron energy                 -122.97379105
 Two-electron energy                   37.75677768
 Virial quotient                       -1.00156106
 !RHF STATE  1.1 Dipole moment          0.42299958     0.66343758    -0.01733137
 Dipole moment /Debye                   1.07508727     1.68617968    -0.04404905

 Orbital energies:

         1.1          2.1          3.1          4.1          5.1          6.1          7.1
    -20.568248    -1.352010    -0.713864    -0.585751    -0.510244     0.022068     0.042970


 HOMO      5.1    -0.510244 =     -13.8844eV
 LUMO      6.1     0.022068 =       0.6005eV
 LUMO-HOMO         0.532312 =      14.4850eV


 **********************************************************************************************************************************
 DATASETS  * FILE   NREC   LENGTH (MB)   RECORD NAMES
              1      18       31.31       500      610      700      900      950      970     1000      129      960     1100   
                                          VAR    BASINP    GEOM    SYMINP    ZMAT    AOBASIS   BASIS     P2S    ABASIS      S 
                                         1400     1410     1200     1210     1080     1600     1650     1700   
                                           T        V       H0       H01     AOSYM     SMH    MOLCAS    OPER   

              2       5        7.39       700     1000      520     2101     2201   
                                         GEOM     BASIS   MCVARS     RHF      RHF  

 PROGRAMS   *        TOTAL   RHF-SCF       INT   RHF-SCF       INT
 CPU TIMES  *        56.07     26.10      0.04     29.32      0.40
 REAL TIME  *        58.90 SEC
 DISK USED  *        40.80 MB (local),      163.20 MB (total)
 SF USED    *         0.41 MB
 GA USED    *         0.00 MB       (max)       0.00 MB       (current)
 **********************************************************************************************************************************
 SETTING EA_HF          =       -76.06029924  AU                              

 Dummy atoms: O1  H1  H2


 Recomputing one-electron integrals since nuclear charges changed


 PROGRAM * SEWARD (Integral evaluation for generally contracted gaussian basis sets)     Author: Roland Lindh, 1990

 Geometry written to block  1 of record 700


 Point group  C1  



 ATOMIC COORDINATES

 NR  ATOM    CHARGE       X              Y              Z

   1  O1      0.00   -1.326958228   -0.105938530    0.018788152
   2  H1      0.00   -1.931665240    1.600174317   -0.021710523
   3  H2      0.00    0.486644278    0.079598091    0.009862479
   4  O2      8.00    3.527379489    0.055740079    0.002740525
   5  H3      1.00    4.239091193   -0.772678184    1.450505785
   6  H4      1.00    4.230857094   -0.844172021   -1.405866056

 Bond lengths in Bohr (Angstrom)

 1-2  1.810561173  1-3  1.823090112  4-5  1.813514438  4-6  1.813531094
     ( 0.958107712)     ( 0.964737741)     ( 0.959670512)     ( 0.959679326)

 Bond angles

  2-1-3  103.66482512   5-4-6  103.95523303

 NUCLEAR CHARGE:                   10
 NUMBER OF PRIMITIVE AOS:         242
 NUMBER OF SYMMETRY AOS:          216
 NUMBER OF CONTRACTIONS:          184   (  184A   )
 NUMBER OF CORE ORBITALS:           1   (    1A   )
 NUMBER OF VALENCE ORBITALS:        6   (    6A   )

 MOLECULE CHANGED: INITIALIZING OCCUPATION AND DUMP RECORDS


 NUCLEAR REPULSION ENERGY    9.17259115


 Eigenvalues of metric

         1 0.205E-03 0.221E-03 0.286E-03 0.318E-03 0.586E-03 0.783E-03 0.103E-02 0.133E-02


 OPERATOR DM      FOR CENTER  0  COORDINATES:    0.000000    0.000000    0.000000


 **********************************************************************************************************************************
 DATASETS  * FILE   NREC   LENGTH (MB)   RECORD NAMES
              1      18       31.31       500      610      700      900      950      970     1000      129      960     1100   
                                          VAR    BASINP    GEOM    SYMINP    ZMAT    AOBASIS   BASIS     P2S    ABASIS      S 
                                         1400     1410     1200     1210     1080     1600     1650     1700   
                                           T        V       H0       H01     AOSYM     SMH    MOLCAS    OPER   

              2       5        7.39       700     1000      520     2101     2201   
                                         GEOM     BASIS   MCVARS     RHF      RHF  

 PROGRAMS   *        TOTAL       INT   RHF-SCF       INT   RHF-SCF       INT
 CPU TIMES  *        56.13      0.05     26.10      0.04     29.32      0.40
 REAL TIME  *        59.03 SEC
 DISK USED  *        40.80 MB (local),      163.20 MB (total)
 SF USED    *         0.41 MB
 GA USED    *         0.00 MB       (max)       0.00 MB       (current)
 **********************************************************************************************************************************


 PROGRAM * RHF-SCF (CLOSED SHELL)       Authors: W. Meyer, H.-J. Werner


 NUMBER OF ELECTRONS:       5+    5-    SPACE SYMMETRY=1    SPIN SYMMETRY: Singlet 
 CONVERGENCE THRESHOLDS:    1.00E-04 (Density)    1.00E-09 (Energy)
 INTEGRAL THRESHOLDS:       1.00E-11 (Initial)    1.00E-11 (Final)
 MAX. NUMBER OF ITERATIONS:       60
 INTERPOLATION TYPE:            DIIS
 INTERPOLATION STEPS:              2 (START)      1 (STEP)
 LEVEL SHIFTS:                  0.00 (CLOSED)  0.00 (OPEN) 



 Orbital guess generated from atomic densities. Full valence occupancy:    7

 Molecular orbital dump at record        2301.2

 Initial occupancy:   5

 Direct Fock-matrix evaluation.        Authors: Roland Lindh & Martin Schuetz (1993/96)

 Integral Threshold:                  0.1D-10
 Threshold for writing integrals:     0.1D-06
 Prescreening on density matrix:        ON 
 Calculation will be performed fully direct        

 ITERATION   DDIFF            GRAD            ENERGY        2-EL.EN.            DIPOLE MOMENTS         DIIS   CPU(IT)  CPU(TOT)
    1      0.000D+00      0.000D+00       -76.02260677     77.618539    0.72243   -0.88196    0.01998    0      4.1      6.6     start
    2      0.000D+00      0.719D-02       -76.04942822     74.049799    0.42648   -0.52011    0.01178    1      2.9      9.4     diag
    3      0.559D-02      0.450D-02       -76.06032134     75.616456    0.49974   -0.60975    0.01381    2      2.8     12.2     diag
    4      0.199D-02      0.418D-03       -76.06050310     75.527797    0.49750   -0.60700    0.01375    3      2.8     15.0     diag
    5      0.255D-03      0.113D-03       -76.06052099     75.541497    0.49668   -0.60601    0.01373    4      2.9     17.9     diag
    6      0.760D-04      0.212D-04       -76.06052201     75.540766    0.49657   -0.60588    0.01373    5      2.8     20.7     diag
    7      0.184D-04      0.407D-05       -76.06052205     75.540878    0.49651   -0.60581    0.01373    6      2.7     23.4     diag
    8      0.490D-05      0.768D-06       -76.06052205     75.540819    0.49650   -0.60580    0.01373    0      2.5     25.9     orth

 Final occupancy:   5

 !RHF STATE  1.1 Energy               -76.060522053440
 Nuclear energy                         9.17259115
 One-electron energy                 -123.00352293
 Two-electron energy                   37.77040972
 Virial quotient                       -1.00144755
 !RHF STATE  1.1 Dipole moment          0.49649969    -0.60579647     0.01372574
 Dipole moment /Debye                   1.26189369    -1.53968019     0.03488506

 Orbital energies:

         1.1          2.1          3.1          4.1          5.1          6.1          7.1
    -20.567650    -1.352622    -0.715301    -0.585472    -0.510307     0.026398     0.046615


 HOMO      5.1    -0.510307 =     -13.8862eV
 LUMO      6.1     0.026398 =       0.7183eV
 LUMO-HOMO         0.536705 =      14.6045eV


 **********************************************************************************************************************************
 DATASETS  * FILE   NREC   LENGTH (MB)   RECORD NAMES
              1      18       31.31       500      610      700      900      950      970     1000      129      960     1100   
                                          VAR    BASINP    GEOM    SYMINP    ZMAT    AOBASIS   BASIS     P2S    ABASIS      S 
                                         1400     1410     1200     1210     1080     1600     1650     1700   
                                           T        V       H0       H01     AOSYM     SMH    MOLCAS    OPER   

              2       6       11.24       700     1000      520     2101     2201     2301   
                                         GEOM     BASIS   MCVARS     RHF      RHF      RHF  

 PROGRAMS   *        TOTAL   RHF-SCF       INT   RHF-SCF       INT   RHF-SCF       INT
 CPU TIMES  *        82.04     25.91      0.05     26.10      0.04     29.32      0.40
 REAL TIME  *        85.12 SEC
 DISK USED  *        44.65 MB (local),      178.61 MB (total)
 SF USED    *         0.41 MB
 GA USED    *         0.00 MB       (max)       0.00 MB       (current)
 **********************************************************************************************************************************
 SETTING EB_HF          =       -76.06052205  AU                              
 SETTING E_AB_INT       =         0.00034253  AU                              

 *** results in hartree
 E_AB_INT         =         0.00034253 AU
 Molecular orbitals read from record     2301.2  Type=RHF/CANONICAL (state 1.1)
 Occupation numbers read from record     2301.2  Type=RHF/RHF (state 1.1)
 Orbital energies read from record       2301.2  Type=RHF/CANONICAL (state 1.1)
 Redundancy group numbers read from rec  2301.2  Type=RHF/RHF (state 1.1)

 RHF/aug-cc-pVTZ energy=    -76.060522053440

         RHF-SCF         RHF-SCF         RHF-SCF
    -76.06052205    -76.06029924   -152.12047877
 **********************************************************************************************************************************
 Molpro calculation terminated
