
     Program PWSCF v.7.2 starts on 12Oct2023 at 15:59:46 

     This program is part of the open-source Quantum ESPRESSO suite
     for quantum simulation of materials; please cite
         "P. Giannozzi et al., J. Phys.:Condens. Matter 21 395502 (2009);
         "P. Giannozzi et al., J. Phys.:Condens. Matter 29 465901 (2017);
         "P. Giannozzi et al., J. Chem. Phys. 152 154105 (2020);
          URL http://www.quantum-espresso.org", 
     in publications or presentations arising from this work. More details at
     http://www.quantum-espresso.org/quote

     Parallel version (MPI), running on    32 processors

     MPI processes distributed on     1 nodes
     249170 MiB available memory on the printing compute node when the environment starts

     Reading input from H2O_CO_dimer_O_H_contact_44_precision_monomer_2.in
Warning: card &CELL ignored
Warning: card / ignored

     Current dimensions of program PWSCF are:
     Max number of different atomic species (ntypx) = 10
     Max number of k-points (npk) =  40000
     Max angular momentum in pseudopotentials (lmaxx) =  4
     file C.pbe-n-kjpaw_psl.1.0.0.UPF: wavefunction(s)  2S 2P renormalized
     file O.pbe-n-kjpaw_psl.1.0.0.UPF: wavefunction(s)  2S 2P renormalized

     IMPORTANT: XC functional enforced from input :
     Exchange-correlation= PBE
                           (   1   4   3   4   0   0   0)
     Any further DFT definition will be discarded
     Please, verify this is what you really want


     gamma-point specific algorithms are used

     R & G space division:  proc/nbgrp/npool/nimage =      32
     Subspace diagonalization in iterative solution of the eigenvalue problem:
     a serial algorithm will be used


     Parallelization info
     --------------------
     sticks:   dense  smooth     PW     G-vecs:    dense   smooth      PW
     Min        6395    6395   1598              2177048  2177048  272114
     Max        6398    6398   1600              2177062  2177062  272124
     Sum      204693  204693  51189             69665707 69665707 8707803

     Using Slab Decomposition



     bravais-lattice index     =            0
     lattice parameter (alat)  =      66.1404  a.u.
     unit-cell volume          =  289334.8415 (a.u.)^3
     number of atoms/cell      =            2
     number of atomic types    =            2
     number of electrons       =        10.00
     number of Kohn-Sham states=            5
     kinetic-energy cutoff     =     147.0000  Ry
     charge density cutoff     =     588.0000  Ry
     scf convergence threshold =      1.0E-08
     mixing beta               =       0.7000
     number of iterations used =            8  plain     mixing
     Exchange-correlation= PBE
                           (   1   4   3   4   0   0   0)

     celldm(1)=  66.140414  celldm(2)=   0.000000  celldm(3)=   0.000000
     celldm(4)=   0.000000  celldm(5)=   0.000000  celldm(6)=   0.000000

     crystal axes: (cart. coord. in units of alat)
               a(1) = (   1.000000   0.000000   0.000000 )  
               a(2) = (   0.000000   1.000000   0.000000 )  
               a(3) = (   0.000000   0.000000   1.000000 )  

     reciprocal axes: (cart. coord. in units 2 pi/alat)
               b(1) = (  1.000000  0.000000  0.000000 )  
               b(2) = (  0.000000  1.000000  0.000000 )  
               b(3) = (  0.000000  0.000000  1.000000 )  


     PseudoPot. # 1 for C  read from file:
     /home/users/klimj2am/src/pslibrary.1.0.0/pbe/PSEUDOPOTENTIALS/C.pbe-n-kjpaw_psl.1.0.0.UPF
     MD5 check sum: 9d4797b4e2669f30c50dcc814f8da1dd
     Pseudo is Projector augmented-wave + core cor, Zval =  4.0
     Generated using 'atomic' code by A. Dal Corso  v.7.2
     Shape of augmentation charge: PSQ
     Using radial grid of 1073 points,  4 beta functions with: 
                l(1) =   0
                l(2) =   0
                l(3) =   1
                l(4) =   1
     Q(r) pseudized with 0 coefficients 


     PseudoPot. # 2 for O  read from file:
     /home/users/klimj2am/src/pslibrary.1.0.0/pbe/PSEUDOPOTENTIALS/O.pbe-n-kjpaw_psl.1.0.0.UPF
     MD5 check sum: 48e285564fec6dca10ec424bc53b541b
     Pseudo is Projector augmented-wave + core cor, Zval =  6.0
     Generated using 'atomic' code by A. Dal Corso  v.7.2
     Shape of augmentation charge: PSQ
     Using radial grid of 1095 points,  4 beta functions with: 
                l(1) =   0
                l(2) =   0
                l(3) =   1
                l(4) =   1
     Q(r) pseudized with 0 coefficients 


     atomic species   valence    mass     pseudopotential
        C              4.00    12.01100     C ( 1.00)
        O              6.00    15.99900     O ( 1.00)

     No symmetry found



   Cartesian axes

     site n.     atom                  positions (alat units)
         1           C   tau(   1) = (   0.0008454   0.2422068  -0.0000954  )
         2           O   tau(   2) = (   0.0002289   0.2096712  -0.0000309  )

     number of k points=     1
                       cart. coord. in units 2pi/alat
        k(    1) = (   0.0000000   0.0000000   0.0000000), wk =   2.0000000

     Dense  grid: 34832854 G-vectors     FFT dimensions: ( 512, 512, 512)

     Estimated max dynamical RAM per process >       1.51 GB

     Estimated total dynamical RAM >      48.42 GB

     Initial potential from superposition of free atoms

     starting charge      10.0000, renormalised to      10.0000

     negative rho (up, down):  6.488E-04 0.000E+00
     Starting wfcs are    8 randomized atomic wfcs
     Checking if some PAW data can be deallocated... 

     total cpu time spent up to now is       40.2 secs

     Self-consistent Calculation

     iteration #  1     ecut=   147.00 Ry     beta= 0.70
     Davidson diagonalization with overlap
     ethr =  1.00E-02,  avg # of iterations =  3.0

     negative rho (up, down):  6.366E-04 0.000E+00

     total cpu time spent up to now is       51.8 secs

     total energy              =     -59.88548534 Ry
     estimated scf accuracy    <       0.20958020 Ry

     iteration #  2     ecut=   147.00 Ry     beta= 0.70
     Davidson diagonalization with overlap
     ethr =  2.10E-03,  avg # of iterations =  6.0

     negative rho (up, down):  6.705E-04 0.000E+00

     total cpu time spent up to now is       64.1 secs

     total energy              =     -59.93257636 Ry
     estimated scf accuracy    <       0.50412627 Ry

     iteration #  3     ecut=   147.00 Ry     beta= 0.70
     Davidson diagonalization with overlap
     ethr =  2.10E-03,  avg # of iterations =  1.0

     negative rho (up, down):  8.253E-04 0.000E+00

     total cpu time spent up to now is       74.1 secs

     total energy              =     -59.80395440 Ry
     estimated scf accuracy    <       0.20467296 Ry

     iteration #  4     ecut=   147.00 Ry     beta= 0.70
     Davidson diagonalization with overlap
     ethr =  2.05E-03,  avg # of iterations =  5.0

     negative rho (up, down):  1.040E-03 0.000E+00

     total cpu time spent up to now is       86.0 secs

     total energy              =     -60.02540424 Ry
     estimated scf accuracy    <       0.56382686 Ry

     iteration #  5     ecut=   147.00 Ry     beta= 0.70
     Davidson diagonalization with overlap
     ethr =  2.05E-03,  avg # of iterations =  1.0

     negative rho (up, down):  1.101E-03 0.000E+00

     total cpu time spent up to now is       96.1 secs

     total energy              =     -59.93657775 Ry
     estimated scf accuracy    <       0.32026020 Ry

     iteration #  6     ecut=   147.00 Ry     beta= 0.70
     Davidson diagonalization with overlap
     ethr =  2.05E-03,  avg # of iterations =  5.0

     negative rho (up, down):  1.106E-03 0.000E+00

     total cpu time spent up to now is      107.6 secs

     total energy              =     -60.00846721 Ry
     estimated scf accuracy    <       0.00539646 Ry

     iteration #  7     ecut=   147.00 Ry     beta= 0.70
     Davidson diagonalization with overlap
     ethr =  5.40E-05,  avg # of iterations =  6.0

     negative rho (up, down):  1.136E-03 0.000E+00

     total cpu time spent up to now is      119.8 secs

     total energy              =     -60.01269455 Ry
     estimated scf accuracy    <       0.00048714 Ry

     iteration #  8     ecut=   147.00 Ry     beta= 0.70
     Davidson diagonalization with overlap
     ethr =  4.87E-06,  avg # of iterations =  5.0

     negative rho (up, down):  1.229E-03 0.000E+00

     total cpu time spent up to now is      131.7 secs

     total energy              =     -60.01252687 Ry
     estimated scf accuracy    <       0.00098911 Ry

     iteration #  9     ecut=   147.00 Ry     beta= 0.70
     Davidson diagonalization with overlap
     ethr =  4.87E-06,  avg # of iterations =  2.0

     negative rho (up, down):  1.230E-03 0.000E+00

     total cpu time spent up to now is      142.4 secs

     total energy              =     -60.01256315 Ry
     estimated scf accuracy    <       0.00037251 Ry

     iteration # 10     ecut=   147.00 Ry     beta= 0.70
     Davidson diagonalization with overlap
     ethr =  3.73E-06,  avg # of iterations =  2.0

     negative rho (up, down):  1.228E-03 0.000E+00

     total cpu time spent up to now is      153.1 secs

     total energy              =     -60.01259019 Ry
     estimated scf accuracy    <       0.00026961 Ry

     iteration # 11     ecut=   147.00 Ry     beta= 0.70
     Davidson diagonalization with overlap
     ethr =  2.70E-06,  avg # of iterations =  2.0

     negative rho (up, down):  1.228E-03 0.000E+00

     total cpu time spent up to now is      163.8 secs

     total energy              =     -60.01258609 Ry
     estimated scf accuracy    <       0.00024578 Ry

     iteration # 12     ecut=   147.00 Ry     beta= 0.70
     Davidson diagonalization with overlap
     ethr =  2.46E-06,  avg # of iterations =  1.0

     negative rho (up, down):  1.229E-03 0.000E+00

     total cpu time spent up to now is      174.3 secs

     total energy              =     -60.01258340 Ry
     estimated scf accuracy    <       0.00018991 Ry

     iteration # 13     ecut=   147.00 Ry     beta= 0.70
     Davidson diagonalization with overlap
     ethr =  1.90E-06,  avg # of iterations =  1.0

     negative rho (up, down):  1.229E-03 0.000E+00

     total cpu time spent up to now is      184.7 secs

     total energy              =     -60.01256810 Ry
     estimated scf accuracy    <       0.00016546 Ry

     iteration # 14     ecut=   147.00 Ry     beta= 0.70
     Davidson diagonalization with overlap
     ethr =  1.65E-06,  avg # of iterations =  1.0

     negative rho (up, down):  1.229E-03 0.000E+00

     total cpu time spent up to now is      195.4 secs

     total energy              =     -60.01257001 Ry
     estimated scf accuracy    <       0.00010179 Ry

     iteration # 15     ecut=   147.00 Ry     beta= 0.70
     Davidson diagonalization with overlap
     ethr =  1.02E-06,  avg # of iterations =  2.0

     negative rho (up, down):  1.230E-03 0.000E+00

     total cpu time spent up to now is      206.2 secs

     total energy              =     -60.01253898 Ry
     estimated scf accuracy    <       0.00007518 Ry

     iteration # 16     ecut=   147.00 Ry     beta= 0.70
     Davidson diagonalization with overlap
     ethr =  7.52E-07,  avg # of iterations =  5.0

     negative rho (up, down):  1.229E-03 0.000E+00

     total cpu time spent up to now is      218.4 secs

     total energy              =     -60.01261026 Ry
     estimated scf accuracy    <       0.00005204 Ry

     iteration # 17     ecut=   147.00 Ry     beta= 0.70
     Davidson diagonalization with overlap
     ethr =  5.20E-07,  avg # of iterations =  2.0

     negative rho (up, down):  1.229E-03 0.000E+00

     total cpu time spent up to now is      229.2 secs

     total energy              =     -60.01260481 Ry
     estimated scf accuracy    <       0.00004816 Ry

     iteration # 18     ecut=   147.00 Ry     beta= 0.70
     Davidson diagonalization with overlap
     ethr =  4.82E-07,  avg # of iterations =  1.0

     negative rho (up, down):  1.229E-03 0.000E+00

     total cpu time spent up to now is      239.8 secs

     total energy              =     -60.01259589 Ry
     estimated scf accuracy    <       0.00003426 Ry

     iteration # 19     ecut=   147.00 Ry     beta= 0.70
     Davidson diagonalization with overlap
     ethr =  3.43E-07,  avg # of iterations =  1.0

     negative rho (up, down):  1.228E-03 0.000E+00

     total cpu time spent up to now is      250.4 secs

     total energy              =     -60.01259175 Ry
     estimated scf accuracy    <       0.00001584 Ry

     iteration # 20     ecut=   147.00 Ry     beta= 0.70
     Davidson diagonalization with overlap
     ethr =  1.58E-07,  avg # of iterations =  2.0

     negative rho (up, down):  1.227E-03 0.000E+00

     total cpu time spent up to now is      261.2 secs

     total energy              =     -60.01259256 Ry
     estimated scf accuracy    <       0.00000315 Ry

     iteration # 21     ecut=   147.00 Ry     beta= 0.70
     Davidson diagonalization with overlap
     ethr =  3.15E-08,  avg # of iterations = 13.0

     negative rho (up, down):  1.228E-03 0.000E+00

     total cpu time spent up to now is      278.2 secs

     total energy              =     -60.01260067 Ry
     estimated scf accuracy    <       0.00002074 Ry

     iteration # 22     ecut=   147.00 Ry     beta= 0.70
     Davidson diagonalization with overlap
     ethr =  3.15E-08,  avg # of iterations =  1.0

     negative rho (up, down):  1.228E-03 0.000E+00

     total cpu time spent up to now is      288.6 secs

     total energy              =     -60.01259652 Ry
     estimated scf accuracy    <       0.00001614 Ry

     iteration # 23     ecut=   147.00 Ry     beta= 0.70
     Davidson diagonalization with overlap
     ethr =  3.15E-08,  avg # of iterations =  5.0

     negative rho (up, down):  1.228E-03 0.000E+00

     total cpu time spent up to now is      300.6 secs

     total energy              =     -60.01259668 Ry
     estimated scf accuracy    <       0.00000395 Ry

     iteration # 24     ecut=   147.00 Ry     beta= 0.70
     Davidson diagonalization with overlap
     ethr =  3.15E-08,  avg # of iterations =  5.0

     negative rho (up, down):  1.228E-03 0.000E+00

     total cpu time spent up to now is      312.1 secs

     total energy              =     -60.01259817 Ry
     estimated scf accuracy    <       0.00000017 Ry

     iteration # 25     ecut=   147.00 Ry     beta= 0.70
     Davidson diagonalization with overlap
     ethr =  1.73E-09,  avg # of iterations = 10.0

     negative rho (up, down):  1.228E-03 0.000E+00

     total cpu time spent up to now is      328.1 secs

     total energy              =     -60.01259799 Ry
     estimated scf accuracy    <       0.00000207 Ry

     iteration # 26     ecut=   147.00 Ry     beta= 0.70
     Davidson diagonalization with overlap
     ethr =  1.73E-09,  avg # of iterations =  8.0

     negative rho (up, down):  1.228E-03 0.000E+00

     total cpu time spent up to now is      342.5 secs

     total energy              =     -60.01259838 Ry
     estimated scf accuracy    <       0.00000002 Ry

     iteration # 27     ecut=   147.00 Ry     beta= 0.70
     Davidson diagonalization with overlap
     ethr =  1.57E-10,  avg # of iterations =  8.0

     negative rho (up, down):  1.228E-03 0.000E+00

     total cpu time spent up to now is      356.9 secs

     total energy              =     -60.01259841 Ry
     estimated scf accuracy    <       0.00000011 Ry

     iteration # 28     ecut=   147.00 Ry     beta= 0.70
     Davidson diagonalization with overlap
     ethr =  1.57E-10,  avg # of iterations =  1.0

     negative rho (up, down):  1.228E-03 0.000E+00

     total cpu time spent up to now is      367.3 secs

     total energy              =     -60.01259842 Ry
     estimated scf accuracy    <       0.00000009 Ry

     iteration # 29     ecut=   147.00 Ry     beta= 0.70
     Davidson diagonalization with overlap
     ethr =  1.57E-10,  avg # of iterations =  1.0

     negative rho (up, down):  1.228E-03 0.000E+00

     total cpu time spent up to now is      377.7 secs

     total energy              =     -60.01259837 Ry
     estimated scf accuracy    <       0.00000012 Ry

     iteration # 30     ecut=   147.00 Ry     beta= 0.70
     Davidson diagonalization with overlap
     ethr =  1.57E-10,  avg # of iterations =  6.0

     negative rho (up, down):  1.228E-03 0.000E+00

     total cpu time spent up to now is      389.4 secs

     End of self-consistent calculation

          k = 0.0000 0.0000 0.0000 (****** PWs)   bands (ev):

   -29.2870 -14.1005 -11.7847 -11.7846  -9.0605

     highest occupied level (ev):    -9.0605

!    total energy              =     -60.01259838 Ry
     total all-electron energy =      -226.623586 Ry
     estimated scf accuracy    <          6.9E-09 Ry

     The total energy is the sum of the following terms:
     one-electron contribution =    -103.79659658 Ry
     hartree contribution      =      53.25102992 Ry
     xc contribution           =     -11.68907334 Ry
     ewald contribution        =      18.01348354 Ry
     one-center paw contrib.   =     -15.79144193 Ry

     charge density inside the Wigner-Seitz cell:   10.00000000

     reference position (x0):         0.03145179   14.72850799   -0.00374800 bohr

     Dipole moments (with respect to x0):
     Elect  -0.0013  -0.0683   0.0001 au (Ha),  -0.0033  -0.1735   0.0003 Debye
     Ionic   0.0000  -0.0000   0.0000 au (Ha),   0.0000  -0.0000   0.0000 Debye
     Total  -0.0013  -0.0683   0.0001 au (Ha),  -0.0033  -0.1735   0.0003 Debye

     Electrons quadrupole moment        -35.44127177 a.u. (Ha)
          Ions quadrupole moment         11.11779180 a.u. (Ha)
         Total quadrupole moment        -24.32347997 a.u. (Ha)

     *********    MAKOV-PAYNE CORRECTION    *********

     Makov-Payne correction with Madelung constant =   2.8373

     Makov-Payne correction     0.00000000 Ry =  0.000 eV (1st order, 1/a0)
                                0.00000007 Ry =  0.000 eV (2nd order, 1/a0^3)
                                0.00000007 Ry =  0.000 eV (total)

!    Total+Makov-Payne energy  =     -60.01259831 Ry
     Corrected vacuum level    =       0.00479151 eV

     convergence has been achieved in  30 iterations

     Writing all to output data dir ./pwscf.save/

     init_run     :     36.99s CPU     39.68s WALL (       1 calls)
     electrons    :    298.12s CPU    352.08s WALL (       1 calls)

     Called by init_run:
     wfcinit      :      1.07s CPU      1.28s WALL (       1 calls)
     potinit      :      3.93s CPU      4.84s WALL (       1 calls)
     hinit0       :      4.65s CPU      5.00s WALL (       1 calls)

     Called by electrons:
     c_bands      :     85.74s CPU     90.47s WALL (      30 calls)
     sum_band     :     84.34s CPU    101.92s WALL (      30 calls)
     v_of_rho     :     65.43s CPU     79.75s WALL (      31 calls)
     newd         :     36.73s CPU     52.74s WALL (      31 calls)
     PAW_pot      :      0.40s CPU      0.45s WALL (      31 calls)
     mix_rho      :     24.68s CPU     26.12s WALL (      30 calls)

     Called by c_bands:
     init_us_2    :      1.36s CPU      1.39s WALL (      61 calls)
     init_us_2:cp :      1.36s CPU      1.39s WALL (      61 calls)
     regterg      :     83.91s CPU     88.63s WALL (      30 calls)

     Called by *egterg:
     rdiaghg      :      0.02s CPU      0.03s WALL (     142 calls)
     h_psi        :     74.43s CPU     79.16s WALL (     143 calls)
     s_psi        :      1.53s CPU      1.54s WALL (     143 calls)
     g_psi        :      0.24s CPU      0.24s WALL (     112 calls)

     Called by h_psi:
     h_psi:calbec :      1.49s CPU      1.54s WALL (     143 calls)
     vloc_psi     :     70.95s CPU     75.61s WALL (     143 calls)
     add_vuspsi   :      1.52s CPU      1.53s WALL (     143 calls)

     General routines
     calbec       :      1.85s CPU      1.91s WALL (     173 calls)
     fft          :     55.23s CPU     66.07s WALL (     279 calls)
     ffts         :      5.42s CPU      6.30s WALL (      30 calls)
     fftw         :     64.85s CPU     69.92s WALL (     710 calls)

     Parallel routines

     PWSCF        :   5m37.07s CPU   6m36.01s WALL


   This run was terminated on:  16: 6:22  12Oct2023            

=------------------------------------------------------------------------------=
   JOB DONE.
=------------------------------------------------------------------------------=
